 vasp.5.4.4.18Apr17-6-g9f103f2a35 (build Sep 16 2021 13:51:27) complex          
  
 executed on             LinuxIFC date 2023.03.16  11:28:58
 running on   24 total cores
 distrk:  each k-point on   24 cores,    1 groups
 distr:  one band on NCORES_PER_BAND=  24 cores,    1 groups


--------------------------------------------------------------------------------------------------------


 INCAR:
 POTCAR:    PAW_PBE Sn 08Apr2002                  
 POTCAR:    PAW_PBE Se 06Sep2000                  

 ----------------------------------------------------------------------------- 
|                                                                             |
|           W    W    AA    RRRRR   N    N  II  N    N   GGGG   !!!           |
|           W    W   A  A   R    R  NN   N  II  NN   N  G    G  !!!           |
|           W    W  A    A  R    R  N N  N  II  N N  N  G       !!!           |
|           W WW W  AAAAAA  RRRRR   N  N N  II  N  N N  G  GGG   !            |
|           WW  WW  A    A  R   R   N   NN  II  N   NN  G    G                |
|           W    W  A    A  R    R  N    N  II  N    N   GGGG   !!!           |
|                                                                             |
|      For optimal performance we recommend to set                            |
|        NCORE= 4 - approx SQRT( number of cores)                             |
|      NCORE specifies how many cores store one orbital (NPAR=cpu/NCORE).     |
|      This setting can  greatly improve the performance of VASP for DFT.     |
|      The default,   NCORE=1            might be grossly inefficient         |
|      on modern multi-core architectures or massively parallel machines.     |
|      Do your own testing !!!!                                               |
|      Unfortunately you need to use the default for GW and RPA calculations. |
|      (for HF NCORE is supported but not extensively tested yet)             |
|                                                                             |
 ----------------------------------------------------------------------------- 

 POTCAR:    PAW_PBE Sn 08Apr2002                  
   VRHFIN =Sn: s2p2                                                             
   LEXCH  = PE                                                                  
   EATOM  =    94.0860 eV,    6.9151 Ry                                         
                                                                                
   TITEL  = PAW_PBE Sn 08Apr2002                                                
   LULTRA =        F    use ultrasoft PP ?                                      
   IUNSCR =        1    unscreen: 0-lin 1-nonlin 2-no                           
   RPACOR =    2.000    partial core radius                                     
   POMASS =  118.710; ZVAL   =    4.000    mass and valenz                      
   RCORE  =    3.000    outmost cutoff radius                                   
   RWIGS  =    2.960; RWIGS  =    1.566    wigner-seitz radius (au A)           
   ENMAX  =  103.236; ENMIN  =   77.427 eV                                      
   ICORE  =        3    local potential                                         
   LCOR   =        T    correct aug charges                                     
   LPAW   =        T    paw PP                                                  
   EAUG   =  263.585                                                            
   DEXC   =    0.000                                                            
   RMAX   =    3.078    core radius for proj-oper                               
   RAUG   =    1.300    factor for augmentation sphere                          
   RDEP   =    3.022    radius for radial grids                                 
   RDEPT  =    2.655    core radius for aug-charge                              
                                                                                
   Atomic configuration                                                         
   13 entries                                                                   
     n  l   j            E        occ.                                          
     1  0  0.50    -29007.2859   2.0000                                         
     2  0  0.50     -4378.8056   2.0000                                         
     2  1  1.50     -3930.4293   6.0000                                         
     3  0  0.50      -845.0264   2.0000                                         
     3  1  1.50      -698.5725   6.0000                                         
     3  2  2.50      -473.2839  10.0000                                         
     4  0  0.50      -133.9036   2.0000                                         
     4  1  1.50       -89.6752   6.0000                                         
     4  2  2.50       -25.8375  10.0000                                         
     5  0  0.50       -10.5484   2.0000                                         
     5  1  0.50        -3.6940   2.0000                                         
     5  2  1.50        -1.3606   0.0000                                         
     4  3  2.50        -4.0817   0.0000                                         
   Description                                                                  
     l       E           TYP  RCUT    TYP  RCUT                                 
     0    -10.5483727     23  3.000                                             
     0     27.2116520     23  3.000                                             
     1     -3.6939829     23  3.000                                             
     1      1.9821976     23  3.000                                             
     2     -1.3605826     23  3.000                                             
     3     -2.7211652     23  3.000                                             
  local pseudopotential read in
  partial core-charges read in
  partial kinetic energy density read in
  atomic valenz-charges read in
  non local Contribution for L=           0  read in
    real space projection operators read in
  non local Contribution for L=           0  read in
    real space projection operators read in
  non local Contribution for L=           1  read in
    real space projection operators read in
  non local Contribution for L=           1  read in
    real space projection operators read in
  non local Contribution for L=           2  read in
    real space projection operators read in
    PAW grid and wavefunctions read in
 
   number of l-projection  operators is LMAX  =           5
   number of lm-projection operators is LMMAX =          13
 
 POTCAR:    PAW_PBE Se 06Sep2000                  
   VRHFIN =Se: s2p4                                                             
   LEXCH  = PE                                                                  
   EATOM  =   257.1286 eV,   18.8984 Ry                                         
                                                                                
   TITEL  = PAW_PBE Se 06Sep2000                                                
   LULTRA =        F    use ultrasoft PP ?                                      
   IUNSCR =        1    unscreen: 0-lin 1-nonlin 2-no                           
   RPACOR =    1.900    partial core radius                                     
   POMASS =   78.960; ZVAL   =    6.000    mass and valenz                      
   RCORE  =    2.100    outmost cutoff radius                                   
   RWIGS  =    2.200; RWIGS  =    1.164    wigner-seitz radius (au A)           
   ENMAX  =  211.555; ENMIN  =  158.666 eV                                      
   ICORE  =        3    local potential                                         
   LCOR   =        T    correct aug charges                                     
   LPAW   =        T    paw PP                                                  
   EAUG   =  446.842                                                            
   DEXC   =    0.000                                                            
   RMAX   =    2.147    core radius for proj-oper                               
   RAUG   =    1.300    factor for augmentation sphere                          
   RDEP   =    2.177    radius for radial grids                                 
   RDEPT  =    1.928    core radius for aug-charge                              
                                                                                
   Atomic configuration                                                         
   10 entries                                                                   
     n  l   j            E        occ.                                          
     1  0  0.50    -12503.4787   2.0000                                         
     2  0  0.50     -1606.9547   2.0000                                         
     2  1  1.50     -1413.3140   6.0000                                         
     3  0  0.50      -213.4885   2.0000                                         
     3  1  1.50      -152.9538   6.0000                                         
     3  2  2.50       -53.1221  10.0000                                         
     4  0  0.50       -17.2865   2.0000                                         
     4  1  0.50        -6.5110   4.0000                                         
     4  2  2.50        -6.8029   0.0000                                         
     4  3  2.50        -6.8029   0.0000                                         
   Description                                                                  
     l       E           TYP  RCUT    TYP  RCUT                                 
     0    -17.2865377     23  2.100                                             
     0    -15.3094411     23  2.100                                             
     1     -6.5110275     23  2.100                                             
     1     -0.0695192     23  2.100                                             
     2     -6.8029130     23  2.100                                             
     3     -1.3605826      7  2.100                                             
  local pseudopotential read in
  partial core-charges read in
  partial kinetic energy density read in
  atomic valenz-charges read in
  non local Contribution for L=           0  read in
    real space projection operators read in
  non local Contribution for L=           0  read in
    real space projection operators read in
  non local Contribution for L=           1  read in
    real space projection operators read in
  non local Contribution for L=           1  read in
    real space projection operators read in
  non local Contribution for L=           2  read in
    real space projection operators read in
    PAW grid and wavefunctions read in
 
   number of l-projection  operators is LMAX  =           5
   number of lm-projection operators is LMMAX =          13
 
 WARNING: PSMAXN for non-local potential too small
          PSMAXN should be >   12.5490833729506       NTYP=           1
  PAW_PBE Sn 08Apr2002                  :
 energy of atom  1       EATOM=  -94.0860
 kinetic energy error for atom=    0.0000 (will be added to EATOM!!)
  PAW_PBE Se 06Sep2000                  :
 energy of atom  2       EATOM= -257.1286
 kinetic energy error for atom=    0.0006 (will be added to EATOM!!)
 
 
 POSCAR:  POSCAR with strain of -0.005           
  positions in direct lattice
  No initial velocities read in
 exchange correlation table for  LEXCH =        8
   RHO(1)=    0.500       N(1)  =     2000
   RHO(2)=  100.500       N(2)  =     4000
 


--------------------------------------------------------------------------------------------------------


 ion  position               nearest neighbor table
   1  0.581  0.750  0.569-   4 2.72   3 2.91   3 2.92   3 3.21   3 3.22
   2  0.081  0.250  0.431-   3 2.72   4 2.91   4 2.92   4 3.21   4 3.22
   3  0.033  0.250  0.567-   2 2.72   1 2.91   1 2.92   1 3.21   1 3.22
   4  0.533  0.750  0.433-   1 2.72   2 2.91   2 2.92   2 3.21   2 3.22
 
  Warning from LATTYP: Monoclinic adjustement (A1->A3, A2->A1, A3->A2)!
  Warning from LATTYP: Got some problem with cell dimensions!
  Tried to take original basis but could not verify dimensions!
  LATTYP: Found a simple monoclinic cell.
 ALAT       =     6.1033958059
 B/A-ratio  =     3.2768643287
 C/A-ratio  =     1.5894025022
 COS(beta)  =    -0.9487174643
  
  Lattice vectors:
  
 A1 = (  -4.3497137865,  -4.2815219653,   0.0000000000)
 A2 = (   0.0000000000,   0.0000000000, -20.0000000000)
 A3 = (   8.7101587676,   4.2705660734,   0.0000000000)


Analysis of symmetry for initial positions (statically):
=====================================================================
 Subroutine PRICEL returns:
 Original cell was already a primitive cell.
 

 Routine SETGRP: Setting up the symmetry group for a 
 simple monoclinic supercell.


 Subroutine GETGRP returns: Found  2 space group operations
 (whereof  1 operations were pure point group operations)
 out of a pool of  4 trial point group operations.


The static configuration has the point symmetry C_1 .
 The point group associated with its full space group is C_1h.


Analysis of symmetry for dynamics (positions and initial velocities):
=====================================================================
 Subroutine PRICEL returns:
 Original cell was already a primitive cell.
 

 Routine SETGRP: Setting up the symmetry group for a 
 simple monoclinic supercell.


 Subroutine GETGRP returns: Found  2 space group operations
 (whereof  1 operations were pure point group operations)
 out of a pool of  4 trial point group operations.


The dynamic configuration has the point symmetry C_1 .
 The point group associated with its full space group is C_1h.


 Subroutine INISYM returns: Found  2 space group operations
 (whereof  1 operations are pure point group operations),
 and found     1 'primitive' translations

 
 
 KPOINTS: KMesh Grid                              

Automatic generation of k-mesh.
Space group operators:
 irot       det(A)        alpha          n_x          n_y          n_z        tau_x        tau_y        tau_z
    1     1.000000     0.000001     1.000000     0.000000     0.000000     0.000000     0.000000     0.000000
    2    -1.000000   180.000000     0.000000     0.000000     1.000000    -0.500000    -0.500000    -0.000000
 
 Subroutine IBZKPT returns following result:
 ===========================================
 
 Found    113 irreducible k-points:
 
 Following reciprocal coordinates:
            Coordinates               Weight
  0.000000  0.000000  0.000000      1.000000
  0.066667 -0.000000  0.000000      2.000000
  0.133333 -0.000000  0.000000      2.000000
  0.200000  0.000000  0.000000      2.000000
  0.266667  0.000000  0.000000      2.000000
  0.333333 -0.000000  0.000000      2.000000
  0.400000  0.000000  0.000000      2.000000
  0.466667 -0.000000  0.000000      2.000000
 -0.000000  0.066667  0.000000      2.000000
  0.066667  0.066667  0.000000      2.000000
  0.133333  0.066667  0.000000      2.000000
  0.200000  0.066667  0.000000      2.000000
  0.266667  0.066667  0.000000      2.000000
  0.333333  0.066667  0.000000      2.000000
  0.400000  0.066667  0.000000      2.000000
  0.466667  0.066667  0.000000      2.000000
 -0.466667  0.066667  0.000000      2.000000
 -0.400000  0.066667  0.000000      2.000000
 -0.333333  0.066667  0.000000      2.000000
 -0.266667  0.066667  0.000000      2.000000
 -0.200000  0.066667  0.000000      2.000000
 -0.133333  0.066667  0.000000      2.000000
 -0.066667  0.066667  0.000000      2.000000
 -0.000000  0.133333  0.000000      2.000000
  0.066667  0.133333  0.000000      2.000000
  0.133333  0.133333  0.000000      2.000000
  0.200000  0.133333  0.000000      2.000000
  0.266667  0.133333  0.000000      2.000000
  0.333333  0.133333  0.000000      2.000000
  0.400000  0.133333  0.000000      2.000000
  0.466667  0.133333  0.000000      2.000000
 -0.466667  0.133333  0.000000      2.000000
 -0.400000  0.133333  0.000000      2.000000
 -0.333333  0.133333  0.000000      2.000000
 -0.266667  0.133333  0.000000      2.000000
 -0.200000  0.133333  0.000000      2.000000
 -0.133333  0.133333  0.000000      2.000000
 -0.066667  0.133333  0.000000      2.000000
  0.000000  0.200000  0.000000      2.000000
  0.066667  0.200000  0.000000      2.000000
  0.133333  0.200000  0.000000      2.000000
  0.200000  0.200000  0.000000      2.000000
  0.266667  0.200000  0.000000      2.000000
  0.333333  0.200000  0.000000      2.000000
  0.400000  0.200000  0.000000      2.000000
  0.466667  0.200000  0.000000      2.000000
 -0.466667  0.200000  0.000000      2.000000
 -0.400000  0.200000  0.000000      2.000000
 -0.333333  0.200000  0.000000      2.000000
 -0.266667  0.200000  0.000000      2.000000
 -0.200000  0.200000  0.000000      2.000000
 -0.133333  0.200000  0.000000      2.000000
 -0.066667  0.200000  0.000000      2.000000
  0.000000  0.266667  0.000000      2.000000
  0.066667  0.266667  0.000000      2.000000
  0.133333  0.266667  0.000000      2.000000
  0.200000  0.266667  0.000000      2.000000
  0.266667  0.266667  0.000000      2.000000
  0.333333  0.266667  0.000000      2.000000
  0.400000  0.266667  0.000000      2.000000
  0.466667  0.266667  0.000000      2.000000
 -0.466667  0.266667  0.000000      2.000000
 -0.400000  0.266667  0.000000      2.000000
 -0.333333  0.266667  0.000000      2.000000
 -0.266667  0.266667  0.000000      2.000000
 -0.200000  0.266667  0.000000      2.000000
 -0.133333  0.266667  0.000000      2.000000
 -0.066667  0.266667  0.000000      2.000000
 -0.000000  0.333333  0.000000      2.000000
  0.066667  0.333333  0.000000      2.000000
  0.133333  0.333333  0.000000      2.000000
  0.200000  0.333333  0.000000      2.000000
  0.266667  0.333333  0.000000      2.000000
  0.333333  0.333333  0.000000      2.000000
  0.400000  0.333333  0.000000      2.000000
  0.466667  0.333333  0.000000      2.000000
 -0.466667  0.333333  0.000000      2.000000
 -0.400000  0.333333  0.000000      2.000000
 -0.333333  0.333333  0.000000      2.000000
 -0.266667  0.333333  0.000000      2.000000
 -0.200000  0.333333  0.000000      2.000000
 -0.133333  0.333333  0.000000      2.000000
 -0.066667  0.333333  0.000000      2.000000
  0.000000  0.400000  0.000000      2.000000
  0.066667  0.400000  0.000000      2.000000
  0.133333  0.400000  0.000000      2.000000
  0.200000  0.400000  0.000000      2.000000
  0.266667  0.400000  0.000000      2.000000
  0.333333  0.400000  0.000000      2.000000
  0.400000  0.400000  0.000000      2.000000
  0.466667  0.400000  0.000000      2.000000
 -0.466667  0.400000  0.000000      2.000000
 -0.400000  0.400000  0.000000      2.000000
 -0.333333  0.400000  0.000000      2.000000
 -0.266667  0.400000  0.000000      2.000000
 -0.200000  0.400000  0.000000      2.000000
 -0.133333  0.400000  0.000000      2.000000
 -0.066667  0.400000  0.000000      2.000000
  0.000000  0.466667  0.000000      2.000000
  0.066667  0.466667  0.000000      2.000000
  0.133333  0.466667  0.000000      2.000000
  0.200000  0.466667  0.000000      2.000000
  0.266667  0.466667  0.000000      2.000000
  0.333333  0.466667  0.000000      2.000000
  0.400000  0.466667  0.000000      2.000000
  0.466667  0.466667  0.000000      2.000000
 -0.466667  0.466667  0.000000      2.000000
 -0.400000  0.466667  0.000000      2.000000
 -0.333333  0.466667  0.000000      2.000000
 -0.266667  0.466667  0.000000      2.000000
 -0.200000  0.466667  0.000000      2.000000
 -0.133333  0.466667  0.000000      2.000000
 -0.066667  0.466667  0.000000      2.000000
 
 Following cartesian coordinates:
            Coordinates               Weight
  0.000000  0.000000  0.000000      1.000000
  0.015289  0.000038  0.000000      2.000000
  0.030578  0.000076  0.000000      2.000000
  0.045867  0.000115  0.000000      2.000000
  0.061156  0.000153  0.000000      2.000000
  0.076445  0.000191  0.000000      2.000000
  0.091734  0.000229  0.000000      2.000000
  0.107023  0.000268  0.000000      2.000000
  0.000039  0.015531  0.000000      2.000000
  0.015328  0.015569  0.000000      2.000000
  0.030617  0.015608  0.000000      2.000000
  0.045906  0.015646  0.000000      2.000000
  0.061195  0.015684  0.000000      2.000000
  0.076484  0.015722  0.000000      2.000000
  0.091773  0.015760  0.000000      2.000000
  0.107062  0.015799  0.000000      2.000000
 -0.106984  0.015264  0.000000      2.000000
 -0.091695  0.015302  0.000000      2.000000
 -0.076406  0.015340  0.000000      2.000000
 -0.061117  0.015378  0.000000      2.000000
 -0.045828  0.015416  0.000000      2.000000
 -0.030539  0.015455  0.000000      2.000000
 -0.015250  0.015493  0.000000      2.000000
  0.000078  0.031062  0.000000      2.000000
  0.015367  0.031101  0.000000      2.000000
  0.030656  0.031139  0.000000      2.000000
  0.045945  0.031177  0.000000      2.000000
  0.061234  0.031215  0.000000      2.000000
  0.076523  0.031253  0.000000      2.000000
  0.091812  0.031292  0.000000      2.000000
  0.107101  0.031330  0.000000      2.000000
 -0.106945  0.030795  0.000000      2.000000
 -0.091656  0.030833  0.000000      2.000000
 -0.076367  0.030871  0.000000      2.000000
 -0.061078  0.030909  0.000000      2.000000
 -0.045789  0.030948  0.000000      2.000000
 -0.030500  0.030986  0.000000      2.000000
 -0.015211  0.031024  0.000000      2.000000
  0.000117  0.046593  0.000000      2.000000
  0.015406  0.046632  0.000000      2.000000
  0.030695  0.046670  0.000000      2.000000
  0.045984  0.046708  0.000000      2.000000
  0.061273  0.046746  0.000000      2.000000
  0.076562  0.046785  0.000000      2.000000
  0.091851  0.046823  0.000000      2.000000
  0.107140  0.046861  0.000000      2.000000
 -0.106906  0.046326  0.000000      2.000000
 -0.091617  0.046364  0.000000      2.000000
 -0.076328  0.046402  0.000000      2.000000
 -0.061039  0.046441  0.000000      2.000000
 -0.045750  0.046479  0.000000      2.000000
 -0.030461  0.046517  0.000000      2.000000
 -0.015172  0.046555  0.000000      2.000000
  0.000156  0.062125  0.000000      2.000000
  0.015445  0.062163  0.000000      2.000000
  0.030734  0.062201  0.000000      2.000000
  0.046023  0.062239  0.000000      2.000000
  0.061312  0.062277  0.000000      2.000000
  0.076601  0.062316  0.000000      2.000000
  0.091890  0.062354  0.000000      2.000000
  0.107179  0.062392  0.000000      2.000000
 -0.106867  0.061857  0.000000      2.000000
 -0.091578  0.061895  0.000000      2.000000
 -0.076289  0.061933  0.000000      2.000000
 -0.061000  0.061972  0.000000      2.000000
 -0.045711  0.062010  0.000000      2.000000
 -0.030422  0.062048  0.000000      2.000000
 -0.015133  0.062086  0.000000      2.000000
  0.000195  0.077656  0.000000      2.000000
  0.015484  0.077694  0.000000      2.000000
  0.030773  0.077732  0.000000      2.000000
  0.046062  0.077770  0.000000      2.000000
  0.061351  0.077809  0.000000      2.000000
  0.076640  0.077847  0.000000      2.000000
  0.091929  0.077885  0.000000      2.000000
  0.107219  0.077923  0.000000      2.000000
 -0.106828  0.077388  0.000000      2.000000
 -0.091539  0.077426  0.000000      2.000000
 -0.076250  0.077465  0.000000      2.000000
 -0.060961  0.077503  0.000000      2.000000
 -0.045672  0.077541  0.000000      2.000000
 -0.030383  0.077579  0.000000      2.000000
 -0.015094  0.077617  0.000000      2.000000
  0.000234  0.093187  0.000000      2.000000
  0.015523  0.093225  0.000000      2.000000
  0.030812  0.093263  0.000000      2.000000
  0.046101  0.093302  0.000000      2.000000
  0.061390  0.093340  0.000000      2.000000
  0.076679  0.093378  0.000000      2.000000
  0.091968  0.093416  0.000000      2.000000
  0.107258  0.093454  0.000000      2.000000
 -0.106789  0.092919  0.000000      2.000000
 -0.091500  0.092958  0.000000      2.000000
 -0.076211  0.092996  0.000000      2.000000
 -0.060922  0.093034  0.000000      2.000000
 -0.045633  0.093072  0.000000      2.000000
 -0.030344  0.093110  0.000000      2.000000
 -0.015055  0.093149  0.000000      2.000000
  0.000273  0.108718  0.000000      2.000000
  0.015562  0.108756  0.000000      2.000000
  0.030851  0.108794  0.000000      2.000000
  0.046140  0.108833  0.000000      2.000000
  0.061429  0.108871  0.000000      2.000000
  0.076718  0.108909  0.000000      2.000000
  0.092007  0.108947  0.000000      2.000000
  0.107297  0.108986  0.000000      2.000000
 -0.106750  0.108450  0.000000      2.000000
 -0.091461  0.108489  0.000000      2.000000
 -0.076172  0.108527  0.000000      2.000000
 -0.060883  0.108565  0.000000      2.000000
 -0.045594  0.108603  0.000000      2.000000
 -0.030305  0.108642  0.000000      2.000000
 -0.015016  0.108680  0.000000      2.000000
 


--------------------------------------------------------------------------------------------------------




 Dimension of arrays:
   k-points           NKPTS =    113   k-points in BZ     NKDIM =    113   number of bands    NBANDS=     14
   number of dos      NEDOS =    301   number of ions     NIONS =      4
   non local maximal  LDIM  =      5   non local SUM 2l+1 LMDIM =     13
   total plane-waves  NPLWV = 207360
   max r-space proj   IRMAX =      1   max aug-charges    IRDMAX=  53514
   dimension x,y,z NGX =    36 NGY =   36 NGZ =  160
   dimension x,y,z NGXF=    72 NGYF=   72 NGZF=  320
   support grid    NGXF=    72 NGYF=   72 NGZF=  320
   ions per type =               2   2
   NGX,Y,Z   is equivalent  to a cutoff of  13.73, 13.94, 13.30 a.u.
   NGXF,Y,Z  is equivalent  to a cutoff of  27.45, 27.89, 26.60 a.u.

 SYSTEM =  SnSe                                    
 POSCAR =   POSCAR with strain of -0.005           

 Startparameter for this run:
   NWRITE =      2    write-flag & timer
   PREC   = accura    normal or accurate (medium, high low for compatibility)
   ISTART =      0    job   : 0-new  1-cont  2-samecut
   ICHARG =      2    charge: 1-file 2-atom 10-const
   ISPIN  =      1    spin polarized calculation?
   LNONCOLLINEAR =      F non collinear calculations
   LSORBIT =      F    spin-orbit coupling
   INIWAV =      1    electr: 0-lowe 1-rand  2-diag
   LASPH  =      F    aspherical Exc in radial PAW
   METAGGA=      F    non-selfconsistent MetaGGA calc.

 Electronic Relaxation 1
   ENCUT  =  600.0 eV  44.10 Ry    6.64 a.u.   8.71  8.57 39.94*2*pi/ulx,y,z
   ENINI  =  600.0     initial cutoff
   ENAUG  =  446.8 eV  augmentation charge cutoff
   NELM   =     60;   NELMIN=  2; NELMDL= -5     # of ELM steps 
   EDIFF  = 0.1E-05   stopping-criterion for ELM
   LREAL  =      F    real-space projection
   NLSPLINE    = F    spline interpolate recip. space projectors
   LCOMPAT=      F    compatible to vasp.4.4
   GGA_COMPAT  = T    GGA compatible to vasp.4.4-vasp.4.6
   LMAXPAW     = -100 max onsite density
   LMAXMIX     =    2 max onsite mixed and CHGCAR
   VOSKOWN=      0    Vosko Wilk Nusair interpolation
   ROPT   =    0.00000   0.00000
 Ionic relaxation
   EDIFFG = -.1E-02   stopping-criterion for IOM
   NSW    =    100    number of steps for IOM
   NBLOCK =      1;   KBLOCK =    100    inner block; outer block 
   IBRION =      2    ionic relax: 0-MD 1-quasi-New 2-CG
   NFREE  =      1    steps in history (QN), initial steepest desc. (CG)
   ISIF   =      2    stress and relaxation
   IWAVPR =     11    prediction:  0-non 1-charg 2-wave 3-comb
   ISYM   =      2    0-nonsym 1-usesym 2-fastsym
   LCORR  =      T    Harris-Foulkes like correction to forces

   POTIM  = 0.5000    time-step for ionic-motion
   TEIN   =    0.0    initial temperature
   TEBEG  =    0.0;   TEEND  =   0.0 temperature during run
   SMASS  =  -3.00    Nose mass-parameter (am)
   estimated Nose-frequenzy (Omega)   =  0.10E-29 period in steps =****** mass=  -0.435E-27a.u.
   SCALEE = 1.0000    scale energy and forces
   NPACO  =    256;   APACO  = 16.0  distance and # of slots for P.C.
   PSTRESS=    0.0 pullay stress

  Mass of Ions in am
   POMASS = 118.71 78.96
  Ionic Valenz
   ZVAL   =   4.00  6.00
  Atomic Wigner-Seitz radii
   RWIGS  =  -1.00 -1.00
  virtual crystal weights 
   VCA    =   1.00  1.00
   NELECT =      20.0000    total number of electrons
   NUPDOWN=      -1.0000    fix difference up-down

 DOS related values:
   EMIN   =  10.00;   EMAX   =-10.00  energy-range for DOS
   EFERMI =   0.00
   ISMEAR =     0;   SIGMA  =   0.10  broadening in eV -4-tet -1-fermi 0-gaus

 Electronic relaxation 2 (details)
   IALGO  =     38    algorithm
   LDIAG  =      T    sub-space diagonalisation (order eigenvalues)
   LSUBROT=      F    optimize rotation matrix (better conditioning)
   TURBO    =      0    0=normal 1=particle mesh
   IRESTART =      0    0=no restart 2=restart with 2 vectors
   NREBOOT  =      0    no. of reboots
   NMIN     =      0    reboot dimension
   EREF     =   0.00    reference energy to select bands
   IMIX   =      4    mixing-type and parameters
     AMIX     =   0.40;   BMIX     =  1.00
     AMIX_MAG =   1.60;   BMIX_MAG =  1.00
     AMIN     =   0.10
     WC   =   100.;   INIMIX=   1;  MIXPRE=   1;  MAXMIX= -45

 Intra band minimization:
   WEIMIN = 0.0010     energy-eigenvalue tresh-hold
   EBREAK =  0.18E-07  absolut break condition
   DEPER  =   0.30     relativ break condition  

   TIME   =   0.40     timestep for ELM

  volume/ion in A,a.u.               =      93.58       631.54
  Fermi-wavevector in a.u.,A,eV,Ry     =   0.616589  1.165185  5.172698  0.380183
  Thomas-Fermi vector in A             =   1.674372
 
 Write flags
   LWAVE        =      T    write WAVECAR
   LDOWNSAMPLE  =      F    k-point downsampling of WAVECAR
   LCHARG       =      T    write CHGCAR
   LVTOT        =      F    write LOCPOT, total local potential
   LVHAR        =      F    write LOCPOT, Hartree potential only
   LELF         =      F    write electronic localiz. function (ELF)
   LORBIT       =      0    0 simple, 1 ext, 2 COOP (PROOUT), +10 PAW based schemes


 Dipole corrections
   LMONO  =      F    monopole corrections only (constant potential shift)
   LDIPOL =      F    correct potential (dipole corrections)
   IDIPOL =      0    1-x, 2-y, 3-z, 4-all directions 
   EPSILON=  1.0000000 bulk dielectric constant

 Exchange correlation treatment:
   GGA     =    PE    GGA type
   LEXCH   =     8    internal setting for exchange type
   VOSKOWN=      0    Vosko Wilk Nusair interpolation
   LHFCALC =     F    Hartree Fock is set to
   LHFONE  =     F    Hartree Fock one center treatment
   AEXX    =    0.0000 exact exchange contribution

 Linear response parameters
   LEPSILON=     F    determine dielectric tensor
   LRPA    =     F    only Hartree local field effects (RPA)
   LNABLA  =     F    use nabla operator in PAW spheres
   LVEL    =     F    velocity operator in full k-point grid
   LINTERFAST=   F  fast interpolation
   KINTER  =     0    interpolate to denser k-point grid
   CSHIFT  =0.1000    complex shift for real part using Kramers Kronig
   OMEGAMAX=  -1.0    maximum frequency
   DEG_THRESHOLD= 0.2000000E-02 threshold for treating states as degnerate
   RTIME   =   -0.100 relaxation time in fs
  (WPLASMAI=    0.000 imaginary part of plasma frequency in eV, 0.658/RTIME)
   DFIELD  = 0.0000000 0.0000000 0.0000000 field for delta impulse in time
 
 Orbital magnetization related:
   ORBITALMAG=     F  switch on orbital magnetization
   LCHIMAG   =     F  perturbation theory with respect to B field
   DQ        =  0.001000  dq finite difference perturbation B field
   LLRAUG    =     F  two centre corrections for induced B field



--------------------------------------------------------------------------------------------------------


 conjugate gradient relaxation of ions
 charge density and potential will be updated during run
 non-spin polarized calculation
 Variant of blocked Davidson
 Davidson routine will perform the subspace rotation
 perform sub-space diagonalisation
    after iterative eigenvector-optimisation
 modified Broyden-mixing scheme, WC =      100.0
 initial mixing is a Kerker type mixing with AMIX =  0.4000 and BMIX =      1.0000
 Hartree-type preconditioning will be used
 using additional bands            4
 reciprocal scheme for non local part
 use partial core corrections
 calculate Harris-corrections to forces 
   (improved forces if not selfconsistent)
 use gradient corrections 
 use of overlap-Matrix (Vanderbilt PP)
 Gauss-broadening in eV      SIGMA  =   0.10


--------------------------------------------------------------------------------------------------------


  energy-cutoff  :      600.00
  volume of cell :      374.34
      direct lattice vectors                 reciprocal lattice vectors
     4.360444981 -0.010955892  0.000000000     0.229335833  0.000573340  0.000000000
    -0.010731195  4.292477857  0.000000000     0.000585345  0.232967138  0.000000000
     0.000000000  0.000000000 20.000000000     0.000000000  0.000000000  0.050000000

  length of vectors
     4.360458745  4.292491271 20.000000000     0.229336550  0.232967873  0.050000000


 
 k-points in units of 2pi/SCALE and weight: KMesh Grid                              
   0.00000000  0.00000000  0.00000000       0.004
   0.01528906  0.00003822  0.00000000       0.009
   0.03057811  0.00007645  0.00000000       0.009
   0.04586717  0.00011467  0.00000000       0.009
   0.06115622  0.00015289  0.00000000       0.009
   0.07644528  0.00019111  0.00000000       0.009
   0.09173433  0.00022934  0.00000000       0.009
   0.10702339  0.00026756  0.00000000       0.009
   0.00003902  0.01553114  0.00000000       0.009
   0.01532808  0.01556937  0.00000000       0.009
   0.03061713  0.01560759  0.00000000       0.009
   0.04590619  0.01564581  0.00000000       0.009
   0.06119525  0.01568403  0.00000000       0.009
   0.07648430  0.01572226  0.00000000       0.009
   0.09177336  0.01576048  0.00000000       0.009
   0.10706241  0.01579870  0.00000000       0.009
  -0.10698437  0.01526358  0.00000000       0.009
  -0.09169531  0.01530181  0.00000000       0.009
  -0.07640625  0.01534003  0.00000000       0.009
  -0.06111720  0.01537825  0.00000000       0.009
  -0.04582814  0.01541647  0.00000000       0.009
  -0.03053909  0.01545470  0.00000000       0.009
  -0.01525003  0.01549292  0.00000000       0.009
   0.00007805  0.03106229  0.00000000       0.009
   0.01536710  0.03110051  0.00000000       0.009
   0.03065616  0.03113873  0.00000000       0.009
   0.04594521  0.03117695  0.00000000       0.009
   0.06123427  0.03121518  0.00000000       0.009
   0.07652332  0.03125340  0.00000000       0.009
   0.09181238  0.03129162  0.00000000       0.009
   0.10710143  0.03132984  0.00000000       0.009
  -0.10694534  0.03079473  0.00000000       0.009
  -0.09165629  0.03083295  0.00000000       0.009
  -0.07636723  0.03087117  0.00000000       0.009
  -0.06107818  0.03090939  0.00000000       0.009
  -0.04578912  0.03094762  0.00000000       0.009
  -0.03050007  0.03098584  0.00000000       0.009
  -0.01521101  0.03102406  0.00000000       0.009
   0.00011707  0.04659343  0.00000000       0.009
   0.01540612  0.04663165  0.00000000       0.009
   0.03069518  0.04666987  0.00000000       0.009
   0.04598424  0.04670810  0.00000000       0.009
   0.06127329  0.04674632  0.00000000       0.009
   0.07656235  0.04678454  0.00000000       0.009
   0.09185140  0.04682276  0.00000000       0.009
   0.10714046  0.04686099  0.00000000       0.009
  -0.10690632  0.04632587  0.00000000       0.009
  -0.09161726  0.04636409  0.00000000       0.009
  -0.07632821  0.04640231  0.00000000       0.009
  -0.06103915  0.04644054  0.00000000       0.009
  -0.04575010  0.04647876  0.00000000       0.009
  -0.03046104  0.04651698  0.00000000       0.009
  -0.01517199  0.04655520  0.00000000       0.009
   0.00015609  0.06212457  0.00000000       0.009
   0.01544515  0.06216279  0.00000000       0.009
   0.03073420  0.06220102  0.00000000       0.009
   0.04602326  0.06223924  0.00000000       0.009
   0.06131231  0.06227746  0.00000000       0.009
   0.07660137  0.06231568  0.00000000       0.009
   0.09189043  0.06235391  0.00000000       0.009
   0.10717948  0.06239213  0.00000000       0.009
  -0.10686730  0.06185701  0.00000000       0.009
  -0.09157824  0.06189523  0.00000000       0.009
  -0.07628919  0.06193346  0.00000000       0.009
  -0.06100013  0.06197168  0.00000000       0.009
  -0.04571107  0.06200990  0.00000000       0.009
  -0.03042202  0.06204812  0.00000000       0.009
  -0.01513296  0.06208635  0.00000000       0.009
   0.00019511  0.07765571  0.00000000       0.009
   0.01548417  0.07769394  0.00000000       0.009
   0.03077323  0.07773216  0.00000000       0.009
   0.04606228  0.07777038  0.00000000       0.009
   0.06135134  0.07780860  0.00000000       0.009
   0.07664039  0.07784683  0.00000000       0.009
   0.09192945  0.07788505  0.00000000       0.009
   0.10721850  0.07792327  0.00000000       0.009
  -0.10682827  0.07738815  0.00000000       0.009
  -0.09153922  0.07742638  0.00000000       0.009
  -0.07625016  0.07746460  0.00000000       0.009
  -0.06096111  0.07750282  0.00000000       0.009
  -0.04567205  0.07754104  0.00000000       0.009
  -0.03038300  0.07757927  0.00000000       0.009
  -0.01509394  0.07761749  0.00000000       0.009
   0.00023414  0.09318686  0.00000000       0.009
   0.01552319  0.09322508  0.00000000       0.009
   0.03081225  0.09326330  0.00000000       0.009
   0.04610130  0.09330152  0.00000000       0.009
   0.06139036  0.09333975  0.00000000       0.009
   0.07667942  0.09337797  0.00000000       0.009
   0.09196847  0.09341619  0.00000000       0.009
   0.10725753  0.09345441  0.00000000       0.009
  -0.10678925  0.09291930  0.00000000       0.009
  -0.09150020  0.09295752  0.00000000       0.009
  -0.07621114  0.09299574  0.00000000       0.009
  -0.06092208  0.09303396  0.00000000       0.009
  -0.04563303  0.09307219  0.00000000       0.009
  -0.03034397  0.09311041  0.00000000       0.009
  -0.01505492  0.09314863  0.00000000       0.009
   0.00027316  0.10871800  0.00000000       0.009
   0.01556222  0.10875622  0.00000000       0.009
   0.03085127  0.10879444  0.00000000       0.009
   0.04614033  0.10883267  0.00000000       0.009
   0.06142938  0.10887089  0.00000000       0.009
   0.07671844  0.10890911  0.00000000       0.009
   0.09200749  0.10894733  0.00000000       0.009
   0.10729655  0.10898556  0.00000000       0.009
  -0.10675023  0.10845044  0.00000000       0.009
  -0.09146117  0.10848866  0.00000000       0.009
  -0.07617212  0.10852688  0.00000000       0.009
  -0.06088306  0.10856511  0.00000000       0.009
  -0.04559401  0.10860333  0.00000000       0.009
  -0.03030495  0.10864155  0.00000000       0.009
  -0.01501589  0.10867978  0.00000000       0.009
 
 k-points in reciprocal lattice and weights: KMesh Grid                              
   0.00000000  0.00000000  0.00000000       0.004
   0.06666667 -0.00000000  0.00000000       0.009
   0.13333333 -0.00000000  0.00000000       0.009
   0.20000000  0.00000000  0.00000000       0.009
   0.26666667  0.00000000  0.00000000       0.009
   0.33333333 -0.00000000  0.00000000       0.009
   0.40000000  0.00000000  0.00000000       0.009
   0.46666667 -0.00000000  0.00000000       0.009
  -0.00000000  0.06666667  0.00000000       0.009
   0.06666667  0.06666667  0.00000000       0.009
   0.13333333  0.06666667  0.00000000       0.009
   0.20000000  0.06666667  0.00000000       0.009
   0.26666667  0.06666667  0.00000000       0.009
   0.33333333  0.06666667  0.00000000       0.009
   0.40000000  0.06666667  0.00000000       0.009
   0.46666667  0.06666667  0.00000000       0.009
  -0.46666667  0.06666667  0.00000000       0.009
  -0.40000000  0.06666667  0.00000000       0.009
  -0.33333333  0.06666667  0.00000000       0.009
  -0.26666667  0.06666667  0.00000000       0.009
  -0.20000000  0.06666667  0.00000000       0.009
  -0.13333333  0.06666667  0.00000000       0.009
  -0.06666667  0.06666667  0.00000000       0.009
  -0.00000000  0.13333333  0.00000000       0.009
   0.06666667  0.13333333  0.00000000       0.009
   0.13333333  0.13333333  0.00000000       0.009
   0.20000000  0.13333333  0.00000000       0.009
   0.26666667  0.13333333  0.00000000       0.009
   0.33333333  0.13333333  0.00000000       0.009
   0.40000000  0.13333333  0.00000000       0.009
   0.46666667  0.13333333  0.00000000       0.009
  -0.46666667  0.13333333  0.00000000       0.009
  -0.40000000  0.13333333  0.00000000       0.009
  -0.33333333  0.13333333  0.00000000       0.009
  -0.26666667  0.13333333  0.00000000       0.009
  -0.20000000  0.13333333  0.00000000       0.009
  -0.13333333  0.13333333  0.00000000       0.009
  -0.06666667  0.13333333  0.00000000       0.009
   0.00000000  0.20000000  0.00000000       0.009
   0.06666667  0.20000000  0.00000000       0.009
   0.13333333  0.20000000  0.00000000       0.009
   0.20000000  0.20000000  0.00000000       0.009
   0.26666667  0.20000000  0.00000000       0.009
   0.33333333  0.20000000  0.00000000       0.009
   0.40000000  0.20000000  0.00000000       0.009
   0.46666667  0.20000000  0.00000000       0.009
  -0.46666667  0.20000000  0.00000000       0.009
  -0.40000000  0.20000000  0.00000000       0.009
  -0.33333333  0.20000000  0.00000000       0.009
  -0.26666667  0.20000000  0.00000000       0.009
  -0.20000000  0.20000000  0.00000000       0.009
  -0.13333333  0.20000000  0.00000000       0.009
  -0.06666667  0.20000000  0.00000000       0.009
   0.00000000  0.26666667  0.00000000       0.009
   0.06666667  0.26666667  0.00000000       0.009
   0.13333333  0.26666667  0.00000000       0.009
   0.20000000  0.26666667  0.00000000       0.009
   0.26666667  0.26666667  0.00000000       0.009
   0.33333333  0.26666667  0.00000000       0.009
   0.40000000  0.26666667  0.00000000       0.009
   0.46666667  0.26666667  0.00000000       0.009
  -0.46666667  0.26666667  0.00000000       0.009
  -0.40000000  0.26666667  0.00000000       0.009
  -0.33333333  0.26666667  0.00000000       0.009
  -0.26666667  0.26666667  0.00000000       0.009
  -0.20000000  0.26666667  0.00000000       0.009
  -0.13333333  0.26666667  0.00000000       0.009
  -0.06666667  0.26666667  0.00000000       0.009
  -0.00000000  0.33333333  0.00000000       0.009
   0.06666667  0.33333333  0.00000000       0.009
   0.13333333  0.33333333  0.00000000       0.009
   0.20000000  0.33333333  0.00000000       0.009
   0.26666667  0.33333333  0.00000000       0.009
   0.33333333  0.33333333  0.00000000       0.009
   0.40000000  0.33333333  0.00000000       0.009
   0.46666667  0.33333333  0.00000000       0.009
  -0.46666667  0.33333333  0.00000000       0.009
  -0.40000000  0.33333333  0.00000000       0.009
  -0.33333333  0.33333333  0.00000000       0.009
  -0.26666667  0.33333333  0.00000000       0.009
  -0.20000000  0.33333333  0.00000000       0.009
  -0.13333333  0.33333333  0.00000000       0.009
  -0.06666667  0.33333333  0.00000000       0.009
   0.00000000  0.40000000  0.00000000       0.009
   0.06666667  0.40000000  0.00000000       0.009
   0.13333333  0.40000000  0.00000000       0.009
   0.20000000  0.40000000  0.00000000       0.009
   0.26666667  0.40000000  0.00000000       0.009
   0.33333333  0.40000000  0.00000000       0.009
   0.40000000  0.40000000  0.00000000       0.009
   0.46666667  0.40000000  0.00000000       0.009
  -0.46666667  0.40000000  0.00000000       0.009
  -0.40000000  0.40000000  0.00000000       0.009
  -0.33333333  0.40000000  0.00000000       0.009
  -0.26666667  0.40000000  0.00000000       0.009
  -0.20000000  0.40000000  0.00000000       0.009
  -0.13333333  0.40000000  0.00000000       0.009
  -0.06666667  0.40000000  0.00000000       0.009
   0.00000000  0.46666667  0.00000000       0.009
   0.06666667  0.46666667  0.00000000       0.009
   0.13333333  0.46666667  0.00000000       0.009
   0.20000000  0.46666667  0.00000000       0.009
   0.26666667  0.46666667  0.00000000       0.009
   0.33333333  0.46666667  0.00000000       0.009
   0.40000000  0.46666667  0.00000000       0.009
   0.46666667  0.46666667  0.00000000       0.009
  -0.46666667  0.46666667  0.00000000       0.009
  -0.40000000  0.46666667  0.00000000       0.009
  -0.33333333  0.46666667  0.00000000       0.009
  -0.26666667  0.46666667  0.00000000       0.009
  -0.20000000  0.46666667  0.00000000       0.009
  -0.13333333  0.46666667  0.00000000       0.009
  -0.06666667  0.46666667  0.00000000       0.009
 
 position of ions in fractional coordinates (direct lattice) 
   0.58124336  0.75000000  0.56874314
   0.08124336  0.25000000  0.43125686
   0.03286064  0.25000000  0.56707387
   0.53286061  0.75000000  0.43292613
 
 position of ions in cartesian coordinates  (Angst):
   2.52643129  3.21299035 11.37486283
   0.35157439  1.07222937  8.62513717
   0.14060423  1.07275945 11.34147733
   2.31546100  3.21352043  8.65852267
 


--------------------------------------------------------------------------------------------------------


 k-point  1 :   0.0000 0.0000 0.0000  plane waves:   12549
 k-point  2 :   0.0667-0.0000 0.0000  plane waves:   12540
 k-point  3 :   0.1333-0.0000 0.0000  plane waves:   12514
 k-point  4 :   0.2000 0.0000 0.0000  plane waves:   12484
 k-point  5 :   0.2667 0.0000 0.0000  plane waves:   12471
 k-point  6 :   0.3333-0.0000 0.0000  plane waves:   12502
 k-point  7 :   0.4000 0.0000 0.0000  plane waves:   12532
 k-point  8 :   0.4667-0.0000 0.0000  plane waves:   12529
 k-point  9 :  -0.0000 0.0667 0.0000  plane waves:   12526
 k-point 10 :   0.0667 0.0667 0.0000  plane waves:   12530
 k-point 11 :   0.1333 0.0667 0.0000  plane waves:   12508
 k-point 12 :   0.2000 0.0667 0.0000  plane waves:   12505
 k-point 13 :   0.2667 0.0667 0.0000  plane waves:   12503
 k-point 14 :   0.3333 0.0667 0.0000  plane waves:   12497
 k-point 15 :   0.4000 0.0667 0.0000  plane waves:   12536
 k-point 16 :   0.4667 0.0667 0.0000  plane waves:   12527
 k-point 17 :  -0.4667 0.0667 0.0000  plane waves:   12515
 k-point 18 :  -0.4000 0.0667 0.0000  plane waves:   12534
 k-point 19 :  -0.3333 0.0667 0.0000  plane waves:   12505
 k-point 20 :  -0.2667 0.0667 0.0000  plane waves:   12478
 k-point 21 :  -0.2000 0.0667 0.0000  plane waves:   12487
 k-point 22 :  -0.1333 0.0667 0.0000  plane waves:   12500
 k-point 23 :  -0.0667 0.0667 0.0000  plane waves:   12512
 k-point 24 :  -0.0000 0.1333 0.0000  plane waves:   12520
 k-point 25 :   0.0667 0.1333 0.0000  plane waves:   12515
 k-point 26 :   0.1333 0.1333 0.0000  plane waves:   12511
 k-point 27 :   0.2000 0.1333 0.0000  plane waves:   12490
 k-point 28 :   0.2667 0.1333 0.0000  plane waves:   12496
 k-point 29 :   0.3333 0.1333 0.0000  plane waves:   12503
 k-point 30 :   0.4000 0.1333 0.0000  plane waves:   12523
 k-point 31 :   0.4667 0.1333 0.0000  plane waves:   12510
 k-point 32 :  -0.4667 0.1333 0.0000  plane waves:   12503
 k-point 33 :  -0.4000 0.1333 0.0000  plane waves:   12501
 k-point 34 :  -0.3333 0.1333 0.0000  plane waves:   12509
 k-point 35 :  -0.2667 0.1333 0.0000  plane waves:   12477
 k-point 36 :  -0.2000 0.1333 0.0000  plane waves:   12457
 k-point 37 :  -0.1333 0.1333 0.0000  plane waves:   12478
 k-point 38 :  -0.0667 0.1333 0.0000  plane waves:   12516
 k-point 39 :   0.0000 0.2000 0.0000  plane waves:   12506
 k-point 40 :   0.0667 0.2000 0.0000  plane waves:   12502
 k-point 41 :   0.1333 0.2000 0.0000  plane waves:   12520
 k-point 42 :   0.2000 0.2000 0.0000  plane waves:   12498
 k-point 43 :   0.2667 0.2000 0.0000  plane waves:   12482
 k-point 44 :   0.3333 0.2000 0.0000  plane waves:   12506
 k-point 45 :   0.4000 0.2000 0.0000  plane waves:   12497
 k-point 46 :   0.4667 0.2000 0.0000  plane waves:   12511
 k-point 47 :  -0.4667 0.2000 0.0000  plane waves:   12506
 k-point 48 :  -0.4000 0.2000 0.0000  plane waves:   12506
 k-point 49 :  -0.3333 0.2000 0.0000  plane waves:   12501
 k-point 50 :  -0.2667 0.2000 0.0000  plane waves:   12493
 k-point 51 :  -0.2000 0.2000 0.0000  plane waves:   12488
 k-point 52 :  -0.1333 0.2000 0.0000  plane waves:   12518
 k-point 53 :  -0.0667 0.2000 0.0000  plane waves:   12512
 k-point 54 :   0.0000 0.2667 0.0000  plane waves:   12501
 k-point 55 :   0.0667 0.2667 0.0000  plane waves:   12499
 k-point 56 :   0.1333 0.2667 0.0000  plane waves:   12506
 k-point 57 :   0.2000 0.2667 0.0000  plane waves:   12497
 k-point 58 :   0.2667 0.2667 0.0000  plane waves:   12488
 k-point 59 :   0.3333 0.2667 0.0000  plane waves:   12491
 k-point 60 :   0.4000 0.2667 0.0000  plane waves:   12498
 k-point 61 :   0.4667 0.2667 0.0000  plane waves:   12510
 k-point 62 :  -0.4667 0.2667 0.0000  plane waves:   12493
 k-point 63 :  -0.4000 0.2667 0.0000  plane waves:   12475
 k-point 64 :  -0.3333 0.2667 0.0000  plane waves:   12500
 k-point 65 :  -0.2667 0.2667 0.0000  plane waves:   12490
 k-point 66 :  -0.2000 0.2667 0.0000  plane waves:   12481
 k-point 67 :  -0.1333 0.2667 0.0000  plane waves:   12497
 k-point 68 :  -0.0667 0.2667 0.0000  plane waves:   12501
 k-point 69 :  -0.0000 0.3333 0.0000  plane waves:   12469
 k-point 70 :   0.0667 0.3333 0.0000  plane waves:   12481
 k-point 71 :   0.1333 0.3333 0.0000  plane waves:   12486
 k-point 72 :   0.2000 0.3333 0.0000  plane waves:   12503
 k-point 73 :   0.2667 0.3333 0.0000  plane waves:   12483
 k-point 74 :   0.3333 0.3333 0.0000  plane waves:   12473
 k-point 75 :   0.4000 0.3333 0.0000  plane waves:   12481
 k-point 76 :   0.4667 0.3333 0.0000  plane waves:   12488
 k-point 77 :  -0.4667 0.3333 0.0000  plane waves:   12482
 k-point 78 :  -0.4000 0.3333 0.0000  plane waves:   12480
 k-point 79 :  -0.3333 0.3333 0.0000  plane waves:   12469
 k-point 80 :  -0.2667 0.3333 0.0000  plane waves:   12476
 k-point 81 :  -0.2000 0.3333 0.0000  plane waves:   12486
 k-point 82 :  -0.1333 0.3333 0.0000  plane waves:   12489
 k-point 83 :  -0.0667 0.3333 0.0000  plane waves:   12481
 k-point 84 :   0.0000 0.4000 0.0000  plane waves:   12451
 k-point 85 :   0.0667 0.4000 0.0000  plane waves:   12480
 k-point 86 :   0.1333 0.4000 0.0000  plane waves:   12476
 k-point 87 :   0.2000 0.4000 0.0000  plane waves:   12485
 k-point 88 :   0.2667 0.4000 0.0000  plane waves:   12473
 k-point 89 :   0.3333 0.4000 0.0000  plane waves:   12470
 k-point 90 :   0.4000 0.4000 0.0000  plane waves:   12457
 k-point 91 :   0.4667 0.4000 0.0000  plane waves:   12465
 k-point 92 :  -0.4667 0.4000 0.0000  plane waves:   12471
 k-point 93 :  -0.4000 0.4000 0.0000  plane waves:   12471
 k-point 94 :  -0.3333 0.4000 0.0000  plane waves:   12469
 k-point 95 :  -0.2667 0.4000 0.0000  plane waves:   12474
 k-point 96 :  -0.2000 0.4000 0.0000  plane waves:   12486
 k-point 97 :  -0.1333 0.4000 0.0000  plane waves:   12500
 k-point 98 :  -0.0667 0.4000 0.0000  plane waves:   12479
 k-point 99 :   0.0000 0.4667 0.0000  plane waves:   12470
 k-point ** :   0.0667 0.4667 0.0000  plane waves:   12489
 k-point ** :   0.1333 0.4667 0.0000  plane waves:   12500
 k-point ** :   0.2000 0.4667 0.0000  plane waves:   12465
 k-point ** :   0.2667 0.4667 0.0000  plane waves:   12457
 k-point ** :   0.3333 0.4667 0.0000  plane waves:   12458
 k-point ** :   0.4000 0.4667 0.0000  plane waves:   12448
 k-point ** :   0.4667 0.4667 0.0000  plane waves:   12468
 k-point ** :  -0.4667 0.4667 0.0000  plane waves:   12460
 k-point ** :  -0.4000 0.4667 0.0000  plane waves:   12456
 k-point ** :  -0.3333 0.4667 0.0000  plane waves:   12442
 k-point ** :  -0.2667 0.4667 0.0000  plane waves:   12456
 k-point ** :  -0.2000 0.4667 0.0000  plane waves:   12476
 k-point ** :  -0.1333 0.4667 0.0000  plane waves:   12476
 k-point ** :  -0.0667 0.4667 0.0000  plane waves:   12488

 maximum and minimum number of plane-waves per node :       537      501

 maximum number of plane-waves:     12549
 maximum index in each direction: 
   IXMAX=    9   IYMAX=    8   IZMAX=   39
   IXMIN=   -9   IYMIN=   -9   IZMIN=  -39


 parallel 3D FFT for wavefunctions:
    minimum data exchange during FFTs selected (reduces bandwidth)
 parallel 3D FFT for charge:
    minimum data exchange during FFTs selected (reduces bandwidth)


 total amount of memory used by VASP MPI-rank0    63221. kBytes
=======================================================================

   base      :      30000. kBytes
   nonl-proj :      12467. kBytes
   fftplans  :       2678. kBytes
   grid      :       4349. kBytes
   one-center:          8. kBytes
   wavefun   :      13719. kBytes
 
     INWAV:  cpu time    0.0000: real time    0.0002
 Broyden mixing: mesh for mixing (old mesh)
   NGX = 17   NGY = 17   NGZ = 79
  (NGX  = 72   NGY  = 72   NGZ  =320)
  gives a total of  22831 points

 initial charge density was supplied:
 charge density of overlapping atoms calculated
 number of electron      20.0000000 magnetization 
 keeping initial charge density in first step


--------------------------------------------------------------------------------------------------------


 Maximum index for augmentation-charges         2234 (set IRDMAX)


--------------------------------------------------------------------------------------------------------


 First call to EWALD:  gamma=   0.246
 Maximum number of real-space cells 4x 4x 1
 Maximum number of reciprocal cells 2x 2x 7

    FEWALD:  cpu time    0.0016: real time    0.0038


--------------------------------------- Iteration      1(   1)  ---------------------------------------


    POTLOK:  cpu time    0.0547: real time    0.2803
    SETDIJ:  cpu time    0.0110: real time    0.0121
     EDDAV:  cpu time    2.1272: real time    2.1337
       DOS:  cpu time    0.0043: real time    0.0045
    --------------------------------------------
      LOOP:  cpu time    2.1972: real time    2.4307

 eigenvalue-minimisations  :  3164
 total energy-change (2. order) : 0.1436841E+03  (-0.6278985E+03)
 number of electron      20.0000000 magnetization 
 augmentation part       20.0000000 magnetization 

 Free energy of the ion-electron system (eV)
  ---------------------------------------------------
  alpha Z        PSCENC =         9.55203743
  Ewald energy   TEWEN  =      1160.80640013
  -Hartree energ DENC   =     -1762.79802436
  -exchange      EXHF   =         0.00000000
  -V(xc)+E(xc)   XCENC  =      -238.55306726
  PAW double counting   =       799.43158084     -524.17639913
  entropy T*S    EENTRO =        -0.01004389
  eigenvalues    EBANDS =        -2.99631350
  atomic energy  EATOM  =       702.42789710
  Solvation  Ediel_sol  =         0.00000000
  ---------------------------------------------------
  free energy    TOTEN  =       143.68406737 eV

  energy without entropy =      143.69411126  energy(sigma->0) =      143.68908931


--------------------------------------------------------------------------------------------------------




--------------------------------------- Iteration      1(   2)  ---------------------------------------


     EDDAV:  cpu time    3.0107: real time    3.0160
       DOS:  cpu time    0.0044: real time    0.0044
    --------------------------------------------
      LOOP:  cpu time    3.0151: real time    3.0205

 eigenvalue-minimisations  :  5172
 total energy-change (2. order) :-0.1392029E+03  (-0.1346252E+03)
 number of electron      20.0000000 magnetization 
 augmentation part       20.0000000 magnetization 

 Free energy of the ion-electron system (eV)
  ---------------------------------------------------
  alpha Z        PSCENC =         9.55203743
  Ewald energy   TEWEN  =      1160.80640013
  -Hartree energ DENC   =     -1762.79802436
  -exchange      EXHF   =         0.00000000
  -V(xc)+E(xc)   XCENC  =      -238.55306726
  PAW double counting   =       799.43158084     -524.17639913
  entropy T*S    EENTRO =        -0.00180478
  eigenvalues    EBANDS =      -142.20747703
  atomic energy  EATOM  =       702.42789710
  Solvation  Ediel_sol  =         0.00000000
  ---------------------------------------------------
  free energy    TOTEN  =         4.48114295 eV

  energy without entropy =        4.48294772  energy(sigma->0) =        4.48204533


--------------------------------------------------------------------------------------------------------




--------------------------------------- Iteration      1(   3)  ---------------------------------------


     EDDAV:  cpu time    2.4666: real time    2.4710
       DOS:  cpu time    0.0029: real time    0.0030
    --------------------------------------------
      LOOP:  cpu time    2.4696: real time    2.4739

 eigenvalue-minimisations  :  4070
 total energy-change (2. order) :-0.2047218E+02  (-0.2029552E+02)
 number of electron      20.0000000 magnetization 
 augmentation part       20.0000000 magnetization 

 Free energy of the ion-electron system (eV)
  ---------------------------------------------------
  alpha Z        PSCENC =         9.55203743
  Ewald energy   TEWEN  =      1160.80640013
  -Hartree energ DENC   =     -1762.79802436
  -exchange      EXHF   =         0.00000000
  -V(xc)+E(xc)   XCENC  =      -238.55306726
  PAW double counting   =       799.43158084     -524.17639913
  entropy T*S    EENTRO =        -0.00000000
  eigenvalues    EBANDS =      -162.68146069
  atomic energy  EATOM  =       702.42789710
  Solvation  Ediel_sol  =         0.00000000
  ---------------------------------------------------
  free energy    TOTEN  =       -15.99103594 eV

  energy without entropy =      -15.99103594  energy(sigma->0) =      -15.99103594


--------------------------------------------------------------------------------------------------------




--------------------------------------- Iteration      1(   4)  ---------------------------------------


     EDDAV:  cpu time    2.6261: real time    2.6307
       DOS:  cpu time    0.0031: real time    0.0031
    --------------------------------------------
      LOOP:  cpu time    2.6292: real time    2.6338

 eigenvalue-minimisations  :  4452
 total energy-change (2. order) :-0.7809553E+00  (-0.7791548E+00)
 number of electron      20.0000000 magnetization 
 augmentation part       20.0000000 magnetization 

 Free energy of the ion-electron system (eV)
  ---------------------------------------------------
  alpha Z        PSCENC =         9.55203743
  Ewald energy   TEWEN  =      1160.80640013
  -Hartree energ DENC   =     -1762.79802436
  -exchange      EXHF   =         0.00000000
  -V(xc)+E(xc)   XCENC  =      -238.55306726
  PAW double counting   =       799.43158084     -524.17639913
  entropy T*S    EENTRO =        -0.00000000
  eigenvalues    EBANDS =      -163.46241600
  atomic energy  EATOM  =       702.42789710
  Solvation  Ediel_sol  =         0.00000000
  ---------------------------------------------------
  free energy    TOTEN  =       -16.77199125 eV

  energy without entropy =      -16.77199125  energy(sigma->0) =      -16.77199125


--------------------------------------------------------------------------------------------------------




--------------------------------------- Iteration      1(   5)  ---------------------------------------


     EDDAV:  cpu time    2.5686: real time    2.5730
       DOS:  cpu time    0.0030: real time    0.0030
    CHARGE:  cpu time    0.1857: real time    0.1864
    MIXING:  cpu time    0.0015: real time    0.0025
    --------------------------------------------
      LOOP:  cpu time    2.7588: real time    2.7649

 eigenvalue-minimisations  :  4234
 total energy-change (2. order) :-0.1867910E-01  (-0.1866364E-01)
 number of electron      20.0000000 magnetization 
 augmentation part       -4.5243420 magnetization 

 Broyden mixing:
  rms(total) = 0.45368E+00    rms(broyden)= 0.45368E+00
  rms(prec ) = 0.49361E+00
  weight for this iteration     100.00

 Free energy of the ion-electron system (eV)
  ---------------------------------------------------
  alpha Z        PSCENC =         9.55203743
  Ewald energy   TEWEN  =      1160.80640013
  -Hartree energ DENC   =     -1762.79802436
  -exchange      EXHF   =         0.00000000
  -V(xc)+E(xc)   XCENC  =      -238.55306726
  PAW double counting   =       799.43158084     -524.17639913
  entropy T*S    EENTRO =        -0.00000000
  eigenvalues    EBANDS =      -163.48109510
  atomic energy  EATOM  =       702.42789710
  Solvation  Ediel_sol  =         0.00000000
  ---------------------------------------------------
  free energy    TOTEN  =       -16.79067035 eV

  energy without entropy =      -16.79067035  energy(sigma->0) =      -16.79067035


--------------------------------------------------------------------------------------------------------




--------------------------------------- Iteration      1(   6)  ---------------------------------------


    POTLOK:  cpu time    0.0364: real time    0.0365
    SETDIJ:  cpu time    0.0032: real time    0.0032
     EDDAV:  cpu time    2.4208: real time    2.4249
       DOS:  cpu time    0.0031: real time    0.0031
    CHARGE:  cpu time    0.1922: real time    0.1924
    MIXING:  cpu time    0.0017: real time    0.0018
    --------------------------------------------
      LOOP:  cpu time    2.6575: real time    2.6619

 eigenvalue-minimisations  :  3952
 total energy-change (2. order) : 0.4851976E+00  (-0.1224539E+00)
 number of electron      20.0000000 magnetization 
 augmentation part       -4.4919543 magnetization 

 Broyden mixing:
  rms(total) = 0.27870E+00    rms(broyden)= 0.27870E+00
  rms(prec ) = 0.28783E+00
  weight for this iteration     100.00

 eigenvalues of (default mixing * dielectric matrix)
  average eigenvalue GAMMA=   1.8201
  1.8201

 Free energy of the ion-electron system (eV)
  ---------------------------------------------------
  alpha Z        PSCENC =         9.55203743
  Ewald energy   TEWEN  =      1160.80640013
  -Hartree energ DENC   =     -1770.66415666
  -exchange      EXHF   =         0.00000000
  -V(xc)+E(xc)   XCENC  =      -238.07140016
  PAW double counting   =       925.44736849     -650.37678156
  entropy T*S    EENTRO =        -0.00000000
  eigenvalues    EBANDS =      -155.42683756
  atomic energy  EATOM  =       702.42789710
  Solvation  Ediel_sol  =         0.00000000
  ---------------------------------------------------
  free energy    TOTEN  =       -16.30547277 eV

  energy without entropy =      -16.30547277  energy(sigma->0) =      -16.30547277


--------------------------------------------------------------------------------------------------------




--------------------------------------- Iteration      1(   7)  ---------------------------------------


    POTLOK:  cpu time    0.0362: real time    0.0363
    SETDIJ:  cpu time    0.0031: real time    0.0032
     EDDAV:  cpu time    2.4760: real time    2.4798
       DOS:  cpu time    0.0031: real time    0.0031
    CHARGE:  cpu time    0.1826: real time    0.1827
    MIXING:  cpu time    0.0015: real time    0.0015
    --------------------------------------------
      LOOP:  cpu time    2.7025: real time    2.7066

 eigenvalue-minimisations  :  4124
 total energy-change (2. order) : 0.2830021E-01  (-0.3170513E-01)
 number of electron      20.0000000 magnetization 
 augmentation part       -4.4831570 magnetization 

 Broyden mixing:
  rms(total) = 0.10402E+00    rms(broyden)= 0.10402E+00
  rms(prec ) = 0.10947E+00
  weight for this iteration     100.00

 eigenvalues of (default mixing * dielectric matrix)
  average eigenvalue GAMMA=   1.7341
  1.3758  2.0925

 Free energy of the ion-electron system (eV)
  ---------------------------------------------------
  alpha Z        PSCENC =         9.55203743
  Ewald energy   TEWEN  =      1160.80640013
  -Hartree energ DENC   =     -1775.78773942
  -exchange      EXHF   =         0.00000000
  -V(xc)+E(xc)   XCENC  =      -237.74220540
  PAW double counting   =      1069.59601548     -794.66877904
  entropy T*S    EENTRO =        -0.00000000
  eigenvalues    EBANDS =      -150.46079885
  atomic energy  EATOM  =       702.42789710
  Solvation  Ediel_sol  =         0.00000000
  ---------------------------------------------------
  free energy    TOTEN  =       -16.27717256 eV

  energy without entropy =      -16.27717256  energy(sigma->0) =      -16.27717256


--------------------------------------------------------------------------------------------------------




--------------------------------------- Iteration      1(   8)  ---------------------------------------


    POTLOK:  cpu time    0.0361: real time    0.0363
    SETDIJ:  cpu time    0.0031: real time    0.0031
     EDDAV:  cpu time    2.6594: real time    2.6635
       DOS:  cpu time    0.0031: real time    0.0031
    CHARGE:  cpu time    0.1837: real time    0.1840
    MIXING:  cpu time    0.0017: real time    0.0018
    --------------------------------------------
      LOOP:  cpu time    2.8872: real time    2.8917

 eigenvalue-minimisations  :  4506
 total energy-change (2. order) : 0.9834074E-02  (-0.3921824E-02)
 number of electron      20.0000000 magnetization 
 augmentation part       -4.4873855 magnetization 

 Broyden mixing:
  rms(total) = 0.20459E-01    rms(broyden)= 0.20459E-01
  rms(prec ) = 0.27910E-01
  weight for this iteration     100.00

 eigenvalues of (default mixing * dielectric matrix)
  average eigenvalue GAMMA=   1.7139
  2.5376  1.3021  1.3021

 Free energy of the ion-electron system (eV)
  ---------------------------------------------------
  alpha Z        PSCENC =         9.55203743
  Ewald energy   TEWEN  =      1160.80640013
  -Hartree energ DENC   =     -1777.47546228
  -exchange      EXHF   =         0.00000000
  -V(xc)+E(xc)   XCENC  =      -237.66513479
  PAW double counting   =      1135.04443356     -860.15607431
  entropy T*S    EENTRO =        -0.00000000
  eigenvalues    EBANDS =      -148.80143534
  atomic energy  EATOM  =       702.42789710
  Solvation  Ediel_sol  =         0.00000000
  ---------------------------------------------------
  free energy    TOTEN  =       -16.26733849 eV

  energy without entropy =      -16.26733849  energy(sigma->0) =      -16.26733849


--------------------------------------------------------------------------------------------------------




--------------------------------------- Iteration      1(   9)  ---------------------------------------


    POTLOK:  cpu time    0.0363: real time    0.0364
    SETDIJ:  cpu time    0.0031: real time    0.0031
     EDDAV:  cpu time    2.5982: real time    2.6026
       DOS:  cpu time    0.0031: real time    0.0031
    CHARGE:  cpu time    0.1842: real time    0.1847
    MIXING:  cpu time    0.0015: real time    0.0015
    --------------------------------------------
      LOOP:  cpu time    2.8265: real time    2.8315

 eigenvalue-minimisations  :  4280
 total energy-change (2. order) : 0.3784461E-02  (-0.6732423E-03)
 number of electron      20.0000000 magnetization 
 augmentation part       -4.4854463 magnetization 

 Broyden mixing:
  rms(total) = 0.10110E-01    rms(broyden)= 0.10110E-01
  rms(prec ) = 0.15676E-01
  weight for this iteration     100.00

 eigenvalues of (default mixing * dielectric matrix)
  average eigenvalue GAMMA=   1.7100
  2.2263  2.2263  1.1938  1.1938

 Free energy of the ion-electron system (eV)
  ---------------------------------------------------
  alpha Z        PSCENC =         9.55203743
  Ewald energy   TEWEN  =      1160.80640013
  -Hartree energ DENC   =     -1779.48153286
  -exchange      EXHF   =         0.00000000
  -V(xc)+E(xc)   XCENC  =      -237.59109601
  PAW double counting   =      1153.56913762     -878.69314996
  entropy T*S    EENTRO =        -0.00000000
  eigenvalues    EBANDS =      -146.85324749
  atomic energy  EATOM  =       702.42789710
  Solvation  Ediel_sol  =         0.00000000
  ---------------------------------------------------
  free energy    TOTEN  =       -16.26355403 eV

  energy without entropy =      -16.26355403  energy(sigma->0) =      -16.26355403


--------------------------------------------------------------------------------------------------------




--------------------------------------- Iteration      1(  10)  ---------------------------------------


    POTLOK:  cpu time    0.0369: real time    0.0369
    SETDIJ:  cpu time    0.0033: real time    0.0033
     EDDAV:  cpu time    2.6100: real time    2.6147
       DOS:  cpu time    0.0031: real time    0.0031
    CHARGE:  cpu time    0.1822: real time    0.1824
    MIXING:  cpu time    0.0016: real time    0.0016
    --------------------------------------------
      LOOP:  cpu time    2.8370: real time    2.8420

 eigenvalue-minimisations  :  4388
 total energy-change (2. order) : 0.1270806E-02  (-0.1235890E-03)
 number of electron      20.0000000 magnetization 
 augmentation part       -4.4841824 magnetization 

 Broyden mixing:
  rms(total) = 0.52767E-02    rms(broyden)= 0.52767E-02
  rms(prec ) = 0.94559E-02
  weight for this iteration     100.00

 eigenvalues of (default mixing * dielectric matrix)
  average eigenvalue GAMMA=   1.8720
  3.3654  2.5986  1.2436  1.2436  0.9086

 Free energy of the ion-electron system (eV)
  ---------------------------------------------------
  alpha Z        PSCENC =         9.55203743
  Ewald energy   TEWEN  =      1160.80640013
  -Hartree energ DENC   =     -1780.75925356
  -exchange      EXHF   =         0.00000000
  -V(xc)+E(xc)   XCENC  =      -237.58047761
  PAW double counting   =      1142.68639681     -867.79976666
  entropy T*S    EENTRO =        -0.00000000
  eigenvalues    EBANDS =      -145.59551687
  atomic energy  EATOM  =       702.42789710
  Solvation  Ediel_sol  =         0.00000000
  ---------------------------------------------------
  free energy    TOTEN  =       -16.26228322 eV

  energy without entropy =      -16.26228322  energy(sigma->0) =      -16.26228322


--------------------------------------------------------------------------------------------------------




--------------------------------------- Iteration      1(  11)  ---------------------------------------


    POTLOK:  cpu time    0.0365: real time    0.0366
    SETDIJ:  cpu time    0.0031: real time    0.0031
     EDDAV:  cpu time    2.5501: real time    2.5549
       DOS:  cpu time    0.0031: real time    0.0031
    CHARGE:  cpu time    0.1825: real time    0.1827
    MIXING:  cpu time    0.0017: real time    0.0017
    --------------------------------------------
      LOOP:  cpu time    2.7769: real time    2.7821

 eigenvalue-minimisations  :  4274
 total energy-change (2. order) : 0.7256495E-03  (-0.1265338E-03)
 number of electron      20.0000000 magnetization 
 augmentation part       -4.4827871 magnetization 

 Broyden mixing:
  rms(total) = 0.33153E-02    rms(broyden)= 0.33153E-02
  rms(prec ) = 0.50137E-02
  weight for this iteration     100.00

 eigenvalues of (default mixing * dielectric matrix)
  average eigenvalue GAMMA=   1.8454
  3.4061  2.1961  2.1961  1.1965  1.1965  0.8812

 Free energy of the ion-electron system (eV)
  ---------------------------------------------------
  alpha Z        PSCENC =         9.55203743
  Ewald energy   TEWEN  =      1160.80640013
  -Hartree energ DENC   =     -1782.37351424
  -exchange      EXHF   =         0.00000000
  -V(xc)+E(xc)   XCENC  =      -237.54853178
  PAW double counting   =      1144.34632721     -869.45888062
  entropy T*S    EENTRO =        -0.00000000
  eigenvalues    EBANDS =      -144.01329282
  atomic energy  EATOM  =       702.42789710
  Solvation  Ediel_sol  =         0.00000000
  ---------------------------------------------------
  free energy    TOTEN  =       -16.26155757 eV

  energy without entropy =      -16.26155757  energy(sigma->0) =      -16.26155757


--------------------------------------------------------------------------------------------------------




--------------------------------------- Iteration      1(  12)  ---------------------------------------


    POTLOK:  cpu time    0.0367: real time    0.0368
    SETDIJ:  cpu time    0.0032: real time    0.0032
     EDDAV:  cpu time    2.2643: real time    2.2685
       DOS:  cpu time    0.0031: real time    0.0031
    CHARGE:  cpu time    0.1823: real time    0.1825
    MIXING:  cpu time    0.0016: real time    0.0016
    --------------------------------------------
      LOOP:  cpu time    2.4911: real time    2.4957

 eigenvalue-minimisations  :  3608
 total energy-change (2. order) :-0.8321945E-03  (-0.3074457E-04)
 number of electron      20.0000000 magnetization 
 augmentation part       -4.4821469 magnetization 

 Broyden mixing:
  rms(total) = 0.18850E-02    rms(broyden)= 0.18850E-02
  rms(prec ) = 0.28472E-02
  weight for this iteration     100.00

 eigenvalues of (default mixing * dielectric matrix)
  average eigenvalue GAMMA=   2.0695
  4.6056  3.0859  2.5041  1.2119  1.2119  1.0260  0.8413

 Free energy of the ion-electron system (eV)
  ---------------------------------------------------
  alpha Z        PSCENC =         9.55203743
  Ewald energy   TEWEN  =      1160.80640013
  -Hartree energ DENC   =     -1783.00846444
  -exchange      EXHF   =         0.00000000
  -V(xc)+E(xc)   XCENC  =      -237.53895423
  PAW double counting   =      1146.24882140     -871.36422224
  entropy T*S    EENTRO =        -0.00000000
  eigenvalues    EBANDS =      -143.38590493
  atomic energy  EATOM  =       702.42789710
  Solvation  Ediel_sol  =         0.00000000
  ---------------------------------------------------
  free energy    TOTEN  =       -16.26238977 eV

  energy without entropy =      -16.26238977  energy(sigma->0) =      -16.26238977


--------------------------------------------------------------------------------------------------------




--------------------------------------- Iteration      1(  13)  ---------------------------------------


    POTLOK:  cpu time    0.0371: real time    0.0372
    SETDIJ:  cpu time    0.0031: real time    0.0031
     EDDAV:  cpu time    2.3144: real time    2.3188
       DOS:  cpu time    0.0031: real time    0.0031
    CHARGE:  cpu time    0.1822: real time    0.1825
    MIXING:  cpu time    0.0017: real time    0.0017
    --------------------------------------------
      LOOP:  cpu time    2.5415: real time    2.5463

 eigenvalue-minimisations  :  3752
 total energy-change (2. order) :-0.4283440E-03  (-0.8046977E-05)
 number of electron      20.0000000 magnetization 
 augmentation part       -4.4819535 magnetization 

 Broyden mixing:
  rms(total) = 0.11872E-02    rms(broyden)= 0.11872E-02
  rms(prec ) = 0.15542E-02
  weight for this iteration     100.00

 eigenvalues of (default mixing * dielectric matrix)
  average eigenvalue GAMMA=   2.2317
  5.5903  3.3093  2.4857  2.1705  1.1635  1.1635  1.0593  0.9113

 Free energy of the ion-electron system (eV)
  ---------------------------------------------------
  alpha Z        PSCENC =         9.55203743
  Ewald energy   TEWEN  =      1160.80640013
  -Hartree energ DENC   =     -1783.41373514
  -exchange      EXHF   =         0.00000000
  -V(xc)+E(xc)   XCENC  =      -237.53784460
  PAW double counting   =      1145.05053981     -870.16469702
  entropy T*S    EENTRO =        -0.00000000
  eigenvalues    EBANDS =      -142.98341582
  atomic energy  EATOM  =       702.42789710
  Solvation  Ediel_sol  =         0.00000000
  ---------------------------------------------------
  free energy    TOTEN  =       -16.26281811 eV

  energy without entropy =      -16.26281811  energy(sigma->0) =      -16.26281811


--------------------------------------------------------------------------------------------------------




--------------------------------------- Iteration      1(  14)  ---------------------------------------


    POTLOK:  cpu time    0.0378: real time    0.0380
    SETDIJ:  cpu time    0.0031: real time    0.0031
     EDDAV:  cpu time    2.4115: real time    2.4160
       DOS:  cpu time    0.0032: real time    0.0032
    CHARGE:  cpu time    0.1842: real time    0.1845
    MIXING:  cpu time    0.0019: real time    0.0019
    --------------------------------------------
      LOOP:  cpu time    2.6417: real time    2.6466

 eigenvalue-minimisations  :  3938
 total energy-change (2. order) :-0.2649982E-03  (-0.4258897E-05)
 number of electron      20.0000000 magnetization 
 augmentation part       -4.4819318 magnetization 

 Broyden mixing:
  rms(total) = 0.40632E-03    rms(broyden)= 0.40632E-03
  rms(prec ) = 0.62530E-03
  weight for this iteration     100.00

 eigenvalues of (default mixing * dielectric matrix)
  average eigenvalue GAMMA=   2.2425
  6.7319  3.0739  2.5303  2.5303  1.1895  1.1895  1.0492  0.9442  0.9442

 Free energy of the ion-electron system (eV)
  ---------------------------------------------------
  alpha Z        PSCENC =         9.55203743
  Ewald energy   TEWEN  =      1160.80640013
  -Hartree energ DENC   =     -1783.62165748
  -exchange      EXHF   =         0.00000000
  -V(xc)+E(xc)   XCENC  =      -237.53773409
  PAW double counting   =      1145.32285784     -870.43643087
  entropy T*S    EENTRO =        -0.00000000
  eigenvalues    EBANDS =      -142.77645317
  atomic energy  EATOM  =       702.42789710
  Solvation  Ediel_sol  =         0.00000000
  ---------------------------------------------------
  free energy    TOTEN  =       -16.26308311 eV

  energy without entropy =      -16.26308311  energy(sigma->0) =      -16.26308311


--------------------------------------------------------------------------------------------------------




--------------------------------------- Iteration      1(  15)  ---------------------------------------


    POTLOK:  cpu time    0.0380: real time    0.0381
    SETDIJ:  cpu time    0.0031: real time    0.0031
     EDDAV:  cpu time    2.4019: real time    2.4062
       DOS:  cpu time    0.0030: real time    0.0030
    CHARGE:  cpu time    0.1843: real time    0.1851
    MIXING:  cpu time    0.0022: real time    0.0022
    --------------------------------------------
      LOOP:  cpu time    2.6325: real time    2.6377

 eigenvalue-minimisations  :  3816
 total energy-change (2. order) :-0.5617831E-04  (-0.2011105E-06)
 number of electron      20.0000000 magnetization 
 augmentation part       -4.4819485 magnetization 

 Broyden mixing:
  rms(total) = 0.34145E-03    rms(broyden)= 0.34145E-03
  rms(prec ) = 0.51210E-03
  weight for this iteration     100.00

 eigenvalues of (default mixing * dielectric matrix)
  average eigenvalue GAMMA=   2.3587
  6.5459  4.2805  2.7044  2.7044  1.9848  1.1443  1.1443  1.2057  0.9364  0.9364

 Free energy of the ion-electron system (eV)
  ---------------------------------------------------
  alpha Z        PSCENC =         9.55203743
  Ewald energy   TEWEN  =      1160.80640013
  -Hartree energ DENC   =     -1783.63732846
  -exchange      EXHF   =         0.00000000
  -V(xc)+E(xc)   XCENC  =      -237.53805505
  PAW double counting   =      1145.15316509     -870.26661985
  entropy T*S    EENTRO =        -0.00000000
  eigenvalues    EBANDS =      -142.76063569
  atomic energy  EATOM  =       702.42789710
  Solvation  Ediel_sol  =         0.00000000
  ---------------------------------------------------
  free energy    TOTEN  =       -16.26313929 eV

  energy without entropy =      -16.26313929  energy(sigma->0) =      -16.26313929


--------------------------------------------------------------------------------------------------------




--------------------------------------- Iteration      1(  16)  ---------------------------------------


    POTLOK:  cpu time    0.0371: real time    0.0372
    SETDIJ:  cpu time    0.0032: real time    0.0032
     EDDAV:  cpu time    2.1946: real time    2.1986
       DOS:  cpu time    0.0031: real time    0.0031
    CHARGE:  cpu time    0.1834: real time    0.1836
    MIXING:  cpu time    0.0018: real time    0.0018
    --------------------------------------------
      LOOP:  cpu time    2.4233: real time    2.4275

[...]
      3      -8.6196      2.00000
      4      -8.4901      2.00000
      5      -6.4134      2.00000
      6      -5.5076      2.00000
      7      -5.0574      2.00000
      8      -4.3549      2.00000
      9      -3.9929      2.00000
     10      -3.3662      2.00000
     11       0.5485      0.00000
     12       1.3548      0.00000
     13       1.6148      0.00000
     14       2.2912      0.00000

 k-point    95 :      -0.2667    0.4000    0.0000
  band No.  band energies     occupation 
      1     -14.5519      2.00000
      2     -14.2889      2.00000
      3      -8.8095      2.00000
      4      -8.5973      2.00000
      5      -6.0824      2.00000
      6      -5.1209      2.00000
      7      -4.7987      2.00000
      8      -4.0890      2.00000
      9      -3.8971      2.00000
     10      -3.0858      2.00000
     11       0.1482      0.00000
     12       1.0946      0.00000
     13       1.2037      0.00000
     14       1.6120      0.00000

 k-point    96 :      -0.2000    0.4000    0.0000
  band No.  band energies     occupation 
      1     -14.6224      2.00000
      2     -14.3141      2.00000
      3      -8.9819      2.00000
      4      -8.7037      2.00000
      5      -5.6300      2.00000
      6      -4.8261      2.00000
      7      -4.5414      2.00000
      8      -3.9514      2.00000
      9      -3.5084      2.00000
     10      -2.7067      2.00000
     11      -0.3276      0.00000
     12       0.6046      0.00000
     13       0.7173      0.00000
     14       1.2425      0.00000

 k-point    97 :      -0.1333    0.4000    0.0000
  band No.  band energies     occupation 
      1     -14.6785      2.00000
      2     -14.3389      2.00000
      3      -9.1154      2.00000
      4      -8.7919      2.00000
      5      -5.0979      2.00000
      6      -4.7616      2.00000
      7      -4.1328      2.00000
      8      -3.9068      2.00000
      9      -2.9195      2.00000
     10      -2.4654      2.00000
     11      -0.6190      0.00000
     12      -0.1347      0.00000
     13       0.4907      0.00000
     14       0.8231      0.00000

 k-point    98 :      -0.0667    0.4000    0.0000
  band No.  band energies     occupation 
      1     -14.7142      2.00000
      2     -14.3569      2.00000
      3      -9.1996      2.00000
      4      -8.8501      2.00000
      5      -4.7681      2.00000
      6      -4.5504      2.00000
      7      -3.9318      2.00000
      8      -3.7141      2.00000
      9      -2.6257      2.00000
     10      -2.3237      2.00000
     11      -0.7422      0.00000
     12      -0.3776      0.00000
     13       0.2561      0.00000
     14       0.3699      0.00000

 k-point    99 :       0.0000    0.4667    0.0000
  band No.  band energies     occupation 
      1     -14.5807      2.00000
      2     -14.4562      2.00000
      3      -9.2157      2.00000
      4      -9.0925      2.00000
      5      -4.5258      2.00000
      6      -4.2997      2.00000
      7      -3.8226      2.00000
      8      -3.6238      2.00000
      9      -2.5182      2.00000
     10      -2.1631      2.00000
     11      -0.8813      0.00000
     12      -0.4332      0.00000
     13      -0.0692      0.00000
     14       0.1314      0.00000

 k-point   100 :       0.0667    0.4667    0.0000
  band No.  band energies     occupation 
      1     -14.5692      2.00000
      2     -14.4490      2.00000
      3      -9.1881      2.00000
      4      -9.0672      2.00000
      5      -4.5346      2.00000
      6      -4.4150      2.00000
      7      -3.9868      2.00000
      8      -3.8368      2.00000
      9      -2.4110      2.00000
     10      -2.3372      2.00000
     11      -0.7881      0.00000
     12      -0.6794      0.00000
     13       0.3055      0.00000
     14       0.6005      0.00000

 k-point   101 :       0.1333    0.4667    0.0000
  band No.  band energies     occupation 
      1     -14.5380      2.00000
      2     -14.4265      2.00000
      3      -9.1048      2.00000
      4      -8.9917      2.00000
      5      -4.8322      2.00000
      6      -4.6306      2.00000
      7      -4.2315      2.00000
      8      -4.1069      2.00000
      9      -2.8203      2.00000
     10      -2.5852      2.00000
     11      -0.5268      0.00000
     12      -0.2955      0.00000
     13       0.7934      0.00000
     14       0.9040      0.00000

 k-point   102 :       0.2000    0.4667    0.0000
  band No.  band energies     occupation 
      1     -14.4911      2.00000
      2     -14.3929      2.00000
      3      -8.9698      2.00000
      4      -8.8698      2.00000
      5      -5.3523      2.00000
      6      -5.0100      2.00000
      7      -4.4301      2.00000
      8      -4.1764      2.00000
      9      -3.3452      2.00000
     10      -3.0420      2.00000
     11       0.0144      0.00000
     12       0.3607      0.00000
     13       1.0286      0.00000
     14       1.2475      0.00000

 k-point   103 :       0.2667    0.4667    0.0000
  band No.  band energies     occupation 
      1     -14.4347      2.00000
      2     -14.3543      2.00000
      3      -8.7914      2.00000
      4      -8.7096      2.00000
      5      -5.8320      2.00000
      6      -5.4859      2.00000
      7      -4.6270      2.00000
      8      -4.3362      2.00000
      9      -3.6897      2.00000
     10      -3.4389      2.00000
     11       0.5230      0.00000
     12       0.8679      0.00000
     13       1.4579      0.00000
     14       1.6906      0.00000

 k-point   104 :       0.3333    0.4667    0.0000
  band No.  band energies     occupation 
      1     -14.3768      2.00000
      2     -14.3186      2.00000
      3      -8.5865      2.00000
      4      -8.5263      2.00000
      5      -6.2226      2.00000
      6      -5.9236      2.00000
      7      -4.9308      2.00000
      8      -4.6446      2.00000
      9      -3.7953      2.00000
     10      -3.6331      2.00000
     11       0.8602      0.00000
     12       1.1313      0.00000
     13       2.0389      0.00000
     14       2.2855      0.00000

 k-point   105 :       0.4000    0.4667    0.0000
  band No.  band energies     occupation 
      1     -14.3264      2.00000
      2     -14.2941      2.00000
      3      -8.3895      2.00000
      4      -8.3476      2.00000
      5      -6.4900      2.00000
      6      -6.2941      2.00000
      7      -5.1911      2.00000
      8      -4.9818      2.00000
      9      -3.7863      2.00000
     10      -3.7053      2.00000
     11       1.0934      0.00000
     12       1.2752      0.00000
     13       2.5333      0.00000
     14       2.7325      0.00000

 k-point   106 :       0.4667    0.4667    0.0000
  band No.  band energies     occupation 
      1     -14.2915      2.00000
      2     -14.2873      2.00000
      3      -8.2605      2.00000
      4      -8.2239      2.00000
      5      -6.5928      2.00000
      6      -6.5598      2.00000
      7      -5.3002      2.00000
      8      -5.2219      2.00000
      9      -3.7470      2.00000
     10      -3.7466      2.00000
     11       1.2461      0.00000
     12       1.3261      0.00000
     13       2.7113      0.00000
     14       2.7713      0.00000

 k-point   107 :      -0.4667    0.4667    0.0000
  band No.  band energies     occupation 
      1     -14.3018      2.00000
      2     -14.2772      2.00000
      3      -8.2566      2.00000
      4      -8.2229      2.00000
      5      -6.6502      2.00000
      6      -6.5033      2.00000
      7      -5.2977      2.00000
      8      -5.2297      2.00000
      9      -3.7875      2.00000
     10      -3.7065      2.00000
     11       1.2678      0.00000
     12       1.3037      0.00000
     13       2.6924      0.00000
     14       2.8008      0.00000

 k-point   108 :      -0.4000    0.4667    0.0000
  band No.  band energies     occupation 
      1     -14.3364      2.00000
      2     -14.2845      2.00000
      3      -8.3672      2.00000
      4      -8.3595      2.00000
      5      -6.5302      2.00000
      6      -6.2559      2.00000
      7      -5.1838      2.00000
      8      -5.0007      2.00000
      9      -3.8269      2.00000
     10      -3.6666      2.00000
     11       1.1045      0.00000
     12       1.2629      0.00000
     13       2.5108      0.00000
     14       2.7743      0.00000

 k-point   109 :      -0.3333    0.4667    0.0000
  band No.  band energies     occupation 
      1     -14.3859      2.00000
      2     -14.3101      2.00000
      3      -8.5667      2.00000
      4      -8.5350      2.00000
      5      -6.2418      2.00000
      6      -5.9089      2.00000
      7      -4.9111      2.00000
      8      -4.6739      2.00000
      9      -3.8354      2.00000
     10      -3.5989      2.00000
     11       0.8588      0.00000
     12       1.1318      0.00000
     13       2.0119      0.00000
     14       2.3201      0.00000

 k-point   110 :      -0.2667    0.4667    0.0000
  band No.  band energies     occupation 
      1     -14.4424      2.00000
      2     -14.3471      2.00000
      3      -8.7792      2.00000
      4      -8.7120      2.00000
      5      -5.8337      2.00000
      6      -5.4916      2.00000
      7      -4.5990      2.00000
      8      -4.3642      2.00000
      9      -3.7226      2.00000
     10      -3.4215      2.00000
     11       0.5103      0.00000
     12       0.8806      0.00000
     13       1.4402      0.00000
     14       1.7111      0.00000

 k-point   111 :      -0.2000    0.4667    0.0000
  band No.  band energies     occupation 
      1     -14.4972      2.00000
      2     -14.3873      2.00000
      3      -8.9626      2.00000
      4      -8.8693      2.00000
      5      -5.3406      2.00000
      6      -5.0305      2.00000
      7      -4.4095      2.00000
      8      -4.1916      2.00000
      9      -3.3560      2.00000
     10      -3.0534      2.00000
     11      -0.0025      0.00000
     12       0.3808      0.00000
     13       1.0203      0.00000
     14       1.2553      0.00000

 k-point   112 :      -0.1333    0.4667    0.0000
  band No.  band energies     occupation 
      1     -14.5422      2.00000
      2     -14.4227      2.00000
      3      -9.1008      2.00000
      4      -8.9904      2.00000
      5      -4.8110      2.00000
      6      -4.6506      2.00000
      7      -4.2267      2.00000
      8      -4.1153      2.00000
      9      -2.8108      2.00000
     10      -2.6201      2.00000
     11      -0.5359      0.00000
     12      -0.2814      0.00000
     13       0.7878      0.00000
     14       0.9021      0.00000

 k-point   113 :      -0.0667    0.4667    0.0000
  band No.  band energies     occupation 
      1     -14.5713      2.00000
      2     -14.4470      2.00000
      3      -9.1863      2.00000
      4      -9.0663      2.00000
      5      -4.5406      2.00000
      6      -4.3976      2.00000
      7      -3.9877      2.00000
      8      -3.8473      2.00000
      9      -2.4484      2.00000
     10      -2.3165      2.00000
     11      -0.7878      0.00000
     12      -0.6842      0.00000
     13       0.3010      0.00000
     14       0.6082      0.00000


--------------------------------------------------------------------------------------------------------


 soft charge-density along one line, spin component           1
         0         1         2         3         4         5         6         7         8         9
 total charge-density along one line
 
 pseudopotential strength for first ion, spin component:           1
 30.077 -23.430  -0.003  -0.089   0.031  -0.005  -0.140   0.049
-23.430  28.114   0.002   0.050  -0.017   0.003   0.082  -0.028
 -0.003   0.002   6.330  -0.000  -0.000   9.793  -0.000  -0.000
 -0.089   0.050  -0.000   6.328   0.001  -0.000   9.789   0.002
  0.031  -0.017  -0.000   0.001   6.330  -0.000   0.002   9.792
 -0.005   0.003   9.793  -0.000  -0.000  15.221  -0.000  -0.000
 -0.140   0.082  -0.000   9.789   0.002  -0.000  15.214   0.004
  0.049  -0.028  -0.000   0.002   9.792  -0.000   0.004  15.220
 -0.000  -0.000   0.006  -0.000  -0.001   0.010  -0.000  -0.001
 -0.000   0.000  -0.020  -0.001  -0.000  -0.031  -0.001  -0.000
 -0.002   0.003   0.000  -0.023  -0.004   0.001  -0.035  -0.006
  0.003  -0.001  -0.000   0.007  -0.020  -0.000   0.012  -0.031
 -0.000   0.000   0.001  -0.000   0.007   0.001  -0.000   0.012
 total augmentation occupancy for first ion, spin component:           1
  2.026  -0.015   0.009   0.237  -0.078  -0.002  -0.042   0.014  -0.001  -0.000   0.023   0.002   0.000
 -0.015   0.009  -0.003  -0.073   0.024   0.001   0.018  -0.006   0.000  -0.000  -0.002   0.001  -0.000
  0.009  -0.003   1.507  -0.001  -0.002  -0.406   0.002   0.001   0.111  -0.042   0.008   0.000  -0.001
  0.237  -0.073  -0.001   1.839  -0.000   0.002  -0.486  -0.013   0.000   0.002  -0.268  -0.016  -0.000
 -0.078   0.024  -0.002  -0.000   1.494   0.001  -0.013  -0.397  -0.013   0.000  -0.071  -0.044  -0.006
 -0.002   0.001  -0.406   0.002   0.001   0.118  -0.001  -0.000  -0.030   0.012  -0.002  -0.000   0.000
 -0.042   0.018   0.002  -0.486  -0.013  -0.001   0.140   0.006  -0.000  -0.001   0.074   0.004   0.000
  0.014  -0.006   0.001  -0.013  -0.397  -0.000   0.006   0.114   0.003  -0.000   0.019   0.012   0.002
 -0.001   0.000   0.111   0.000  -0.013  -0.030  -0.000   0.003   0.077   0.000  -0.000  -0.000  -0.000
 -0.000  -0.000  -0.042   0.002   0.000   0.012  -0.001  -0.000   0.000   0.021  -0.001  -0.000   0.000
  0.023  -0.002   0.008  -0.268  -0.071  -0.002   0.074   0.019  -0.000  -0.001   0.078   0.005   0.001
  0.002   0.001   0.000  -0.016  -0.044  -0.000   0.004   0.012  -0.000  -0.000   0.005   0.022   0.000
  0.000  -0.000  -0.001  -0.000  -0.006   0.000   0.000   0.002  -0.000   0.000   0.001   0.000   0.017


------------------------ aborting loop because EDIFF is reached ----------------------------------------


    CHARGE:  cpu time    0.1854: real time    0.1856
    FORLOC:  cpu time    0.0021: real time    0.0021
    FORNL :  cpu time    0.3086: real time    0.3089
    STRESS:  cpu time    0.5958: real time    0.5964
    FORCOR:  cpu time    0.0385: real time    0.0386
    FORHAR:  cpu time    0.0099: real time    0.0099
    MIXING:  cpu time    0.0009: real time    0.0009
    OFIELD:  cpu time    0.0000: real time    0.0000

  FORCE on cell =-STRESS in cart. coord.  units (eV):
  Direction    XX          YY          ZZ          XY          YZ          ZX
  --------------------------------------------------------------------------------------
  Alpha Z     9.55204     9.55204     9.55204
  Ewald    1614.82218  1618.34036 -2073.43816     0.80412    -0.00000     0.00000
  Hartree  1735.03865  1736.31161 -1688.56661     0.28984     0.00000     0.00000
  E(xc)     -77.68114   -77.69102   -78.91236     0.01266    -0.00000     0.00000
  Local   -3602.59921 -3606.93574  3507.14577    -1.11641     0.00000     0.00000
  n-local   162.56515   162.71332   167.24370    -0.04184     0.00000     0.00000
  augment   -31.87519   -31.82815   -32.80337     0.00492     0.00000     0.00000
  Kinetic   190.29578   189.64930   189.77674     0.15220    -0.00000    -0.00000
  Fock        0.00000     0.00000     0.00000     0.00000     0.00000     0.00000
  -------------------------------------------------------------------------------------
  Total       0.11827     0.11171    -0.00227     0.10549     0.00000     0.00000
  in kB       0.50619     0.47813    -0.00970     0.45149     0.00000     0.00000
  external pressure =        0.32 kB  Pullay stress =        0.00 kB


 VOLUME and BASIS-vectors are now :
 -----------------------------------------------------------------------------
  energy-cutoff  :      600.00
  volume of cell :      374.34
      direct lattice vectors                 reciprocal lattice vectors
     4.360444981 -0.010955892  0.000000000     0.229335833  0.000573340  0.000000000
    -0.010731195  4.292477857  0.000000000     0.000585345  0.232967138  0.000000000
     0.000000000  0.000000000 20.000000000     0.000000000  0.000000000  0.050000000

  length of vectors
     4.360458745  4.292491271 20.000000000     0.229336550  0.232967873  0.050000000


 FORCES acting on ions
    electron-ion (+dipol)            ewald-force                    non-local-force                 convergence-correction
 -----------------------------------------------------------------------------------------------
   0.374E+01 -.405E+00 -.145E+03   -.508E+01 0.552E+00 0.148E+03   0.134E+01 -.147E+00 -.380E+01   -.982E-04 0.102E-03 -.741E-03
   0.374E+01 -.405E+00 0.145E+03   -.508E+01 0.552E+00 -.148E+03   0.134E+01 -.147E+00 0.380E+01   -.982E-04 0.102E-03 0.741E-03
   -.469E+01 0.515E+00 -.208E+03   0.508E+01 -.552E+00 0.210E+03   -.394E+00 0.386E-01 -.204E+01   0.143E-02 -.116E-02 -.196E-02
   -.469E+01 0.515E+00 0.208E+03   0.508E+01 -.552E+00 -.210E+03   -.394E+00 0.386E-01 0.204E+01   0.143E-02 -.116E-02 0.196E-02
 -----------------------------------------------------------------------------------------------
   -.189E+01 0.220E+00 -.619E-06   0.355E-14 -.222E-15 0.284E-13   0.189E+01 -.217E+00 0.000E+00   0.266E-02 -.212E-02 -.125E-09
 
 
 POSITION                                       TOTAL-FORCE (eV/Angst)
 -----------------------------------------------------------------------------------
      2.51482      3.20106     11.37373         0.000684      0.000098      0.000127
      0.33996      1.06030      8.62627         0.000684      0.000098     -0.000127
      0.15222      1.08469     11.34429        -0.000684     -0.000098     -0.000431
      2.32707      3.22545      8.65571        -0.000684     -0.000098      0.000431
 -----------------------------------------------------------------------------------
    total drift:                                0.000082      0.000021     -0.000001


--------------------------------------------------------------------------------------------------------



  FREE ENERGIE OF THE ION-ELECTRON SYSTEM (eV)
  ---------------------------------------------------
  free  energy   TOTEN  =       -16.26382537 eV

  energy  without entropy=      -16.26382537  energy(sigma->0) =      -16.26382537
 
 d Force = 0.8548653E-06[ 0.472E-06, 0.124E-05]  d Energy = 0.9015039E-06-0.466E-07
 d Force = 0.7022358E-01[ 0.702E-01, 0.702E-01]  d Ewald  = 0.7022358E-01-0.130E-08


--------------------------------------------------------------------------------------------------------


    POTLOK:  cpu time    0.0404: real time    0.0405


--------------------------------------------------------------------------------------------------------




--------------------------------------------------------------------------------------------------------


  
 reached required accuracy - stopping structural energy minimisation
 writing wavefunctions
     LOOP+:  cpu time    9.4167: real time    9.8621
    4ORBIT:  cpu time    0.0000: real time    0.0000

 total amount of memory used by VASP MPI-rank0    63221. kBytes
=======================================================================

   base      :      30000. kBytes
   nonl-proj :      12467. kBytes
   fftplans  :       2678. kBytes
   grid      :       4349. kBytes
   one-center:          8. kBytes
   wavefun   :      13719. kBytes
 
  
  
 General timing and accounting informations for this job:
 ========================================================
  
                  Total CPU time used (sec):      229.268
                            User time (sec):      228.450
                          System time (sec):        0.818
                         Elapsed time (sec):      241.949
  
                   Maximum memory used (kb):      212044.
                   Average memory used (kb):           0.
  
                          Minor page faults:       150145
                          Major page faults:          119
                 Voluntary context switches:        10831
