
     Program PWSCF v.6.6 starts on  8May2023 at  6:23:52 

     This program is part of the open-source Quantum ESPRESSO suite
     for quantum simulation of materials; please cite
         "P. Giannozzi et al., J. Phys.:Condens. Matter 21 395502 (2009);
         "P. Giannozzi et al., J. Phys.:Condens. Matter 29 465901 (2017);
          URL http://www.quantum-espresso.org", 
     in publications or presentations arising from this work. More details at
     http://www.quantum-espresso.org/quote

     Parallel version (MPI), running on    24 processors

     MPI processes distributed on     1 nodes
     R & G space division:  proc/nbgrp/npool/nimage =      24
     Fft bands division:     nmany     =       1
     Reading input from INCAR-relax.pw
Warning: card &CELL ignored
Warning: card     CELL_DYNAMICS  = "BFGS" ignored
Warning: card     ! CELL_DOFREE = "XY" ignored
Warning: card / ignored

     Current dimensions of program PWSCF are:
     Max number of different atomic species (ntypx) = 10
     Max number of k-points (npk) =  40000
     Max angular momentum in pseudopotentials (lmaxx) =  3

     Subspace diagonalization in iterative solution of the eigenvalue problem:
     a serial algorithm will be used

     Message from routine setup:
     using ibrav=0 with symmetry is DISCOURAGED, use correct ibrav instead
 
     Parallelization info
     --------------------
     sticks:   dense  smooth     PW     G-vecs:    dense   smooth      PW
     Min         134      71     20                26468    10301    1520
     Max         135      72     21                26487    10312    1533
     Sum        3239    1717    485               635589   247307   36541
 


     bravais-lattice index     =            0
     lattice parameter (alat)  =       8.3602  a.u.
     unit-cell volume          =    2560.1294 (a.u.)^3
     number of atoms/cell      =            4
     number of atomic types    =            2
     number of electrons       =        40.00
     number of Kohn-Sham states=           24
     kinetic-energy cutoff     =      80.0000  Ry
     charge density cutoff     =     600.0000  Ry
     convergence threshold     =      1.0E-10
     mixing beta               =       0.7000
     number of iterations used =            8  plain     mixing
     Exchange-correlation= SLA  PW   PBE  PBE
                           (   1   4   3   4   0   0   0)
     nstep                     =          100


     celldm(1)=   8.360153  celldm(2)=   0.000000  celldm(3)=   0.000000
     celldm(4)=   0.000000  celldm(5)=   0.000000  celldm(6)=   0.000000

     crystal axes: (cart. coord. in units of alat)
               a(1) = (   1.000000   0.000000   0.000000 )  
               a(2) = (   0.000000   0.969180   0.000000 )  
               a(3) = (   0.000000   0.000000   4.520793 )  

     reciprocal axes: (cart. coord. in units 2 pi/alat)
               b(1) = (  1.000000  0.000000  0.000000 )  
               b(2) = (  0.000000  1.031800  0.000000 )  
               b(3) = (  0.000000  0.000000  0.221200 )  


     PseudoPot. # 1 for Sn read from file:
     ./Sn_pbe_v1.uspp.F.UPF
     MD5 check sum: 4cf58ce39ec5d5d420df3dd08604eb00
     Pseudo is Ultrasoft + core correction, Zval = 14.0
     Generated by new atomic code, or converted to UPF format
     Using radial grid of  891 points,  6 beta functions with: 
                l(1) =   0
                l(2) =   0
                l(3) =   1
                l(4) =   1
                l(5) =   2
                l(6) =   2
     Q(r) pseudized with  6 coefficients,  rinner =    1.200   1.200   1.200
                                                       1.200   1.200

     PseudoPot. # 2 for Se read from file:
     ./Se_pbe_v1.uspp.F.UPF
     MD5 check sum: 1b3568f3a8ae88f9a2a0ad0698632c85
     Pseudo is Ultrasoft + core correction, Zval =  6.0
     Generated by new atomic code, or converted to UPF format
     Using radial grid of  877 points,  6 beta functions with: 
                l(1) =   0
                l(2) =   0
                l(3) =   1
                l(4) =   1
                l(5) =   2
                l(6) =   2
     Q(r) pseudized with  8 coefficients,  rinner =    1.300   1.300   1.300
                                                       1.300   1.300

     atomic species   valence    mass     pseudopotential
        Sn            14.00   118.71000     Sn( 1.00)
        Se             6.00    78.96000     Se( 1.00)

      2 Sym. Ops. (no inversion) found ( 1 have fractional translation)



   Cartesian axes

     site n.     atom                  positions (alat units)
         1           Sn  tau(   1) = (   0.5839905   0.7268853   0.6535089  )
         2           Sn  tau(   2) = (   0.0839891   0.2422951   0.0297902  )
         3           Se  tau(   3) = (   0.0301155   0.2422951   0.6433959  )
         4           Se  tau(   4) = (   0.5301129   0.7268853   0.0398957  )

     number of k points=    64  Marzari-Vanderbilt smearing, width (Ry)=  0.0100
                       cart. coord. in units 2pi/alat
        k(    1) = (   0.0000000   0.0000000   0.0000000), wk =   0.0088889
        k(    2) = (   0.0000000   0.0687866   0.0000000), wk =   0.0177778
        k(    3) = (   0.0000000   0.1375733   0.0000000), wk =   0.0177778
        k(    4) = (   0.0000000   0.2063599   0.0000000), wk =   0.0177778
        k(    5) = (   0.0000000   0.2751466   0.0000000), wk =   0.0177778
        k(    6) = (   0.0000000   0.3439332   0.0000000), wk =   0.0177778
        k(    7) = (   0.0000000   0.4127199   0.0000000), wk =   0.0177778
        k(    8) = (   0.0000000   0.4815065   0.0000000), wk =   0.0177778
        k(    9) = (   0.0666667   0.0000000   0.0000000), wk =   0.0177778
        k(   10) = (   0.0666667   0.0687866   0.0000000), wk =   0.0355556
        k(   11) = (   0.0666667   0.1375733   0.0000000), wk =   0.0355556
        k(   12) = (   0.0666667   0.2063599   0.0000000), wk =   0.0355556
        k(   13) = (   0.0666667   0.2751466   0.0000000), wk =   0.0355556
        k(   14) = (   0.0666667   0.3439332   0.0000000), wk =   0.0355556
        k(   15) = (   0.0666667   0.4127199   0.0000000), wk =   0.0355556
        k(   16) = (   0.0666667   0.4815065   0.0000000), wk =   0.0355556
        k(   17) = (   0.1333333   0.0000000   0.0000000), wk =   0.0177778
        k(   18) = (   0.1333333   0.0687866   0.0000000), wk =   0.0355556
        k(   19) = (   0.1333333   0.1375733   0.0000000), wk =   0.0355556
        k(   20) = (   0.1333333   0.2063599   0.0000000), wk =   0.0355556
        k(   21) = (   0.1333333   0.2751466   0.0000000), wk =   0.0355556
        k(   22) = (   0.1333333   0.3439332   0.0000000), wk =   0.0355556
        k(   23) = (   0.1333333   0.4127199   0.0000000), wk =   0.0355556
        k(   24) = (   0.1333333   0.4815065   0.0000000), wk =   0.0355556
        k(   25) = (   0.2000000   0.0000000   0.0000000), wk =   0.0177778
        k(   26) = (   0.2000000   0.0687866   0.0000000), wk =   0.0355556
        k(   27) = (   0.2000000   0.1375733   0.0000000), wk =   0.0355556
        k(   28) = (   0.2000000   0.2063599   0.0000000), wk =   0.0355556
        k(   29) = (   0.2000000   0.2751466   0.0000000), wk =   0.0355556
        k(   30) = (   0.2000000   0.3439332   0.0000000), wk =   0.0355556
        k(   31) = (   0.2000000   0.4127199   0.0000000), wk =   0.0355556
        k(   32) = (   0.2000000   0.4815065   0.0000000), wk =   0.0355556
        k(   33) = (   0.2666667   0.0000000   0.0000000), wk =   0.0177778
        k(   34) = (   0.2666667   0.0687866   0.0000000), wk =   0.0355556
        k(   35) = (   0.2666667   0.1375733   0.0000000), wk =   0.0355556
        k(   36) = (   0.2666667   0.2063599   0.0000000), wk =   0.0355556
        k(   37) = (   0.2666667   0.2751466   0.0000000), wk =   0.0355556
        k(   38) = (   0.2666667   0.3439332   0.0000000), wk =   0.0355556
        k(   39) = (   0.2666667   0.4127199   0.0000000), wk =   0.0355556
        k(   40) = (   0.2666667   0.4815065   0.0000000), wk =   0.0355556
        k(   41) = (   0.3333333   0.0000000   0.0000000), wk =   0.0177778
        k(   42) = (   0.3333333   0.0687866   0.0000000), wk =   0.0355556
        k(   43) = (   0.3333333   0.1375733   0.0000000), wk =   0.0355556
        k(   44) = (   0.3333333   0.2063599   0.0000000), wk =   0.0355556
        k(   45) = (   0.3333333   0.2751466   0.0000000), wk =   0.0355556
        k(   46) = (   0.3333333   0.3439332   0.0000000), wk =   0.0355556
        k(   47) = (   0.3333333   0.4127199   0.0000000), wk =   0.0355556
        k(   48) = (   0.3333333   0.4815065   0.0000000), wk =   0.0355556
        k(   49) = (   0.4000000   0.0000000   0.0000000), wk =   0.0177778
        k(   50) = (   0.4000000   0.0687866   0.0000000), wk =   0.0355556
        k(   51) = (   0.4000000   0.1375733   0.0000000), wk =   0.0355556
        k(   52) = (   0.4000000   0.2063599   0.0000000), wk =   0.0355556
        k(   53) = (   0.4000000   0.2751466   0.0000000), wk =   0.0355556
        k(   54) = (   0.4000000   0.3439332   0.0000000), wk =   0.0355556
        k(   55) = (   0.4000000   0.4127199   0.0000000), wk =   0.0355556
        k(   56) = (   0.4000000   0.4815065   0.0000000), wk =   0.0355556
        k(   57) = (   0.4666667   0.0000000   0.0000000), wk =   0.0177778
        k(   58) = (   0.4666667   0.0687866   0.0000000), wk =   0.0355556
        k(   59) = (   0.4666667   0.1375733   0.0000000), wk =   0.0355556
        k(   60) = (   0.4666667   0.2063599   0.0000000), wk =   0.0355556
        k(   61) = (   0.4666667   0.2751466   0.0000000), wk =   0.0355556
        k(   62) = (   0.4666667   0.3439332   0.0000000), wk =   0.0355556
        k(   63) = (   0.4666667   0.4127199   0.0000000), wk =   0.0355556
        k(   64) = (   0.4666667   0.4815065   0.0000000), wk =   0.0355556

     Dense  grid:   635589 G-vectors     FFT dimensions: (  72,  64, 300)

     Smooth grid:   247307 G-vectors     FFT dimensions: (  48,  48, 216)

     Estimated max dynamical RAM per process >     128.81 MB

     Estimated total dynamical RAM >       3.02 GB

     Initial potential from superposition of free atoms

     starting charge   37.99977, renormalised to   40.00000

     negative rho (up, down):  2.849E-03 0.000E+00
     Starting wfcs are   26 randomized atomic wfcs

     total cpu time spent up to now is        2.6 secs

     Self-consistent Calculation

     iteration #  1     ecut=    80.00 Ry     beta= 0.70
     Davidson diagonalization with overlap
     ethr =  1.00E-02,  avg # of iterations =  3.9

     negative rho (up, down):  5.701E-04 0.000E+00

     total cpu time spent up to now is        7.6 secs

     total energy              =    -413.24007399 Ry
     estimated scf accuracy    <       1.35034724 Ry

     iteration #  2     ecut=    80.00 Ry     beta= 0.70
     Davidson diagonalization with overlap
     ethr =  3.38E-03,  avg # of iterations =  2.2

     negative rho (up, down):  1.132E-04 0.000E+00

     total cpu time spent up to now is       12.5 secs

     total energy              =    -413.63493515 Ry
     estimated scf accuracy    <       0.67825223 Ry

     iteration #  3     ecut=    80.00 Ry     beta= 0.70
     Davidson diagonalization with overlap
     ethr =  1.70E-03,  avg # of iterations =  2.0

     negative rho (up, down):  2.593E-05 0.000E+00

     total cpu time spent up to now is       16.7 secs

     total energy              =    -413.79960628 Ry
     estimated scf accuracy    <       0.02413365 Ry

     iteration #  4     ecut=    80.00 Ry     beta= 0.70
     Davidson diagonalization with overlap
     ethr =  6.03E-05,  avg # of iterations =  2.9

     negative rho (up, down):  2.779E-05 0.000E+00

     total cpu time spent up to now is       21.0 secs

     total energy              =    -413.80359853 Ry
     estimated scf accuracy    <       0.00092488 Ry

     iteration #  5     ecut=    80.00 Ry     beta= 0.70
     Davidson diagonalization with overlap
     ethr =  2.31E-06,  avg # of iterations =  6.7

     negative rho (up, down):  2.856E-05 0.000E+00

     total cpu time spent up to now is       26.4 secs

     total energy              =    -413.80379972 Ry
     estimated scf accuracy    <       0.00056188 Ry

     iteration #  6     ecut=    80.00 Ry     beta= 0.70
     Davidson diagonalization with overlap
     ethr =  1.40E-06,  avg # of iterations =  2.3

     negative rho (up, down):  2.838E-05 0.000E+00

     total cpu time spent up to now is       30.5 secs

     total energy              =    -413.80386467 Ry
     estimated scf accuracy    <       0.00011366 Ry

     iteration #  7     ecut=    80.00 Ry     beta= 0.70
     Davidson diagonalization with overlap
     ethr =  2.84E-07,  avg # of iterations =  2.7

     negative rho (up, down):  2.818E-05 0.000E+00

     total cpu time spent up to now is       34.7 secs

     total energy              =    -413.80387307 Ry
     estimated scf accuracy    <       0.00006364 Ry

     iteration #  8     ecut=    80.00 Ry     beta= 0.70
     Davidson diagonalization with overlap
     ethr =  1.59E-07,  avg # of iterations =  2.1

     negative rho (up, down):  2.844E-05 0.000E+00

     total cpu time spent up to now is       38.8 secs

     total energy              =    -413.80388359 Ry
     estimated scf accuracy    <       0.00000014 Ry

     iteration #  9     ecut=    80.00 Ry     beta= 0.70
     Davidson diagonalization with overlap
     ethr =  3.43E-10,  avg # of iterations = 10.7

     negative rho (up, down):  2.861E-05 0.000E+00

     total cpu time spent up to now is       49.7 secs

     total energy              =    -413.80388574 Ry
     estimated scf accuracy    <       0.00000027 Ry

     iteration # 10     ecut=    80.00 Ry     beta= 0.70
     Davidson diagonalization with overlap
     ethr =  3.43E-10,  avg # of iterations =  2.1

     negative rho (up, down):  2.861E-05 0.000E+00

     total cpu time spent up to now is       53.8 secs

     total energy              =    -413.80388579 Ry
     estimated scf accuracy    <          3.3E-09 Ry

     iteration # 11     ecut=    80.00 Ry     beta= 0.70
     Davidson diagonalization with overlap
     ethr =  8.35E-12,  avg # of iterations =  3.8

     negative rho (up, down):  2.861E-05 0.000E+00

     total cpu time spent up to now is       58.4 secs

     total energy              =    -413.80388579 Ry
     estimated scf accuracy    <          6.0E-10 Ry

     iteration # 12     ecut=    80.00 Ry     beta= 0.70
     Davidson diagonalization with overlap
     ethr =  1.49E-12,  avg # of iterations =  2.3

     negative rho (up, down):  2.861E-05 0.000E+00

     total cpu time spent up to now is       62.6 secs

     End of self-consistent calculation

          k = 0.0000 0.0000 0.0000 ( 30959 PWs)   bands (ev):

   -22.2291 -22.2219 -22.2213 -22.2148 -22.2132 -22.1891 -22.1861 -22.1832
   -22.1743 -22.1703 -14.2150 -13.2033  -7.2119  -6.2058  -4.3540  -4.0024
    -3.9019  -2.7578  -2.7235  -1.5282   0.6016   2.3728   2.8323   2.9706

          k = 0.0000 0.0688 0.0000 ( 30981 PWs)   bands (ev):

   -22.2286 -22.2217 -22.2215 -22.2156 -22.2124 -22.1892 -22.1861 -22.1829
   -22.1746 -22.1703 -14.1955 -13.1995  -7.2735  -6.2809  -4.3531  -3.9850
    -3.8435  -2.7716  -2.6016  -1.5421   0.6149   2.4507   2.7734   2.8411

          k = 0.0000 0.1376 0.0000 ( 30943 PWs)   bands (ev):

   -22.2272 -22.2224 -22.2205 -22.2171 -22.2109 -22.1895 -22.1861 -22.1822
   -22.1754 -22.1704 -14.1378 -13.1901  -7.4378  -6.4911  -4.3276  -3.9132
    -3.6986  -2.7286  -2.3561  -1.5883   0.6602   2.2679   2.5505   2.6067

          k = 0.0000 0.2064 0.0000 ( 30959 PWs)   bands (ev):

   -22.2253 -22.2236 -22.2190 -22.2187 -22.2089 -22.1902 -22.1860 -22.1810
   -22.1765 -22.1706 -14.0454 -13.1817  -7.6557  -6.7941  -4.2478  -3.7800
    -3.5012  -2.6478  -2.0373  -1.6730   0.7503   1.6232   2.0887   2.5734

          k = 0.0000 0.2751 0.0000 ( 30913 PWs)   bands (ev):

   -22.2250 -22.2239 -22.2196 -22.2175 -22.2066 -22.1911 -22.1858 -22.1796
   -22.1780 -22.1709 -13.9240 -13.1844  -7.8721  -7.1371  -4.1074  -3.5940
    -3.2816  -2.5581  -1.7840  -1.6823   0.8978   0.9791   1.6100   2.2081

          k = 0.0000 0.3439 0.0000 ( 30885 PWs)   bands (ev):

   -22.2261 -22.2245 -22.2187 -22.2162 -22.2039 -22.1924 -22.1853 -22.1795
   -22.1780 -22.1715 -13.7823 -13.2098  -8.0396  -7.4729  -3.9154  -3.3738
    -3.0910  -2.4973  -1.8640  -1.3311   0.4051   1.1022   1.2228   1.6911

          k = 0.0000 0.4127 0.0000 ( 30841 PWs)   bands (ev):

   -22.2269 -22.2258 -22.2171 -22.2154 -22.2011 -22.1940 -22.1846 -22.1810
   -22.1763 -22.1722 -13.6319 -13.2677  -8.1236  -7.7641  -3.6877  -3.1860
    -2.9809  -2.5089  -1.8022  -1.1047   0.0426   1.0049   1.0743   1.4252

          k = 0.0000 0.4815 0.0000 ( 30842 PWs)   bands (ev):

   -22.2272 -22.2268 -22.2159 -22.2153 -22.1985 -22.1961 -22.1836 -22.1823
   -22.1747 -22.1733 -13.4869 -13.3617  -8.1054  -7.9819  -3.4477  -3.2400
    -2.8067  -2.6187  -1.5555  -1.2365   0.1446   0.5655   0.9983   1.1949

          k = 0.0667 0.0000 0.0000 ( 30941 PWs)   bands (ev):

   -22.2289 -22.2218 -22.2215 -22.2151 -22.2127 -22.1891 -22.1859 -22.1831
   -22.1744 -22.1705 -14.1974 -13.2024  -7.2783  -6.2877  -4.3505  -3.9311
    -3.8722  -2.7039  -2.6505  -1.5483   0.6148   2.4176   2.6772   2.9474

          k = 0.0667 0.0688 0.0000 ( 30960 PWs)   bands (ev):

   -22.2284 -22.2218 -22.2214 -22.2159 -22.2119 -22.1893 -22.1860 -22.1828
   -22.1747 -22.1705 -14.1780 -13.1984  -7.3298  -6.3539  -4.3436  -4.0611
    -3.6770  -2.8309  -2.4338  -1.5593   0.6298   2.4086   2.4852   2.9279

          k = 0.0667 0.1376 0.0000 ( 30962 PWs)   bands (ev):

   -22.2270 -22.2227 -22.2203 -22.2174 -22.2103 -22.1896 -22.1861 -22.1820
   -22.1755 -22.1706 -14.1207 -13.1887  -7.4708  -6.5422  -4.3097  -4.1261
    -3.4227  -2.8791  -2.1409  -1.5957   0.6788   1.8534   2.5728   2.8250

          k = 0.0667 0.2064 0.0000 ( 30932 PWs)   bands (ev):

   -22.2252 -22.2239 -22.2190 -22.2188 -22.2084 -22.1902 -22.1861 -22.1808
   -22.1767 -22.1707 -14.0289 -13.1798  -7.6644  -6.8206  -4.2278  -4.0920
    -3.1658  -2.8418  -1.8413  -1.6596   0.7718   1.2634   2.2993   2.4436

          k = 0.0667 0.2751 0.0000 ( 30899 PWs)   bands (ev):

   -22.2253 -22.2241 -22.2197 -22.2173 -22.2061 -22.1911 -22.1858 -22.1794
   -22.1781 -22.1710 -13.9084 -13.1816  -7.8627  -7.1435  -4.0901  -3.9659
    -2.9461  -2.7559  -1.7297  -1.5844   0.7592   0.9139   1.7621   1.9659

          k = 0.0667 0.3439 0.0000 ( 30892 PWs)   bands (ev):

   -22.2265 -22.2250 -22.2184 -22.2160 -22.2035 -22.1924 -22.1854 -22.1796
   -22.1778 -22.1715 -13.7681 -13.2057  -8.0192  -7.4648  -3.9033  -3.7668
    -2.8310  -2.6782  -1.7398  -1.4232   0.4288   1.0181   1.3169   1.5309

          k = 0.0667 0.4127 0.0000 ( 30861 PWs)   bands (ev):

   -22.2273 -22.2263 -22.2168 -22.2152 -22.2008 -22.1940 -22.1846 -22.1811
   -22.1761 -22.1722 -13.6194 -13.2618  -8.0980  -7.7464  -3.6835  -3.5296
    -2.8675  -2.6863  -1.6335  -1.3688   0.2822   0.6698   1.2807   1.4672

          k = 0.0667 0.4815 0.0000 ( 30819 PWs)   bands (ev):

   -22.2276 -22.2273 -22.2156 -22.2150 -22.1983 -22.1960 -22.1836 -22.1824
   -22.1746 -22.1732 -13.4765 -13.3535  -8.0789  -7.9582  -3.4643  -3.3630
    -2.9359  -2.8160  -1.4768  -1.3813   0.2416   0.3570   1.3372   1.6381

          k = 0.1333 0.0000 0.0000 ( 30936 PWs)   bands (ev):

   -22.2283 -22.2219 -22.2214 -22.2160 -22.2110 -22.1893 -22.1854 -22.1829
   -22.1747 -22.1711 -14.1456 -13.2015  -7.4507  -6.5103  -4.3189  -3.7842
    -3.7405  -2.6487  -2.3712  -1.6103   0.6605   2.2039   2.4987   2.6823

          k = 0.1333 0.0688 0.0000 ( 30934 PWs)   bands (ev):

   -22.2278 -22.2223 -22.2210 -22.2167 -22.2103 -22.1894 -22.1856 -22.1825
   -22.1750 -22.1711 -14.1265 -13.1972  -7.4795  -6.5554  -4.3031  -4.0852
    -3.4010  -2.8454  -2.1278  -1.6112   0.6793   1.8520   2.5048   2.8744

          k = 0.1333 0.1376 0.0000 ( 30957 PWs)   bands (ev):

   -22.2265 -22.2232 -22.2199 -22.2182 -22.2088 -22.1897 -22.1859 -22.1816
   -22.1759 -22.1710 -14.0702 -13.1866  -7.5640  -6.6893  -4.3188  -4.2545
    -3.0564  -3.0410  -1.8117  -1.6119   0.7366   1.3204   2.2919   2.9876

          k = 0.1333 0.2064 0.0000 ( 30935 PWs)   bands (ev):

   -22.2250 -22.2246 -22.2197 -22.2184 -22.2069 -22.1903 -22.1860 -22.1803
   -22.1771 -22.1709 -13.9803 -13.1759  -7.6927  -6.9017  -4.4306  -4.1691
    -3.1228  -2.7853  -1.6088  -1.6001   0.8295   0.8939   1.7672   2.8371

          k = 0.1333 0.2751 0.0000 ( 30914 PWs)   bands (ev):

   -22.2261 -22.2249 -22.2195 -22.2167 -22.2047 -22.1912 -22.1859 -22.1789
   -22.1785 -22.1711 -13.8628 -13.1749  -7.8378  -7.1660  -4.4115  -4.0415
    -3.1040  -2.6518  -1.6191  -1.5488   0.7169   0.8861   1.3059   2.4734

          k = 0.1333 0.3439 0.0000 ( 30902 PWs)   bands (ev):

   -22.2275 -22.2263 -22.2178 -22.2153 -22.2024 -22.1924 -22.1855 -22.1799
   -22.1773 -22.1714 -13.7265 -13.1948  -7.9602  -7.4435  -4.2747  -3.8727
    -3.0493  -2.6838  -1.7941  -1.4711   0.6286   0.7798   1.3322   2.0709

          k = 0.1333 0.4127 0.0000 ( 30864 PWs)   bands (ev):

   -22.2285 -22.2277 -22.2161 -22.2145 -22.2001 -22.1940 -22.1848 -22.1813
   -22.1757 -22.1721 -13.5832 -13.2452  -8.0225  -7.6952  -4.0470  -3.6832
    -3.0746  -2.8365  -1.9083  -1.4705   0.4296   0.8589   1.5808   1.8274

          k = 0.1333 0.4815 0.0000 ( 30839 PWs)   bands (ev):

   -22.2290 -22.2287 -22.2148 -22.2143 -22.1979 -22.1958 -22.1838 -22.1826
   -22.1742 -22.1730 -13.4465 -13.3304  -8.0008  -7.8885  -3.7724  -3.5826
    -3.1630  -3.0378  -1.8157  -1.6157   0.4880   0.7079   1.8778   1.9339

          k = 0.2000 0.0000 0.0000 ( 30926 PWs)   bands (ev):

   -22.2274 -22.2225 -22.2210 -22.2173 -22.2085 -22.1896 -22.1846 -22.1825
   -22.1751 -22.1721 -14.0623 -13.2059  -7.6705  -6.8197  -4.2339  -3.6414
    -3.4813  -2.5687  -1.9951  -1.7128   0.7523   1.6126   2.1915   2.4517

          k = 0.2000 0.0688 0.0000 ( 30943 PWs)   bands (ev):

   -22.2269 -22.2230 -22.2205 -22.2180 -22.2079 -22.1897 -22.1849 -22.1820
   -22.1755 -22.1719 -14.0438 -13.2011  -7.6766  -6.8419  -4.2143  -4.0164
    -3.1074  -2.7939  -1.7839  -1.6902   0.7747   1.2823   2.2556   2.5007

          k = 0.2000 0.1376 0.0000 ( 30945 PWs)   bands (ev):

   -22.2258 -22.2241 -22.2194 -22.2193 -22.2065 -22.1900 -22.1855 -22.1809
   -22.1765 -22.1716 -13.9895 -13.1887  -7.6983  -6.9123  -4.3939  -4.1587
    -3.1094  -2.7531  -1.6085  -1.5624   0.8340   0.9092   1.7679   2.8646

          k = 0.2000 0.2064 0.0000 ( 30946 PWs)   bands (ev):

   -22.2256 -22.2252 -22.2201 -22.2177 -22.2048 -22.1906 -22.1859 -22.1795
   -22.1778 -22.1713 -13.9030 -13.1749  -7.7423  -7.0372  -4.6545  -4.0754
    -3.3238  -2.5706  -1.6251  -1.4590   0.8363   0.8558   1.3214   3.0033

          k = 0.2000 0.2751 0.0000 ( 30937 PWs)   bands (ev):

   -22.2274 -22.2263 -22.2188 -22.2160 -22.2028 -22.1914 -22.1860 -22.1791
   -22.1781 -22.1713 -13.7905 -13.1688  -7.8062  -7.2129  -4.7653  -3.9718
    -3.4069  -2.5661  -1.9470  -1.3354   0.6372   1.0594   1.3059   2.7990

          k = 0.2000 0.3439 0.0000 ( 30923 PWs)   bands (ev):

   -22.2291 -22.2281 -22.2168 -22.2145 -22.2009 -22.1926 -22.1856 -22.1804
   -22.1766 -22.1715 -13.6612 -13.1814  -7.8702  -7.4174  -4.7223  -3.8458
    -3.4211  -2.6850  -2.2997  -1.4015   0.5318   1.3906   1.5135   2.4792

          k = 0.2000 0.4127 0.0000 ( 30906 PWs)   bands (ev):

   -22.2303 -22.2297 -22.2150 -22.2135 -22.1990 -22.1940 -22.1849 -22.1816
   -22.1751 -22.1719 -13.5269 -13.2223  -7.9023  -7.6168  -4.5458  -3.7486
    -3.4731  -2.8809  -2.4397  -1.6705   0.6898   1.5727   1.7878   2.2779

          k = 0.2000 0.4815 0.0000 ( 30880 PWs)   bands (ev):

   -22.2309 -22.2307 -22.2138 -22.2133 -22.1973 -22.1956 -22.1839 -22.1828
   -22.1738 -22.1727 -13.4009 -13.2963  -7.8750  -7.7773  -4.2699  -3.9492
    -3.3496  -3.1165  -2.2981  -2.0065   0.9981   1.3494   2.0842   2.2985

          k = 0.2667 0.0000 0.0000 ( 30956 PWs)   bands (ev):

   -22.2262 -22.2232 -22.2206 -22.2189 -22.2054 -22.1901 -22.1836 -22.1819
   -22.1758 -22.1732 -13.9527 -13.2236  -7.8805  -7.1592  -4.0922  -3.4506
    -3.2123  -2.4850  -1.8303  -1.5785   0.9028   1.0052   1.7243   2.1561

          k = 0.2667 0.0688 0.0000 ( 30976 PWs)   bands (ev):

   -22.2258 -22.2237 -22.2202 -22.2194 -22.2049 -22.1902 -22.1841 -22.1812
   -22.1763 -22.1729 -13.9351 -13.2179  -7.8697  -7.1627  -4.0731  -3.8673
    -2.8643  -2.7116  -1.7555  -1.4635   0.7936   0.9240   1.7673   2.0514

          k = 0.2667 0.1376 0.0000 ( 30945 PWs)   bands (ev):

   -22.2253 -22.2250 -22.2203 -22.2189 -22.2038 -22.1905 -22.1850 -22.1800
   -22.1774 -22.1724 -13.8836 -13.2028  -7.8412  -7.1779  -4.3498  -4.0202
    -3.1026  -2.6128  -1.5309  -1.5046   0.7501   0.9175   1.3047   2.5212

          k = 0.2667 0.2064 0.0000 ( 30941 PWs)   bands (ev):

   -22.2268 -22.2260 -22.2198 -22.2171 -22.2022 -22.1910 -22.1855 -22.1786
   -22.1786 -22.1719 -13.8020 -13.1839  -7.8061  -7.2166  -4.7390  -3.9500
    -3.4309  -2.5574  -1.8804  -1.3091   0.6622   1.0882   1.3047   2.8095

          k = 0.2667 0.2751 0.0000 ( 30931 PWs)   bands (ev):

   -22.2289 -22.2280 -22.2179 -22.2153 -22.2007 -22.1918 -22.1857 -22.1798
   -22.1772 -22.1716 -13.6971 -13.1702  -7.7781  -7.2905  -4.9850  -3.9003
    -3.6163  -2.6258  -2.3636  -1.3537   0.6009   1.5162   1.5907   2.7962

          k = 0.2667 0.3439 0.0000 ( 30962 PWs)   bands (ev):

   -22.2308 -22.2302 -22.2157 -22.2136 -22.1992 -22.1928 -22.1855 -22.1809
   -22.1757 -22.1716 -13.5780 -13.1721  -7.7629  -7.3987  -5.0600  -3.8704
    -3.7324  -2.7840  -2.7222  -1.6555   0.8244   1.8014   2.0879   2.6091

          k = 0.2667 0.4127 0.0000 ( 30924 PWs)   bands (ev):

   -22.2323 -22.2319 -22.2139 -22.2125 -22.1979 -22.1941 -22.1848 -22.1819
   -22.1744 -22.1718 -13.4566 -13.1993  -7.7480  -7.5224  -4.9654  -4.0223
    -3.7477  -3.0153  -2.7794  -2.0200   1.1598   2.1259   2.2058   2.6076

          k = 0.2667 0.4815 0.0000 ( 30942 PWs)   bands (ev):

   -22.2330 -22.2329 -22.2126 -22.2122 -22.1966 -22.1953 -22.1839 -22.1829
   -22.1733 -22.1724 -13.3459 -13.2576  -7.7099  -7.6334  -4.7284  -4.3914
    -3.5495  -3.2876  -2.6156  -2.3497   1.5231   1.8857   2.4471   2.6754

          k = 0.3333 0.0000 0.0000 ( 31016 PWs)   bands (ev):

   -22.2249 -22.2237 -22.2205 -22.2205 -22.2021 -22.1909 -22.1824 -22.1811
   -22.1766 -22.1746 -13.8239 -13.2632  -8.0372  -7.4844  -3.9019  -3.2229
    -3.0223  -2.4304  -1.8810  -1.1709   0.4505   1.1162   1.3591   1.6969

          k = 0.3333 0.0688 0.0000 ( 30977 PWs)   bands (ev):

   -22.2247 -22.2243 -22.2208 -22.2200 -22.2017 -22.1910 -22.1832 -22.1802
   -22.1772 -22.1741 -13.8076 -13.2562  -8.0160  -7.4745  -3.8858  -3.6578
    -2.7721  -2.6492  -1.7130  -1.2326   0.4639   1.0837   1.3017   1.6532

          k = 0.3333 0.1376 0.0000 ( 30971 PWs)   bands (ev):

   -22.2258 -22.2252 -22.2207 -22.2186 -22.2008 -22.1912 -22.1842 -22.1789
   -22.1784 -22.1733 -13.7600 -13.2371  -7.9551  -7.4483  -4.2030  -3.8426
    -3.0830  -2.6664  -1.6078  -1.3949   0.6945   0.8314   1.3184   2.1464

          k = 0.3333 0.2064 0.0000 ( 30946 PWs)   bands (ev):

   -22.2279 -22.2271 -22.2191 -22.2168 -22.1997 -22.1916 -22.1849 -22.1795
   -22.1775 -22.1726 -13.6852 -13.2111  -7.8635  -7.4166  -4.6862  -3.7968
    -3.5018  -2.6789  -2.1603  -1.3391   0.5863   1.4603   1.5166   2.4912

          k = 0.3333 0.2751 0.0000 ( 30948 PWs)   bands (ev):

   -22.2303 -22.2297 -22.2169 -22.2147 -22.1985 -22.1923 -22.1852 -22.1806
   -22.1762 -22.1721 -13.5903 -13.1869  -7.7570  -7.3951  -5.0501  -3.8819
    -3.7411  -2.7766  -2.6582  -1.6317   0.8557   1.8153   2.1459   2.6042

          k = 0.3333 0.3439 0.0000 ( 30937 PWs)   bands (ev):

   -22.2325 -22.2321 -22.2146 -22.2130 -22.1976 -22.1932 -22.1850 -22.1814
   -22.1749 -22.1718 -13.4847 -13.1745  -7.6570  -7.3979  -5.2518  -4.0887
    -3.9050  -2.9747  -2.8983  -1.9966   1.2234   2.1960   2.5469   2.7940

          k = 0.3333 0.4127 0.0000 ( 30950 PWs)   bands (ev):

   -22.2342 -22.2340 -22.2128 -22.2118 -22.1968 -22.1942 -22.1845 -22.1822
   -22.1737 -22.1718 -13.3803 -13.1841  -7.5796  -7.4274  -5.2662  -4.4107
    -3.9738  -3.2667  -2.8659  -2.2926   1.5707   2.3969   2.6025   3.2188

          k = 0.3333 0.4815 0.0000 ( 30931 PWs)   bands (ev):

   -22.2351 -22.2350 -22.2116 -22.2113 -22.1960 -22.1952 -22.1837 -22.1829
   -22.1728 -22.1721 -13.2893 -13.2220  -7.5225  -7.4727  -5.1009  -4.7949
    -3.8396  -3.5824  -2.7174  -2.5237   1.8855   2.1658   2.9659   3.2171

          k = 0.4000 0.0000 0.0000 ( 30960 PWs)   bands (ev):

   -22.2239 -22.2236 -22.2220 -22.2208 -22.1989 -22.1921 -22.1811 -22.1801
   -22.1776 -22.1760 -13.6858 -13.3311  -8.1118  -7.7630  -3.6751  -3.0228
    -2.9766  -2.4438  -1.7433  -0.9069   0.0973   1.1573   1.1742   1.3992

          k = 0.4000 0.0688 0.0000 ( 30976 PWs)   bands (ev):

   -22.2246 -22.2240 -22.2217 -22.2202 -22.1987 -22.1921 -22.1820 -22.1791
   -22.1783 -22.1753 -13.6711 -13.3224  -8.0855  -7.7439  -3.6645  -3.4203
    -2.8582  -2.6692  -1.5279  -1.1348   0.3174   0.7620   1.4310   1.4390

          k = 0.4000 0.1376 0.0000 ( 30954 PWs)   bands (ev):

   -22.2263 -22.2257 -22.2204 -22.2187 -22.1981 -22.1922 -22.1832 -22.1795
   -22.1778 -22.1743 -13.6285 -13.2980  -8.0086  -7.6893  -3.9788  -3.6423
    -3.1383  -2.8409  -1.6791  -1.3373   0.5094   0.9248   1.5646   1.9210

          k = 0.4000 0.2064 0.0000 ( 30957 PWs)   bands (ev):

   -22.2287 -22.2282 -22.2183 -22.2167 -22.1973 -22.1925 -22.1840 -22.1806
   -22.1765 -22.1734 -13.5623 -13.2630  -7.8870  -7.6069  -4.5165  -3.7222
    -3.5415  -2.8747  -2.2669  -1.5792   0.7718   1.6796   1.7967   2.2829

          k = 0.4000 0.2751 0.0000 ( 30931 PWs)   bands (ev):

   -22.2313 -22.2310 -22.2160 -22.2146 -22.1967 -22.1930 -22.1844 -22.1814
   -22.1752 -22.1727 -13.4798 -13.2255  -7.7330  -7.5103  -4.9638  -4.1177
    -3.6575  -2.9899  -2.7069  -1.9839   1.2119   2.1677   2.2651   2.6697

          k = 0.4000 0.3439 0.0000 ( 30940 PWs)   bands (ev):

   -22.2338 -22.2336 -22.2137 -22.2127 -22.1962 -22.1937 -22.1843 -22.1820
   -22.1741 -22.1722 -13.3910 -13.1958  -7.5694  -7.4183  -5.2752  -4.4810
    -3.8896  -3.2406  -2.8568  -2.2889   1.5867   2.4018   2.6446   3.3566

          k = 0.4000 0.4127 0.0000 ( 30970 PWs)   bands (ev):

   -22.2356 -22.2355 -22.2120 -22.2113 -22.1959 -22.1944 -22.1839 -22.1825
   -22.1731 -22.1719 -13.3072 -13.1839  -7.4297  -7.3508  -5.4117  -4.8150
    -4.0874  -3.5818  -2.8154  -2.4668   1.8849   2.3949   3.1012   3.6989

          k = 0.4000 0.4815 0.0000 ( 30944 PWs)   bands (ev):

   -22.2367 -22.2366 -22.2109 -22.2107 -22.1955 -22.1951 -22.1834 -22.1829
   -22.1724 -22.1720 -13.2399 -13.1977  -7.3452  -7.3225  -5.3538  -5.1303
    -4.0838  -3.8930  -2.7127  -2.5951   2.1233   2.2972   3.4480   3.6610

          k = 0.4667 0.0000 0.0000 ( 30918 PWs)   bands (ev):

   -22.2237 -22.2231 -22.2224 -22.2214 -22.1961 -22.1938 -22.1799 -22.1788
   -22.1787 -22.1774 -13.5499 -13.4284  -8.0900  -7.9706  -3.4291  -3.1922
    -2.7397  -2.5502  -1.4292  -1.0653   0.2375   0.6709   1.1542   1.3441

          k = 0.4667 0.0688 0.0000 ( 30937 PWs)   bands (ev):

   -22.2246 -22.2242 -22.2214 -22.2207 -22.1960 -22.1938 -22.1808 -22.1795
   -22.1779 -22.1766 -13.5371 -13.4176  -8.0629  -7.9460  -3.4324  -3.2789
    -2.9426  -2.7999  -1.3057  -1.1599   0.3012   0.4433   1.4839   1.6852

          k = 0.4667 0.1376 0.0000 ( 30965 PWs)   bands (ev):

   -22.2265 -22.2262 -22.2197 -22.2191 -22.1957 -22.1937 -22.1820 -22.1807
   -22.1766 -22.1754 -13.5003 -13.3871  -7.9830  -7.8738  -3.7151  -3.5239
    -3.2221  -3.0611  -1.6004  -1.4375   0.5754   0.7901   1.8488   1.9762

          k = 0.4667 0.2064 0.0000 ( 30980 PWs)   bands (ev):

   -22.2291 -22.2289 -22.2175 -22.2170 -22.1953 -22.1937 -22.1829 -22.1817
   -22.1754 -22.1743 -13.4442 -13.3417  -7.8550  -7.7594  -4.2611  -3.9651
    -3.3439  -3.1065  -2.1487  -1.8881   1.0957   1.4533   2.0934   2.3003

          k = 0.4667 0.2751 0.0000 ( 30956 PWs)   bands (ev):

   -22.2318 -22.2317 -22.2152 -22.2147 -22.1951 -22.1939 -22.1834 -22.1824
   -22.1743 -22.1734 -13.3763 -13.2893  -7.6891  -7.6138  -4.7503  -4.4484
    -3.4713  -3.2351  -2.5613  -2.3068   1.5800   1.9384   2.5196   2.7721

          k = 0.4667 0.3439 0.0000 ( 30958 PWs)   bands (ev):

   -22.2344 -22.2344 -22.2131 -22.2127 -22.1951 -22.1943 -22.1835 -22.1827
   -22.1733 -22.1727 -13.3066 -13.2399  -7.5044  -7.4553  -5.1326  -4.8525
    -3.7549  -3.5229  -2.7141  -2.5225   1.9036   2.1785   3.0534   3.3460

          k = 0.4667 0.4127 0.0000 ( 30973 PWs)   bands (ev):

   -22.2364 -22.2364 -22.2114 -22.2112 -22.1952 -22.1947 -22.1833 -22.1828
   -22.1726 -22.1722 -13.2462 -13.2041  -7.3354  -7.3131  -5.3740  -5.1593
    -4.0456  -3.8638  -2.7154  -2.5982   2.1279   2.3008   3.4815   3.7040

          k = 0.4667 0.4815 0.0000 ( 30951 PWs)   bands (ev):

   -22.2375 -22.2375 -22.2105 -22.2104 -22.1952 -22.1951 -22.1831 -22.1829
   -22.1721 -22.1720 -13.2055 -13.1911  -7.2307  -7.2259  -5.4498  -5.3658
    -4.1836  -4.1128  -2.6771  -2.6374   2.2737   2.3328   3.7299   3.8401

     the Fermi energy is    -0.8337 ev

!    total energy              =    -413.80388579 Ry
     estimated scf accuracy    <          5.1E-11 Ry
     smearing contrib. (-TS)   =       0.00007722 Ry
     internal energy E=F+TS    =    -413.80396301 Ry

     The total energy is F=E-TS. E is the sum of the following terms:
     one-electron contribution =   -1180.35264206 Ry
     hartree contribution      =     602.32056025 Ry
     xc contribution           =    -154.40115227 Ry
     ewald contribution        =     318.62927106 Ry

     convergence has been achieved in  12 iterations

     negative rho (up, down):  2.861E-05 0.000E+00

     Forces acting on atoms (cartesian axes, Ry/au):

     atom    1 type  1   force =     0.00057579    0.00000000   -0.00040185
     atom    2 type  1   force =     0.00057744    0.00000000    0.00039904
     atom    3 type  2   force =    -0.00057730    0.00000000   -0.00024495
     atom    4 type  2   force =    -0.00057593    0.00000000    0.00024776

     Total force =     0.001331     Total SCF correction =     0.000016

     BFGS Geometry Optimization

     number of scf cycles    =   1
     number of bfgs steps    =   0

     energy   new            =    -413.8038857945 Ry

     new trust radius        =       0.0007021485 bohr
     new conv_thr            =            1.0E-10 Ry


ATOMIC_POSITIONS (crystal)
Sn            0.5840593623        0.7500000000        0.1445456259
Sn            0.0840581482        0.2500000000        0.0066001635
Se            0.0300464898        0.2500000000        0.1423127655
Se            0.5300439737        0.7500000000        0.0088314990



     Writing output data file ./wfc-out/pwscf.save/
     NEW-OLD atomic charge density approx. for the potential

     negative rho (up, down):  3.093E-05 0.000E+00

     total cpu time spent up to now is       68.3 secs

     Self-consistent Calculation

     iteration #  1     ecut=    80.00 Ry     beta= 0.70
     Davidson diagonalization with overlap
     ethr =  1.00E-06,  avg # of iterations =  2.0

     Threshold (ethr) on eigenvalues was too large:
     Diagonalizing with lowered threshold

     Davidson diagonalization with overlap
     ethr =  1.14E-10,  avg # of iterations =  6.8

     negative rho (up, down):  2.836E-05 0.000E+00

     total cpu time spent up to now is       79.1 secs

     total energy              =    -413.80388749 Ry
     estimated scf accuracy    <       0.00000007 Ry

     iteration #  2     ecut=    80.00 Ry     beta= 0.70
     Davidson diagonalization with overlap
     ethr =  1.80E-10,  avg # of iterations =  2.1

     negative rho (up, down):  2.845E-05 0.000E+00

     total cpu time spent up to now is       83.2 secs

     total energy              =    -413.80388748 Ry
     estimated scf accuracy    <       0.00000005 Ry

     iteration #  3     ecut=    80.00 Ry     beta= 0.70
     Davidson diagonalization with overlap
     ethr =  1.28E-10,  avg # of iterations =  2.0

     negative rho (up, down):  2.855E-05 0.000E+00

     total cpu time spent up to now is       87.3 secs

     total energy              =    -413.80388749 Ry
     estimated scf accuracy    <          9.1E-09 Ry

     iteration #  4     ecut=    80.00 Ry     beta= 0.70
     Davidson diagonalization with overlap
     ethr =  2.28E-11,  avg # of iterations =  2.8

     negative rho (up, down):  2.859E-05 0.000E+00

     total cpu time spent up to now is       91.5 secs

     total energy              =    -413.80388749 Ry
     estimated scf accuracy    <       0.00000002 Ry

     iteration #  5     ecut=    80.00 Ry     beta= 0.70
     Davidson diagonalization with overlap
     ethr =  2.28E-11,  avg # of iterations =  2.3

     negative rho (up, down):  2.860E-05 0.000E+00

     total cpu time spent up to now is       95.5 secs

     total energy              =    -413.80388749 Ry
     estimated scf accuracy    <          1.7E-10 Ry

     iteration #  6     ecut=    80.00 Ry     beta= 0.70
     Davidson diagonalization with overlap
     ethr =  4.16E-13,  avg # of iterations =  4.2

     negative rho (up, down):  2.861E-05 0.000E+00

     total cpu time spent up to now is      100.3 secs

     End of self-consistent calculation

          k = 0.0000 0.0000 0.0000 ( 30959 PWs)   bands (ev):

   -22.2291 -22.2218 -22.2212 -22.2147 -22.2132 -22.1890 -22.1860 -22.1830
   -22.1741 -22.1702 -14.2162 -13.2041  -7.2125  -6.2059  -4.3545  -4.0028
    -3.9032  -2.7576  -2.7244  -1.5283   0.6020   2.3704   2.8317   2.9696

          k = 0.0000 0.0688 0.0000 ( 30981 PWs)   bands (ev):

   -22.2285 -22.2216 -22.2214 -22.2155 -22.2123 -22.1891 -22.1860 -22.1828
   -22.1744 -22.1702 -14.1967 -13.2002  -7.2742  -6.2811  -4.3536  -3.9855
    -3.8446  -2.7718  -2.6020  -1.5422   0.6153   2.4484   2.7721   2.8413

          k = 0.0000 0.1376 0.0000 ( 30943 PWs)   bands (ev):

   -22.2271 -22.2224 -22.2204 -22.2170 -22.2108 -22.1895 -22.1860 -22.1820
   -22.1752 -22.1703 -14.1390 -13.1908  -7.4385  -6.4912  -4.3282  -3.9139
    -3.6995  -2.7289  -2.3564  -1.5884   0.6606   2.2676   2.5500   2.6048

          k = 0.0000 0.2064 0.0000 ( 30959 PWs)   bands (ev):

   -22.2252 -22.2236 -22.2189 -22.2186 -22.2089 -22.1901 -22.1859 -22.1809
   -22.1764 -22.1705 -14.0465 -13.1825  -7.6564  -6.7943  -4.2485  -3.7808
    -3.5021  -2.6481  -2.0376  -1.6731   0.7508   1.6231   2.0886   2.5725

          k = 0.0000 0.2751 0.0000 ( 30913 PWs)   bands (ev):

   -22.2249 -22.2239 -22.2195 -22.2174 -22.2065 -22.1910 -22.1857 -22.1795
   -22.1778 -22.1708 -13.9251 -13.1852  -7.8729  -7.1374  -4.1081  -3.5950
    -3.2825  -2.5587  -1.7841  -1.6825   0.8982   0.9791   1.6102   2.2082

          k = 0.0000 0.3439 0.0000 ( 30885 PWs)   bands (ev):

   -22.2261 -22.2244 -22.2186 -22.2161 -22.2038 -22.1923 -22.1852 -22.1794
   -22.1778 -22.1713 -13.7834 -13.2107  -8.0403  -7.4733  -3.9162  -3.3750
    -3.0919  -2.4981  -1.8641  -1.3314   0.4054   1.1027   1.2234   1.6916

          k = 0.0000 0.4127 0.0000 ( 30841 PWs)   bands (ev):

   -22.2268 -22.2257 -22.2170 -22.2153 -22.2010 -22.1939 -22.1844 -22.1808
   -22.1762 -22.1721 -13.6330 -13.2686  -8.1244  -7.7646  -3.6885  -3.1873
    -2.9817  -2.5099  -1.8024  -1.1052   0.0432   1.0058   1.0748   1.4259

          k = 0.0000 0.4815 0.0000 ( 30842 PWs)   bands (ev):

   -22.2271 -22.2267 -22.2158 -22.2152 -22.1984 -22.1960 -22.1834 -22.1822
   -22.1746 -22.1732 -13.4879 -13.3626  -8.1060  -7.9825  -3.4486  -3.2410
    -2.8077  -2.6198  -1.5559  -1.2370   0.1453   0.5660   0.9993   1.1959

          k = 0.0667 0.0000 0.0000 ( 30941 PWs)   bands (ev):

   -22.2288 -22.2217 -22.2214 -22.2150 -22.2126 -22.1891 -22.1858 -22.1830
   -22.1742 -22.1704 -14.1986 -13.2032  -7.2790  -6.2878  -4.3510  -3.9315
    -3.8735  -2.7048  -2.6503  -1.5484   0.6153   2.4152   2.6759   2.9474

          k = 0.0667 0.0688 0.0000 ( 30960 PWs)   bands (ev):

   -22.2283 -22.2217 -22.2213 -22.2158 -22.2118 -22.1892 -22.1858 -22.1827
   -22.1745 -22.1704 -14.1792 -13.1992  -7.3305  -6.3540  -4.3441  -4.0618
    -3.6779  -2.8313  -2.4340  -1.5594   0.6302   2.4079   2.4828   2.9278

          k = 0.0667 0.1376 0.0000 ( 30962 PWs)   bands (ev):

   -22.2269 -22.2226 -22.2202 -22.2173 -22.2103 -22.1895 -22.1859 -22.1819
   -22.1753 -22.1704 -14.1218 -13.1895  -7.4715  -6.5423  -4.3103  -4.1269
    -3.4236  -2.8794  -2.1413  -1.5958   0.6793   1.8531   2.5710   2.8244

          k = 0.0667 0.2064 0.0000 ( 30932 PWs)   bands (ev):

   -22.2251 -22.2238 -22.2189 -22.2187 -22.2083 -22.1901 -22.1859 -22.1807
   -22.1766 -22.1706 -14.0300 -13.1806  -7.6652  -6.8209  -4.2285  -4.0928
    -3.1668  -2.8422  -1.8416  -1.6598   0.7723   1.2635   2.2991   2.4434

          k = 0.0667 0.2751 0.0000 ( 30899 PWs)   bands (ev):

   -22.2252 -22.2241 -22.2196 -22.2172 -22.2060 -22.1910 -22.1857 -22.1793
   -22.1780 -22.1708 -13.9096 -13.1824  -7.8635  -7.1438  -4.0909  -3.9667
    -2.9471  -2.7563  -1.7299  -1.5848   0.7595   0.9144   1.7625   1.9659

          k = 0.0667 0.3439 0.0000 ( 30892 PWs)   bands (ev):

   -22.2264 -22.2249 -22.2183 -22.2159 -22.2034 -22.1923 -22.1853 -22.1795
   -22.1777 -22.1713 -13.7692 -13.2065  -8.0199  -7.4652  -3.9041  -3.7677
    -2.8320  -2.6788  -1.7400  -1.4237   0.4293   1.0185   1.3177   1.5313

          k = 0.0667 0.4127 0.0000 ( 30861 PWs)   bands (ev):

   -22.2273 -22.2262 -22.2167 -22.2151 -22.2008 -22.1939 -22.1845 -22.1809
   -22.1760 -22.1721 -13.6205 -13.2627  -8.0987  -7.7469  -3.6844  -3.5306
    -2.8684  -2.6872  -1.6338  -1.3692   0.2827   0.6705   1.2813   1.4678

          k = 0.0667 0.4815 0.0000 ( 30819 PWs)   bands (ev):

   -22.2276 -22.2272 -22.2155 -22.2149 -22.1982 -22.1959 -22.1835 -22.1823
   -22.1744 -22.1731 -13.4775 -13.3544  -8.0796  -7.9588  -3.4653  -3.3641
    -2.9366  -2.8169  -1.4773  -1.3817   0.2422   0.3577   1.3380   1.6388

          k = 0.1333 0.0000 0.0000 ( 30936 PWs)   bands (ev):

   -22.2282 -22.2218 -22.2213 -22.2159 -22.2109 -22.1892 -22.1853 -22.1827
   -22.1745 -22.1710 -14.1468 -13.2023  -7.4513  -6.5104  -4.3194  -3.7855
    -3.7410  -2.6496  -2.3711  -1.6105   0.6610   2.2028   2.4964   2.6822

          k = 0.1333 0.0688 0.0000 ( 30934 PWs)   bands (ev):

   -22.2277 -22.2222 -22.2209 -22.2166 -22.2103 -22.1893 -22.1854 -22.1824
   -22.1748 -22.1709 -14.1277 -13.1980  -7.4801  -6.5555  -4.3036  -4.0861
    -3.4019  -2.8460  -2.1280  -1.6113   0.6798   1.8514   2.5027   2.8740

          k = 0.1333 0.1376 0.0000 ( 30957 PWs)   bands (ev):

   -22.2264 -22.2232 -22.2198 -22.2182 -22.2087 -22.1896 -22.1857 -22.1814
   -22.1757 -22.1708 -14.0714 -13.1874  -7.5646  -6.6894  -4.3197  -4.2551
    -3.0573  -3.0414  -1.8121  -1.6121   0.7371   1.3203   2.2912   2.9872

          k = 0.1333 0.2064 0.0000 ( 30935 PWs)   bands (ev):

   -22.2249 -22.2245 -22.2196 -22.2183 -22.2068 -22.1902 -22.1859 -22.1802
   -22.1770 -22.1708 -13.9815 -13.1767  -7.6934  -6.9020  -4.4314  -4.1698
    -3.1231  -2.7863  -1.6094  -1.6003   0.8299   0.8942   1.7674   2.8368

          k = 0.1333 0.2751 0.0000 ( 30914 PWs)   bands (ev):

   -22.2261 -22.2248 -22.2194 -22.2166 -22.2047 -22.1911 -22.1858 -22.1787
   -22.1784 -22.1709 -13.8640 -13.1757  -7.8386  -7.1663  -4.4123  -4.0423
    -3.1043  -2.6528  -1.6196  -1.5491   0.7175   0.8865   1.3066   2.4734

          k = 0.1333 0.3439 0.0000 ( 30902 PWs)   bands (ev):

   -22.2275 -22.2262 -22.2177 -22.2152 -22.2023 -22.1924 -22.1854 -22.1798
   -22.1772 -22.1713 -13.7276 -13.1956  -7.9609  -7.4439  -4.2755  -3.8736
    -3.0497  -2.6847  -1.7945  -1.4715   0.6292   0.7804   1.3328   2.0710

          k = 0.1333 0.4127 0.0000 ( 30864 PWs)   bands (ev):

   -22.2285 -22.2276 -22.2160 -22.2144 -22.2000 -22.1939 -22.1847 -22.1812
   -22.1756 -22.1719 -13.5842 -13.2461  -8.0233  -7.6957  -4.0478  -3.6841
    -3.0752  -2.8373  -1.9084  -1.4709   0.4302   0.8593   1.5814   1.8279

          k = 0.1333 0.4815 0.0000 ( 30839 PWs)   bands (ev):

   -22.2289 -22.2286 -22.2147 -22.2142 -22.1978 -22.1957 -22.1837 -22.1825
   -22.1741 -22.1729 -13.4475 -13.3313  -8.0015  -7.8891  -3.7734  -3.5837
    -3.1637  -3.0386  -1.8157  -1.6159   0.4885   0.7082   1.8785   1.9346

          k = 0.2000 0.0000 0.0000 ( 30926 PWs)   bands (ev):

   -22.2273 -22.2225 -22.2209 -22.2172 -22.2084 -22.1895 -22.1844 -22.1824
   -22.1750 -22.1719 -14.0635 -13.2067  -7.6710  -6.8197  -4.2344  -3.6428
    -3.4818  -2.5697  -1.9950  -1.7130   0.7529   1.6117   2.1915   2.4498

          k = 0.2000 0.0688 0.0000 ( 30943 PWs)   bands (ev):

   -22.2268 -22.2229 -22.2204 -22.2179 -22.2078 -22.1896 -22.1848 -22.1818
   -22.1754 -22.1717 -14.0450 -13.2019  -7.6771  -6.8419  -4.2149  -4.0173
    -3.1083  -2.7947  -1.7841  -1.6905   0.7753   1.2819   2.2545   2.5004

          k = 0.2000 0.1376 0.0000 ( 30945 PWs)   bands (ev):

   -22.2257 -22.2240 -22.2193 -22.2192 -22.2064 -22.1899 -22.1854 -22.1807
   -22.1764 -22.1714 -13.9907 -13.1896  -7.6989  -6.9124  -4.3948  -4.1593
    -3.1099  -2.7540  -1.6088  -1.5628   0.8346   0.9092   1.7679   2.8642

          k = 0.2000 0.2064 0.0000 ( 30946 PWs)   bands (ev):

   -22.2256 -22.2251 -22.2200 -22.2176 -22.2047 -22.1905 -22.1858 -22.1794
   -22.1776 -22.1712 -13.9041 -13.1757  -7.7429  -7.0374  -4.6554  -4.0761
    -3.3242  -2.5715  -1.6257  -1.4593   0.8367   0.8563   1.3218   3.0034

          k = 0.2000 0.2751 0.0000 ( 30937 PWs)   bands (ev):

   -22.2274 -22.2263 -22.2187 -22.2159 -22.2028 -22.1913 -22.1858 -22.1790
   -22.1779 -22.1712 -13.7916 -13.1696  -7.8069  -7.2132  -4.7661  -3.9727
    -3.4073  -2.5670  -1.9473  -1.3357   0.6378   1.0598   1.3065   2.7993

          k = 0.2000 0.3439 0.0000 ( 30923 PWs)   bands (ev):

   -22.2290 -22.2281 -22.2167 -22.2144 -22.2008 -22.1925 -22.1855 -22.1803
   -22.1764 -22.1713 -13.6623 -13.1823  -7.8710  -7.4179  -4.7231  -3.8468
    -3.4215  -2.6859  -2.2997  -1.4017   0.5323   1.3910   1.5140   2.4795

          k = 0.2000 0.4127 0.0000 ( 30906 PWs)   bands (ev):

   -22.2302 -22.2296 -22.2149 -22.2134 -22.1989 -22.1939 -22.1848 -22.1815
   -22.1750 -22.1718 -13.5279 -13.2232  -7.9031  -7.6174  -4.5466  -3.7496
    -3.4738  -2.8818  -2.4395  -1.6705   0.6902   1.5729   1.7883   2.2785

          k = 0.2000 0.4815 0.0000 ( 30880 PWs)   bands (ev):

   -22.2308 -22.2306 -22.2137 -22.2132 -22.1972 -22.1955 -22.1838 -22.1827
   -22.1736 -22.1726 -13.4019 -13.2973  -7.8758  -7.7779  -4.2707  -3.9500
    -3.3505  -3.1174  -2.2978  -2.0063   0.9982   1.3495   2.0847   2.2992

          k = 0.2667 0.0000 0.0000 ( 30956 PWs)   bands (ev):

   -22.2261 -22.2231 -22.2205 -22.2188 -22.2053 -22.1900 -22.1834 -22.1818
   -22.1756 -22.1731 -13.9539 -13.2245  -7.8809  -7.1592  -4.0927  -3.4519
    -3.2130  -2.4862  -1.8306  -1.5785   0.9034   1.0044   1.7245   2.1550

          k = 0.2667 0.0688 0.0000 ( 30976 PWs)   bands (ev):

   -22.2258 -22.2236 -22.2201 -22.2194 -22.2049 -22.1901 -22.1840 -22.1811
   -22.1761 -22.1728 -13.9363 -13.2188  -7.8701  -7.1627  -4.0737  -3.8684
    -2.8652  -2.7126  -1.7558  -1.4638   0.7933   0.9246   1.7670   2.0513

          k = 0.2667 0.1376 0.0000 ( 30945 PWs)   bands (ev):

   -22.2252 -22.2249 -22.2202 -22.2188 -22.2037 -22.1904 -22.1848 -22.1798
   -22.1772 -22.1722 -13.8848 -13.2037  -7.8416  -7.1779  -4.3507  -4.0208
    -3.1034  -2.6137  -1.5313  -1.5049   0.7501   0.9181   1.3049   2.5211

          k = 0.2667 0.2064 0.0000 ( 30941 PWs)   bands (ev):

   -22.2267 -22.2259 -22.2197 -22.2170 -22.2022 -22.1909 -22.1854 -22.1785
   -22.1784 -22.1718 -13.8032 -13.1848  -7.8066  -7.2168  -4.7399  -3.9507
    -3.4315  -2.5583  -1.8806  -1.3095   0.6626   1.0885   1.3052   2.8099

          k = 0.2667 0.2751 0.0000 ( 30931 PWs)   bands (ev):

   -22.2288 -22.2280 -22.2178 -22.2152 -22.2006 -22.1917 -22.1856 -22.1797
   -22.1770 -22.1715 -13.6982 -13.1711  -7.7788  -7.2908  -4.9858  -3.9013
    -3.6167  -2.6267  -2.3636  -1.3538   0.6013   1.5167   1.5910   2.7969

          k = 0.2667 0.3439 0.0000 ( 30962 PWs)   bands (ev):

   -22.2308 -22.2301 -22.2156 -22.2135 -22.1991 -22.1927 -22.1854 -22.1808
   -22.1756 -22.1714 -13.5791 -13.1730  -7.7636  -7.3992  -5.0607  -3.8714
    -3.7330  -2.7849  -2.7219  -1.6553   0.8247   1.8018   2.0882   2.6096

          k = 0.2667 0.4127 0.0000 ( 30924 PWs)   bands (ev):

   -22.2322 -22.2319 -22.2138 -22.2124 -22.1978 -22.1940 -22.1847 -22.1818
   -22.1743 -22.1717 -13.4576 -13.2003  -7.7488  -7.5230  -4.9660  -4.0230
    -3.7487  -3.0162  -2.7789  -2.0197   1.1599   2.1263   2.2059   2.6082

          k = 0.2667 0.4815 0.0000 ( 30942 PWs)   bands (ev):

   -22.2330 -22.2329 -22.2125 -22.2121 -22.1965 -22.1953 -22.1838 -22.1828
   -22.1731 -22.1722 -13.3469 -13.2586  -7.7107  -7.6341  -4.7290  -4.3920
    -3.5505  -3.2885  -2.6151  -2.3493   1.5232   1.8858   2.4474   2.6758

          k = 0.3333 0.0000 0.0000 ( 31016 PWs)   bands (ev):

   -22.2248 -22.2236 -22.2205 -22.2205 -22.2020 -22.1908 -22.1823 -22.1810
   -22.1765 -22.1744 -13.8251 -13.2642  -8.0374  -7.4844  -3.9024  -3.2243
    -3.0230  -2.4317  -1.8814  -1.1710   0.4499   1.1169   1.3595   1.6963

          k = 0.3333 0.0688 0.0000 ( 30977 PWs)   bands (ev):

   -22.2247 -22.2242 -22.2207 -22.2199 -22.2017 -22.1909 -22.1830 -22.1801
   -22.1771 -22.1739 -13.8088 -13.2572  -8.0162  -7.4745  -3.8863  -3.6589
    -2.7730  -2.6504  -1.7134  -1.2327   0.4636   1.0843   1.3017   1.6534

          k = 0.3333 0.1376 0.0000 ( 30971 PWs)   bands (ev):

   -22.2257 -22.2251 -22.2206 -22.2185 -22.2008 -22.1911 -22.1840 -22.1788
   -22.1782 -22.1731 -13.7612 -13.2380  -7.9554  -7.4483  -4.2040  -3.8432
    -3.0842  -2.6672  -1.6078  -1.3954   0.6948   0.8312   1.3189   2.1466

          k = 0.3333 0.2064 0.0000 ( 30946 PWs)   bands (ev):

   -22.2278 -22.2271 -22.2190 -22.2167 -22.1996 -22.1915 -22.1848 -22.1794
   -22.1774 -22.1724 -13.6864 -13.2121  -7.8638  -7.4168  -4.6872  -3.7976
    -3.5028  -2.6797  -2.1601  -1.3393   0.5866   1.4602   1.5171   2.4917

          k = 0.3333 0.2751 0.0000 ( 30948 PWs)   bands (ev):

   -22.2302 -22.2296 -22.2168 -22.2147 -22.1985 -22.1922 -22.1851 -22.1805
   -22.1760 -22.1719 -13.5914 -13.1878  -7.7575  -7.3954  -5.0510  -3.8831
    -3.7417  -2.7774  -2.6577  -1.6315   0.8558   1.8157   2.1459   2.6049

          k = 0.3333 0.3439 0.0000 ( 30937 PWs)   bands (ev):

   -22.2324 -22.2320 -22.2145 -22.2129 -22.1975 -22.1931 -22.1849 -22.1813
   -22.1747 -22.1717 -13.4858 -13.1755  -7.6577  -7.3984  -5.2525  -4.0897
    -3.9056  -2.9756  -2.8978  -1.9962   1.2236   2.1962   2.5474   2.7943

          k = 0.3333 0.4127 0.0000 ( 30950 PWs)   bands (ev):

   -22.2341 -22.2339 -22.2127 -22.2117 -22.1967 -22.1941 -22.1843 -22.1821
   -22.1736 -22.1717 -13.3814 -13.1850  -7.5804  -7.4281  -5.2667  -4.4113
    -3.9746  -3.2676  -2.8655  -2.2922   1.5709   2.3972   2.6026   3.2190

          k = 0.3333 0.4815 0.0000 ( 30931 PWs)   bands (ev):

   -22.2350 -22.2350 -22.2116 -22.2112 -22.1959 -22.1951 -22.1836 -22.1828
   -22.1726 -22.1720 -13.2903 -13.2230  -7.5234  -7.4736  -5.1013  -4.7953
    -3.8404  -3.5832  -2.7171  -2.5233   1.8857   2.1660   2.9660   3.2173

          k = 0.4000 0.0000 0.0000 ( 30960 PWs)   bands (ev):

   -22.2238 -22.2235 -22.2219 -22.2207 -22.1988 -22.1920 -22.1810 -22.1799
   -22.1774 -22.1759 -13.6870 -13.3321  -8.1119  -7.7629  -3.6757  -3.0235
    -2.9780  -2.4453  -1.7437  -0.9074   0.0971   1.1578   1.1739   1.3999

          k = 0.4000 0.0688 0.0000 ( 30976 PWs)   bands (ev):

   -22.2245 -22.2239 -22.2216 -22.2201 -22.1986 -22.1920 -22.1819 -22.1790
   -22.1782 -22.1752 -13.6723 -13.3234  -8.0857  -7.7439  -3.6651  -3.4214
    -2.8590  -2.6707  -1.5285  -1.1350   0.3169   0.7621   1.4315   1.4397

          k = 0.4000 0.1376 0.0000 ( 30954 PWs)   bands (ev):

   -22.2263 -22.2256 -22.2203 -22.2186 -22.1980 -22.1921 -22.1830 -22.1794
   -22.1776 -22.1742 -13.6296 -13.2990  -8.0088  -7.6894  -3.9799  -3.6429
    -3.1397  -2.8417  -1.6789  -1.3376   0.5095   0.9242   1.5652   1.9215

          k = 0.4000 0.2064 0.0000 ( 30957 PWs)   bands (ev):

   -22.2286 -22.2281 -22.2182 -22.2166 -22.1972 -22.1924 -22.1839 -22.1805
   -22.1763 -22.1733 -13.5634 -13.2640  -7.8873  -7.6070  -4.5176  -3.7233
    -3.5425  -2.8755  -2.2664  -1.5791   0.7718   1.6792   1.7971   2.2836

          k = 0.4000 0.2751 0.0000 ( 30931 PWs)   bands (ev):

   -22.2312 -22.2309 -22.2159 -22.2145 -22.1966 -22.1929 -22.1843 -22.1813
   -22.1751 -22.1725 -13.4809 -13.2265  -7.7335  -7.5106  -4.9647  -4.1189
    -3.6582  -2.9908  -2.7063  -1.9835   1.2120   2.1678   2.2654   2.6698

          k = 0.4000 0.3439 0.0000 ( 30940 PWs)   bands (ev):

   -22.2337 -22.2335 -22.2136 -22.2126 -22.1961 -22.1936 -22.1842 -22.1819
   -22.1739 -22.1720 -13.3921 -13.1967  -7.5701  -7.4189  -5.2759  -4.4820
    -3.8901  -3.2414  -2.8564  -2.2885   1.5870   2.4023   2.6444   3.3564

          k = 0.4000 0.4127 0.0000 ( 30970 PWs)   bands (ev):

   -22.2356 -22.2355 -22.2119 -22.2112 -22.1958 -22.1943 -22.1838 -22.1823
   -22.1730 -22.1718 -13.3083 -13.1849  -7.4306  -7.3516  -5.4121  -4.8155
    -4.0880  -3.5825  -2.8152  -2.4665   1.8851   2.3952   3.1010   3.6988

          k = 0.4000 0.4815 0.0000 ( 30944 PWs)   bands (ev):

   -22.2366 -22.2366 -22.2108 -22.2106 -22.1954 -22.1950 -22.1833 -22.1828
   -22.1723 -22.1719 -13.2409 -13.1987  -7.3462  -7.3235  -5.3541  -5.1305
    -4.0843  -3.8936  -2.7126  -2.5949   2.1234   2.2974   3.4479   3.6610

          k = 0.4667 0.0000 0.0000 ( 30918 PWs)   bands (ev):

   -22.2236 -22.2230 -22.2223 -22.2213 -22.1960 -22.1938 -22.1798 -22.1787
   -22.1785 -22.1773 -13.5511 -13.4294  -8.0901  -7.9706  -3.4296  -3.1928
    -2.7412  -2.5517  -1.4298  -1.0660   0.2374   0.6707   1.1548   1.3447

          k = 0.4667 0.0688 0.0000 ( 30937 PWs)   bands (ev):

   -22.2245 -22.2241 -22.2213 -22.2206 -22.1959 -22.1937 -22.1807 -22.1794
   -22.1777 -22.1765 -13.5383 -13.4187  -8.0630  -7.9460  -3.4330  -3.2797
    -2.9438  -2.8014  -1.3062  -1.1602   0.3009   0.4433   1.4844   1.6857

          k = 0.4667 0.1376 0.0000 ( 30965 PWs)   bands (ev):

   -22.2264 -22.2262 -22.2196 -22.2190 -22.1956 -22.1936 -22.1818 -22.1806
   -22.1765 -22.1753 -13.5015 -13.3882  -7.9831  -7.8739  -3.7163  -3.5248
    -3.2233  -3.0619  -1.6002  -1.4375   0.5752   0.7896   1.8494   1.9767

          k = 0.4667 0.2064 0.0000 ( 30980 PWs)   bands (ev):

   -22.2290 -22.2288 -22.2174 -22.2169 -22.1952 -22.1936 -22.1828 -22.1816
   -22.1752 -22.1742 -13.4453 -13.3428  -7.8553  -7.7596  -4.2622  -3.9664
    -3.3447  -3.1073  -2.1482  -1.8878   1.0956   1.4530   2.0936   2.3006

          k = 0.4667 0.2751 0.0000 ( 30956 PWs)   bands (ev):

   -22.2318 -22.2317 -22.2151 -22.2146 -22.1950 -22.1938 -22.1833 -22.1823
   -22.1741 -22.1733 -13.3773 -13.2903  -7.6894  -7.6141  -4.7514  -4.4495
    -3.4721  -3.2359  -2.5608  -2.3064   1.5802   1.9387   2.5195   2.7719

          k = 0.4667 0.3439 0.0000 ( 30958 PWs)   bands (ev):

   -22.2344 -22.2343 -22.2130 -22.2126 -22.1950 -22.1942 -22.1834 -22.1826
   -22.1732 -22.1725 -13.3076 -13.2409  -7.5050  -7.4559  -5.1334  -4.8534
    -3.7555  -3.5236  -2.7138  -2.5221   1.9039   2.1789   3.0530   3.3455

          k = 0.4667 0.4127 0.0000 ( 30973 PWs)   bands (ev):

   -22.2364 -22.2363 -22.2113 -22.2111 -22.1951 -22.1946 -22.1832 -22.1827
   -22.1724 -22.1720 -13.2473 -13.2051  -7.3363  -7.3140  -5.3744  -5.1598
    -4.0460  -3.8643  -2.7153  -2.5980   2.1282   2.3011   3.4811   3.7037

          k = 0.4667 0.4815 0.0000 ( 30951 PWs)   bands (ev):

   -22.2375 -22.2374 -22.2104 -22.2103 -22.1951 -22.1950 -22.1830 -22.1828
   -22.1720 -22.1719 -13.2065 -13.1921  -7.2319  -7.2270  -5.4499  -5.3659
    -4.1841  -4.1133  -2.6770  -2.6373   2.2738   2.3329   3.7298   3.8395

     the Fermi energy is    -0.8344 ev

!    total energy              =    -413.80388749 Ry
     estimated scf accuracy    <          3.5E-11 Ry
     smearing contrib. (-TS)   =       0.00007765 Ry
     internal energy E=F+TS    =    -413.80396514 Ry

     The total energy is F=E-TS. E is the sum of the following terms:
     one-electron contribution =   -1180.43216827 Ry
     hartree contribution      =     602.36014836 Ry
     xc contribution           =    -154.40146595 Ry
     ewald contribution        =     318.66952073 Ry

     convergence has been achieved in   6 iterations

     negative rho (up, down):  2.861E-05 0.000E+00

     Forces acting on atoms (cartesian axes, Ry/au):

     atom    1 type  1   force =     0.00055149    0.00000000   -0.00032375
     atom    2 type  1   force =     0.00055258    0.00000000    0.00031077
     atom    3 type  2   force =    -0.00055277    0.00000000   -0.00018530
     atom    4 type  2   force =    -0.00055130    0.00000000    0.00019828

     Total force =     0.001222     Total SCF correction =     0.000021

     number of scf cycles    =   2
     number of bfgs steps    =   1

     energy   old            =    -413.8038857945 Ry
     energy   new            =    -413.8038874935 Ry

     CASE: energy  _new < energy  _old


     WARNING: bfgs curvature condition failed, Theta= 0.874
     new trust radius        =       0.0007723633 bohr
     new conv_thr            =            1.7E-12 Ry


ATOMIC_POSITIONS (crystal)
Sn            0.5841380252        0.7500000000        0.1445349088
Sn            0.0841369855        0.2500000000        0.0066105556
Se            0.0299676376        0.2500000000        0.1423065138
Se            0.5299653257        0.7500000000        0.0088380757



     Writing output data file ./wfc-out/pwscf.save/
     NEW-OLD atomic charge density approx. for the potential

     negative rho (up, down):  3.158E-05 0.000E+00

     total cpu time spent up to now is      103.2 secs

     Self-consistent Calculation

     iteration #  1     ecut=    80.00 Ry     beta= 0.70
     Davidson diagonalization with overlap
     ethr =  1.00E-06,  avg # of iterations =  2.0

     Threshold (ethr) on eigenvalues was too large:
     Diagonalizing with lowered threshold

     Davidson diagonalization with overlap
     ethr =  1.38E-10,  avg # of iterations =  6.8

     negative rho (up, down):  2.842E-05 0.000E+00

     total cpu time spent up to now is      113.9 secs

     total energy              =    -413.80388921 Ry
     estimated scf accuracy    <       0.00000008 Ry

     iteration #  2     ecut=    80.00 Ry     beta= 0.70
     Davidson diagonalization with overlap
     ethr =  2.05E-10,  avg # of iterations =  2.1

     negative rho (up, down):  2.845E-05 0.000E+00

     total cpu time spent up to now is      118.0 secs

     total energy              =    -413.80388920 Ry
     estimated scf accuracy    <       0.00000005 Ry

     iteration #  3     ecut=    80.00 Ry     beta= 0.70
     Davidson diagonalization with overlap
     ethr =  1.28E-10,  avg # of iterations =  2.0

     negative rho (up, down):  2.855E-05 0.000E+00

     total cpu time spent up to now is      122.0 secs

     total energy              =    -413.80388921 Ry
     estimated scf accuracy    <       0.00000001 Ry

     iteration #  4     ecut=    80.00 Ry     beta= 0.70
     Davidson diagonalization with overlap
     ethr =  3.67E-11,  avg # of iterations =  2.7

     negative rho (up, down):  2.859E-05 0.000E+00

     total cpu time spent up to now is      126.1 secs

     total energy              =    -413.80388921 Ry
     estimated scf accuracy    <       0.00000002 Ry

     iteration #  5     ecut=    80.00 Ry     beta= 0.70
     Davidson diagonalization with overlap
     ethr =  3.67E-11,  avg # of iterations =  2.0

     negative rho (up, down):  2.860E-05 0.000E+00

     total cpu time spent up to now is      130.1 secs

     total energy              =    -413.80388921 Ry
     estimated scf accuracy    <          2.0E-10 Ry

     iteration #  6     ecut=    80.00 Ry     beta= 0.70
     Davidson diagonalization with overlap
     ethr =  5.09E-13,  avg # of iterations =  4.4

     negative rho (up, down):  2.861E-05 0.000E+00

     total cpu time spent up to now is      134.9 secs

     total energy              =    -413.80388921 Ry
     estimated scf accuracy    <          4.7E-11 Ry

     iteration #  7     ecut=    80.00 Ry     beta= 0.70
     Davidson diagonalization with overlap
     ethr =  1.18E-13,  avg # of iterations =  2.2

     negative rho (up, down):  2.861E-05 0.000E+00

     total cpu time spent up to now is      138.9 secs

     total energy              =    -413.80388921 Ry
     estimated scf accuracy    <          2.4E-12 Ry

     iteration #  8     ecut=    80.00 Ry     beta= 0.70
     Davidson diagonalization with overlap
     ethr =  1.00E-13,  avg # of iterations =  1.0

     negative rho (up, down):  2.861E-05 0.000E+00

     total cpu time spent up to now is      142.5 secs

     End of self-consistent calculation

          k = 0.0000 0.0000 0.0000 ( 30959 PWs)   bands (ev):

   -22.2290 -22.2217 -22.2212 -22.2146 -22.2131 -22.1889 -22.1858 -22.1829
   -22.1740 -22.1700 -14.2175 -13.2049  -7.2132  -6.2060  -4.3550  -4.0030
    -3.9045  -2.7572  -2.7253  -1.5284   0.6025   2.3678   2.8311   2.9686

          k = 0.0000 0.0688 0.0000 ( 30981 PWs)   bands (ev):

   -22.2284 -22.2215 -22.2213 -22.2155 -22.2123 -22.1890 -22.1859 -22.1826
   -22.1743 -22.1701 -14.1979 -13.2010  -7.2749  -6.2812  -4.3541  -3.9859
    -3.8458  -2.7719  -2.6025  -1.5423   0.6158   2.4459   2.7707   2.8414

          k = 0.0000 0.1376 0.0000 ( 30943 PWs)   bands (ev):

   -22.2270 -22.2223 -22.2203 -22.2170 -22.2107 -22.1894 -22.1859 -22.1819
   -22.1751 -22.1701 -14.1402 -13.1916  -7.4392  -6.4914  -4.3289  -3.9145
    -3.7005  -2.7291  -2.3568  -1.5885   0.6611   2.2673   2.5494   2.6026

          k = 0.0000 0.2064 0.0000 ( 30959 PWs)   bands (ev):

   -22.2251 -22.2235 -22.2188 -22.2186 -22.2088 -22.1900 -22.1858 -22.1808
   -22.1763 -22.1703 -14.0477 -13.1833  -7.6572  -6.7945  -4.2492  -3.7816
    -3.5030  -2.6485  -2.0379  -1.6732   0.7513   1.6230   2.0885   2.5716

          k = 0.0000 0.2751 0.0000 ( 30913 PWs)   bands (ev):

   -22.2248 -22.2238 -22.2194 -22.2173 -22.2064 -22.1909 -22.1855 -22.1793
   -22.1777 -22.1707 -13.9263 -13.1860  -7.8737  -7.1377  -4.1089  -3.5959
    -3.2834  -2.5593  -1.7842  -1.6828   0.8987   0.9793   1.6107   2.2083

          k = 0.0000 0.3439 0.0000 ( 30885 PWs)   bands (ev):

   -22.2260 -22.2244 -22.2185 -22.2160 -22.2037 -22.1922 -22.1850 -22.1792
   -22.1777 -22.1712 -13.7845 -13.2115  -8.0411  -7.4737  -3.9170  -3.3761
    -3.0927  -2.4990  -1.8641  -1.3318   0.4058   1.1031   1.2242   1.6921

          k = 0.0000 0.4127 0.0000 ( 30841 PWs)   bands (ev):

   -22.2268 -22.2257 -22.2169 -22.2152 -22.2010 -22.1939 -22.1843 -22.1807
   -22.1760 -22.1720 -13.6340 -13.2695  -8.1251  -7.7651  -3.6894  -3.1887
    -2.9824  -2.5110  -1.8025  -1.1059   0.0439   1.0068   1.0752   1.4265

          k = 0.0000 0.4815 0.0000 ( 30842 PWs)   bands (ev):

   -22.2270 -22.2266 -22.2157 -22.2151 -22.1983 -22.1959 -22.1833 -22.1821
   -22.1744 -22.1731 -13.4889 -13.3635  -8.1067  -7.9831  -3.4495  -3.2422
    -2.8087  -2.6209  -1.5562  -1.2376   0.1461   0.5667   1.0004   1.1970

          k = 0.0667 0.0000 0.0000 ( 30941 PWs)   bands (ev):

   -22.2288 -22.2216 -22.2213 -22.2149 -22.2125 -22.1890 -22.1857 -22.1828
   -22.1741 -22.1702 -14.1999 -13.2040  -7.2796  -6.2878  -4.3515  -3.9318
    -3.8748  -2.7058  -2.6500  -1.5485   0.6157   2.4125   2.6746   2.9474

          k = 0.0667 0.0688 0.0000 ( 30960 PWs)   bands (ev):

   -22.2282 -22.2217 -22.2212 -22.2157 -22.2117 -22.1891 -22.1857 -22.1825
   -22.1744 -22.1703 -14.1804 -13.2000  -7.3311  -6.3541  -4.3446  -4.0625
    -3.6788  -2.8316  -2.4343  -1.5595   0.6307   2.4071   2.4802   2.9278

          k = 0.0667 0.1376 0.0000 ( 30962 PWs)   bands (ev):

   -22.2268 -22.2225 -22.2201 -22.2173 -22.2102 -22.1894 -22.1858 -22.1817
   -22.1752 -22.1703 -14.1231 -13.1903  -7.4722  -6.5424  -4.3110  -4.1277
    -3.4245  -2.8797  -2.1416  -1.5959   0.6798   1.8529   2.5691   2.8238

          k = 0.0667 0.2064 0.0000 ( 30932 PWs)   bands (ev):

   -22.2250 -22.2238 -22.2189 -22.2186 -22.2082 -22.1900 -22.1858 -22.1806
   -22.1764 -22.1704 -14.0312 -13.1814  -7.6659  -6.8211  -4.2292  -4.0936
    -3.1677  -2.8425  -1.8421  -1.6598   0.7727   1.2636   2.2988   2.4432

          k = 0.0667 0.2751 0.0000 ( 30899 PWs)   bands (ev):

   -22.2251 -22.2240 -22.2195 -22.2171 -22.2059 -22.1909 -22.1856 -22.1791
   -22.1778 -22.1707 -13.9107 -13.1832  -7.8643  -7.1441  -4.0917  -3.9675
    -2.9481  -2.7567  -1.7300  -1.5853   0.7600   0.9148   1.7630   1.9661

          k = 0.0667 0.3439 0.0000 ( 30892 PWs)   bands (ev):

   -22.2264 -22.2249 -22.2182 -22.2158 -22.2033 -22.1922 -22.1851 -22.1793
   -22.1775 -22.1712 -13.7703 -13.2074  -8.0207  -7.4656  -3.9050  -3.7686
    -2.8330  -2.6795  -1.7401  -1.4242   0.4299   1.0190   1.3185   1.5318

          k = 0.0667 0.4127 0.0000 ( 30861 PWs)   bands (ev):

   -22.2272 -22.2262 -22.2166 -22.2150 -22.2007 -22.1939 -22.1844 -22.1808
   -22.1759 -22.1719 -13.6215 -13.2636  -8.0995  -7.7474  -3.6853  -3.5316
    -2.8693  -2.6881  -1.6342  -1.3696   0.2833   0.6713   1.2822   1.4684

          k = 0.0667 0.4815 0.0000 ( 30819 PWs)   bands (ev):

   -22.2275 -22.2271 -22.2154 -22.2148 -22.1982 -22.1958 -22.1834 -22.1822
   -22.1743 -22.1730 -13.4785 -13.3554  -8.0803  -7.9594  -3.4663  -3.3653
    -2.9374  -2.8179  -1.4777  -1.3821   0.2429   0.3586   1.3390   1.6396

          k = 0.1333 0.0000 0.0000 ( 30936 PWs)   bands (ev):

   -22.2282 -22.2218 -22.2212 -22.2158 -22.2109 -22.1891 -22.1851 -22.1826
   -22.1744 -22.1709 -14.1480 -13.2031  -7.4518  -6.5104  -4.3199  -3.7869
    -3.7413  -2.6506  -2.3708  -1.6106   0.6615   2.2017   2.4938   2.6821

          k = 0.1333 0.0688 0.0000 ( 30934 PWs)   bands (ev):

   -22.2277 -22.2221 -22.2208 -22.2165 -22.2102 -22.1892 -22.1853 -22.1822
   -22.1747 -22.1708 -14.1289 -13.1988  -7.4807  -6.5555  -4.3041  -4.0869
    -3.4028  -2.8466  -2.1282  -1.6115   0.6803   1.8509   2.5003   2.8735

          k = 0.1333 0.1376 0.0000 ( 30957 PWs)   bands (ev):

   -22.2263 -22.2231 -22.2197 -22.2181 -22.2087 -22.1895 -22.1856 -22.1813
   -22.1756 -22.1707 -14.0726 -13.1882  -7.5652  -6.6895  -4.3205  -4.2558
    -3.0583  -3.0418  -1.8125  -1.6122   0.7377   1.3202   2.2903   2.9867

          k = 0.1333 0.2064 0.0000 ( 30935 PWs)   bands (ev):

   -22.2248 -22.2245 -22.2195 -22.2182 -22.2068 -22.1901 -22.1858 -22.1801
   -22.1768 -22.1707 -13.9827 -13.1776  -7.6940  -6.9022  -4.4322  -4.1706
    -3.1234  -2.7873  -1.6099  -1.6004   0.8304   0.8946   1.7677   2.8365

          k = 0.1333 0.2751 0.0000 ( 30914 PWs)   bands (ev):

   -22.2260 -22.2248 -22.2193 -22.2165 -22.2046 -22.1910 -22.1857 -22.1786
   -22.1782 -22.1708 -13.8651 -13.1766  -7.8393  -7.1666  -4.4130  -4.0432
    -3.1046  -2.6538  -1.6202  -1.5493   0.7182   0.8870   1.3073   2.4734

          k = 0.1333 0.3439 0.0000 ( 30902 PWs)   bands (ev):

   -22.2274 -22.2262 -22.2176 -22.2151 -22.2023 -22.1923 -22.1853 -22.1797
   -22.1770 -22.1712 -13.7288 -13.1965  -7.9617  -7.4444  -4.2763  -3.8745
    -3.0502  -2.6856  -1.7949  -1.4718   0.6300   0.7810   1.3335   2.0713

          k = 0.1333 0.4127 0.0000 ( 30864 PWs)   bands (ev):

   -22.2284 -22.2276 -22.2159 -22.2143 -22.1999 -22.1938 -22.1845 -22.1811
   -22.1754 -22.1718 -13.5853 -13.2470  -8.0240  -7.6963  -4.0487  -3.6851
    -3.0759  -2.8382  -1.9084  -1.4713   0.4310   0.8597   1.5820   1.8285

          k = 0.1333 0.4815 0.0000 ( 30839 PWs)   bands (ev):

   -22.2288 -22.2285 -22.2146 -22.2141 -22.1977 -22.1957 -22.1835 -22.1824
   -22.1740 -22.1727 -13.4485 -13.3323  -8.0023  -7.8898  -3.7743  -3.5847
    -3.1644  -3.0394  -1.8157  -1.6161   0.4891   0.7086   1.8792   1.9354

          k = 0.2000 0.0000 0.0000 ( 30926 PWs)   bands (ev):

   -22.2272 -22.2224 -22.2208 -22.2172 -22.2083 -22.1894 -22.1843 -22.1822
   -22.1748 -22.1718 -14.0648 -13.2076  -7.6714  -6.8197  -4.2349  -3.6441
    -3.4823  -2.5708  -1.9949  -1.7132   0.7535   1.6107   2.1916   2.4477

          k = 0.2000 0.0688 0.0000 ( 30943 PWs)   bands (ev):

   -22.2268 -22.2228 -22.2203 -22.2178 -22.2078 -22.1895 -22.1847 -22.1817
   -22.1752 -22.1716 -14.0462 -13.2028  -7.6775  -6.8419  -4.2154  -4.0183
    -3.1092  -2.7955  -1.7843  -1.6907   0.7759   1.2815   2.2533   2.5001

          k = 0.2000 0.1376 0.0000 ( 30945 PWs)   bands (ev):

   -22.2257 -22.2239 -22.2192 -22.2192 -22.2064 -22.1898 -22.1853 -22.1806
   -22.1762 -22.1713 -13.9919 -13.1905  -7.6994  -6.9124  -4.3957  -4.1599
    -3.1105  -2.7550  -1.6090  -1.5633   0.8352   0.9093   1.7678   2.8639

          k = 0.2000 0.2064 0.0000 ( 30946 PWs)   bands (ev):

   -22.2255 -22.2250 -22.2199 -22.2175 -22.2046 -22.1904 -22.1856 -22.1793
   -22.1775 -22.1711 -13.9053 -13.1766  -7.7435  -7.0376  -4.6562  -4.0769
    -3.3247  -2.5725  -1.6262  -1.4596   0.8372   0.8568   1.3223   3.0036

          k = 0.2000 0.2751 0.0000 ( 30937 PWs)   bands (ev):

   -22.2273 -22.2262 -22.2186 -22.2158 -22.2027 -22.1913 -22.1857 -22.1788
   -22.1778 -22.1710 -13.7928 -13.1705  -7.8076  -7.2135  -4.7668  -3.9736
    -3.4076  -2.5679  -1.9477  -1.3361   0.6384   1.0604   1.3071   2.7995

          k = 0.2000 0.3439 0.0000 ( 30923 PWs)   bands (ev):

   -22.2289 -22.2280 -22.2166 -22.2143 -22.2007 -22.1924 -22.1854 -22.1801
   -22.1763 -22.1712 -13.6634 -13.1831  -7.8717  -7.4184  -4.7238  -3.8478
    -3.4220  -2.6869  -2.2998  -1.4019   0.5329   1.3915   1.5146   2.4798

          k = 0.2000 0.4127 0.0000 ( 30906 PWs)   bands (ev):

   -22.2302 -22.2296 -22.2148 -22.2133 -22.1989 -22.1938 -22.1846 -22.1814
   -22.1748 -22.1717 -13.5290 -13.2241  -7.9039  -7.6180  -4.5472  -3.7506
    -3.4745  -2.8828  -2.4391  -1.6704   0.6906   1.5731   1.7889   2.2791

          k = 0.2000 0.4815 0.0000 ( 30880 PWs)   bands (ev):

   -22.2307 -22.2305 -22.2136 -22.2131 -22.1971 -22.1954 -22.1837 -22.1826
   -22.1735 -22.1724 -13.4029 -13.2982  -7.8765  -7.7787  -4.2714  -3.9508
    -3.3514  -3.1183  -2.2974  -2.0060   0.9985   1.3497   2.0853   2.3000

          k = 0.2667 0.0000 0.0000 ( 30956 PWs)   bands (ev):

   -22.2260 -22.2230 -22.2205 -22.2188 -22.2052 -22.1899 -22.1833 -22.1817
   -22.1755 -22.1730 -13.9551 -13.2255  -7.8812  -7.1591  -4.0932  -3.4534
    -3.2136  -2.4874  -1.8309  -1.5785   0.9041   1.0037   1.7248   2.1537

          k = 0.2667 0.0688 0.0000 ( 30976 PWs)   bands (ev):

   -22.2257 -22.2235 -22.2200 -22.2193 -22.2048 -22.1900 -22.1839 -22.1810
   -22.1760 -22.1726 -13.9375 -13.2198  -7.8704  -7.1627  -4.0742  -3.8695
    -2.8661  -2.7136  -1.7561  -1.4639   0.7930   0.9253   1.7666   2.0512

          k = 0.2667 0.1376 0.0000 ( 30945 PWs)   bands (ev):

   -22.2251 -22.2248 -22.2202 -22.2187 -22.2036 -22.1903 -22.1847 -22.1797
   -22.1771 -22.1721 -13.8860 -13.2046  -7.8420  -7.1780  -4.3518  -4.0214
    -3.1043  -2.6147  -1.5316  -1.5052   0.7502   0.9186   1.3051   2.5211

          k = 0.2667 0.2064 0.0000 ( 30941 PWs)   bands (ev):

   -22.2267 -22.2259 -22.2196 -22.2169 -22.2021 -22.1908 -22.1853 -22.1783
   -22.1783 -22.1716 -13.8044 -13.1858  -7.8071  -7.2170  -4.7408  -3.9515
    -3.4322  -2.5591  -1.8808  -1.3098   0.6631   1.0887   1.3057   2.8104

          k = 0.2667 0.2751 0.0000 ( 30931 PWs)   bands (ev):

   -22.2287 -22.2279 -22.2177 -22.2151 -22.2005 -22.1916 -22.1855 -22.1795
   -22.1769 -22.1713 -13.6993 -13.1720  -7.7794  -7.2911  -4.9866  -3.9024
    -3.6172  -2.6275  -2.3635  -1.3539   0.6017   1.5172   1.5913   2.7975

          k = 0.2667 0.3439 0.0000 ( 30962 PWs)   bands (ev):

   -22.2307 -22.2301 -22.2155 -22.2134 -22.1990 -22.1927 -22.1852 -22.1807
   -22.1755 -22.1713 -13.5802 -13.1739  -7.7644  -7.3997  -5.0613  -3.8724
    -3.7336  -2.7858  -2.7215  -1.6552   0.8249   1.8023   2.0886   2.6101

          k = 0.2667 0.4127 0.0000 ( 30924 PWs)   bands (ev):

   -22.2322 -22.2318 -22.2137 -22.2123 -22.1977 -22.1939 -22.1846 -22.1817
   -22.1741 -22.1715 -13.4587 -13.2012  -7.7497  -7.5237  -4.9665  -4.0236
    -3.7497  -3.0172  -2.7784  -2.0193   1.1601   2.1267   2.2060   2.6089

          k = 0.2667 0.4815 0.0000 ( 30942 PWs)   bands (ev):

   -22.2329 -22.2328 -22.2124 -22.2120 -22.1964 -22.1952 -22.1837 -22.1827
   -22.1730 -22.1721 -13.3479 -13.2595  -7.7116  -7.6349  -4.7295  -4.3926
    -3.5515  -3.2895  -2.6146  -2.3488   1.5233   1.8859   2.4478   2.6763

          k = 0.3333 0.0000 0.0000 ( 31016 PWs)   bands (ev):

   -22.2247 -22.2235 -22.2204 -22.2204 -22.2019 -22.1907 -22.1821 -22.1809
   -22.1763 -22.1743 -13.8263 -13.2652  -8.0376  -7.4843  -3.9029  -3.2258
    -3.0237  -2.4331  -1.8817  -1.1712   0.4494   1.1177   1.3600   1.6956

          k = 0.3333 0.0688 0.0000 ( 30977 PWs)   bands (ev):

   -22.2246 -22.2241 -22.2207 -22.2198 -22.2016 -22.1908 -22.1829 -22.1800
   -22.1769 -22.1738 -13.8100 -13.2582  -8.0164  -7.4744  -3.8868  -3.6601
    -2.7739  -2.6518  -1.7139  -1.2329   0.4632   1.0850   1.3017   1.6537

          k = 0.3333 0.1376 0.0000 ( 30971 PWs)   bands (ev):

   -22.2257 -22.2250 -22.2205 -22.2184 -22.2007 -22.1910 -22.1839 -22.1787
   -22.1781 -22.1730 -13.7624 -13.2390  -7.9557  -7.4484  -4.2051  -3.8438
    -3.0854  -2.6680  -1.6078  -1.3959   0.6952   0.8311   1.3194   2.1468

          k = 0.3333 0.2064 0.0000 ( 30946 PWs)   bands (ev):

   -22.2278 -22.2270 -22.2190 -22.2166 -22.1995 -22.1914 -22.1847 -22.1793
   -22.1773 -22.1723 -13.6876 -13.2131  -7.8642  -7.4169  -4.6882  -3.7984
    -3.5039  -2.6805  -2.1599  -1.3395   0.5868   1.4601   1.5176   2.4923

          k = 0.3333 0.2751 0.0000 ( 30948 PWs)   bands (ev):

   -22.2301 -22.2295 -22.2167 -22.2146 -22.1984 -22.1921 -22.1850 -22.1803
   -22.1759 -22.1718 -13.5925 -13.1888  -7.7581  -7.3958  -5.0518  -3.8844
    -3.7423  -2.7783  -2.6572  -1.6313   0.8560   1.8160   2.1460   2.6056

          k = 0.3333 0.3439 0.0000 ( 30937 PWs)   bands (ev):

   -22.2323 -22.2320 -22.2144 -22.2128 -22.1974 -22.1930 -22.1848 -22.1812
   -22.1746 -22.1715 -13.4869 -13.1765  -7.6585  -7.3989  -5.2531  -4.0908
    -3.9062  -2.9766  -2.8973  -1.9958   1.2238   2.1964   2.5478   2.7946

          k = 0.3333 0.4127 0.0000 ( 30950 PWs)   bands (ev):

   -22.2341 -22.2339 -22.2126 -22.2116 -22.1966 -22.1940 -22.1842 -22.1819
   -22.1735 -22.1715 -13.3824 -13.1860  -7.5814  -7.4289  -5.2671  -4.4119
    -3.9754  -3.2685  -2.8651  -2.2918   1.5711   2.3975   2.6028   3.2194

          k = 0.3333 0.4815 0.0000 ( 30931 PWs)   bands (ev):

   -22.2350 -22.2349 -22.2115 -22.2111 -22.1958 -22.1950 -22.1835 -22.1827
   -22.1725 -22.1719 -13.2913 -13.2240  -7.5244  -7.4745  -5.1017  -4.7957
    -3.8411  -3.5840  -2.7167  -2.5230   1.8858   2.1661   2.9661   3.2175

          k = 0.4000 0.0000 0.0000 ( 30960 PWs)   bands (ev):

   -22.2237 -22.2234 -22.2218 -22.2206 -22.1988 -22.1919 -22.1809 -22.1798
   -22.1773 -22.1757 -13.6882 -13.3332  -8.1120  -7.7629  -3.6762  -3.0242
    -2.9796  -2.4468  -1.7442  -0.9079   0.0969   1.1584   1.1737   1.4006

          k = 0.4000 0.0688 0.0000 ( 30976 PWs)   bands (ev):

   -22.2245 -22.2239 -22.2215 -22.2200 -22.1985 -22.1920 -22.1818 -22.1788
   -22.1781 -22.1750 -13.6735 -13.3245  -8.0858  -7.7439  -3.6656  -3.4227
    -2.8599  -2.6722  -1.5290  -1.1350   0.3164   0.7622   1.4320   1.4403

          k = 0.4000 0.1376 0.0000 ( 30954 PWs)   bands (ev):

   -22.2262 -22.2255 -22.2202 -22.2185 -22.1979 -22.1921 -22.1829 -22.1792
   -22.1775 -22.1740 -13.6308 -13.3000  -8.0090  -7.6894  -3.9811  -3.6435
    -3.1413  -2.8425  -1.6786  -1.3379   0.5097   0.9236   1.5657   1.9221

          k = 0.4000 0.2064 0.0000 ( 30957 PWs)   bands (ev):

   -22.2286 -22.2280 -22.2181 -22.2165 -22.1971 -22.1923 -22.1837 -22.1803
   -22.1762 -22.1731 -13.5645 -13.2650  -7.8876  -7.6072  -4.5187  -3.7244
    -3.5435  -2.8763  -2.2658  -1.5790   0.7718   1.6787   1.7975   2.2843

          k = 0.4000 0.2751 0.0000 ( 30931 PWs)   bands (ev):

   -22.2312 -22.2308 -22.2158 -22.2144 -22.1965 -22.1928 -22.1842 -22.1812
   -22.1749 -22.1724 -13.4820 -13.2276  -7.7340  -7.5109  -4.9656  -4.1202
    -3.6590  -2.9917  -2.7056  -1.9831   1.2122   2.1679   2.2656   2.6699

          k = 0.4000 0.3439 0.0000 ( 30940 PWs)   bands (ev):

   -22.2336 -22.2334 -22.2135 -22.2125 -22.1960 -22.1935 -22.1841 -22.1818
   -22.1738 -22.1719 -13.3931 -13.1977  -7.5708  -7.4194  -5.2766  -4.4830
    -3.8907  -3.2422  -2.8560  -2.2880   1.5872   2.4027   2.6444   3.3562

          k = 0.4000 0.4127 0.0000 ( 30970 PWs)   bands (ev):

   -22.2355 -22.2354 -22.2118 -22.2111 -22.1957 -22.1942 -22.1837 -22.1822
   -22.1728 -22.1717 -13.3093 -13.1858  -7.4316  -7.3525  -5.4125  -4.8160
    -4.0885  -3.5832  -2.8149  -2.4662   1.8853   2.3955   3.1008   3.6987

          k = 0.4000 0.4815 0.0000 ( 30944 PWs)   bands (ev):

   -22.2365 -22.2365 -22.2107 -22.2105 -22.1954 -22.1949 -22.1832 -22.1826
   -22.1721 -22.1717 -13.2420 -13.1997  -7.3474  -7.3246  -5.3542  -5.1307
    -4.0850  -3.8942  -2.7123  -2.5947   2.1235   2.2975   3.4478   3.6611

          k = 0.4667 0.0000 0.0000 ( 30918 PWs)   bands (ev):

   -22.2235 -22.2229 -22.2222 -22.2212 -22.1960 -22.1937 -22.1796 -22.1786
   -22.1784 -22.1772 -13.5522 -13.4306  -8.0901  -7.9706  -3.4302  -3.1934
    -2.7428  -2.5533  -1.4305  -1.0667   0.2374   0.6706   1.1555   1.3455

          k = 0.4667 0.0688 0.0000 ( 30937 PWs)   bands (ev):

   -22.2244 -22.2241 -22.2212 -22.2205 -22.1958 -22.1936 -22.1805 -22.1793
   -22.1776 -22.1763 -13.5394 -13.4198  -8.0630  -7.9460  -3.4336  -3.2806
    -2.9451  -2.8030  -1.3067  -1.1604   0.3006   0.4433   1.4850   1.6862

          k = 0.4667 0.1376 0.0000 ( 30965 PWs)   bands (ev):

   -22.2264 -22.2261 -22.2195 -22.2189 -22.1955 -22.1935 -22.1817 -22.1805
   -22.1763 -22.1752 -13.5026 -13.3893  -7.9832  -7.8739  -3.7176  -3.5258
    -3.2245  -3.0627  -1.5999  -1.4375   0.5749   0.7890   1.8499   1.9772

          k = 0.4667 0.2064 0.0000 ( 30980 PWs)   bands (ev):

   -22.2289 -22.2287 -22.2174 -22.2168 -22.1951 -22.1935 -22.1826 -22.1815
   -22.1751 -22.1741 -13.4464 -13.3439  -7.8555  -7.7598  -4.2635  -3.9677
    -3.3455  -3.1081  -2.1476  -1.8874   1.0954   1.4527   2.0939   2.3008

          k = 0.4667 0.2751 0.0000 ( 30956 PWs)   bands (ev):

   -22.2317 -22.2316 -22.2150 -22.2145 -22.1949 -22.1937 -22.1832 -22.1821
   -22.1740 -22.1731 -13.3784 -13.2914  -7.6898  -7.6144  -4.7524  -4.4507
    -3.4728  -3.2367  -2.5601  -2.3058   1.5804   1.9389   2.5194   2.7715

          k = 0.4667 0.3439 0.0000 ( 30958 PWs)   bands (ev):

   -22.2343 -22.2342 -22.2129 -22.2125 -22.1949 -22.1941 -22.1833 -22.1825
   -22.1730 -22.1724 -13.3087 -13.2419  -7.5056  -7.4565  -5.1341  -4.8543
    -3.7560  -3.5242  -2.7134  -2.5217   1.9042   2.1793   3.0527   3.3451

          k = 0.4667 0.4127 0.0000 ( 30973 PWs)   bands (ev):

   -22.2363 -22.2363 -22.2112 -22.2110 -22.1950 -22.1945 -22.1831 -22.1826
   -22.1723 -22.1719 -13.2483 -13.2061  -7.3373  -7.3149  -5.3747  -5.1602
    -4.0465  -3.8649  -2.7150  -2.5978   2.1283   2.3013   3.4808   3.7034

          k = 0.4667 0.4815 0.0000 ( 30951 PWs)   bands (ev):

   -22.2374 -22.2374 -22.2103 -22.2102 -22.1950 -22.1949 -22.1829 -22.1827
   -22.1719 -22.1717 -13.2075 -13.1931  -7.2331  -7.2283  -5.4499  -5.3659
    -4.1846  -4.1139  -2.6768  -2.6371   2.2738   2.3328   3.7297   3.8393

     the Fermi energy is    -0.8353 ev

!    total energy              =    -413.80388921 Ry
     estimated scf accuracy    <          1.2E-13 Ry
     smearing contrib. (-TS)   =       0.00007816 Ry
     internal energy E=F+TS    =    -413.80396737 Ry

     The total energy is F=E-TS. E is the sum of the following terms:
     one-electron contribution =   -1180.51172653 Ry
[...]

   -22.2255 -22.2190 -22.2181 -22.2131 -22.2093 -22.1868 -22.1827 -22.1796
   -22.1715 -22.1674 -14.1892 -13.2077  -7.3351  -6.3475  -4.3537  -4.0642
    -3.6833  -2.8354  -2.4364  -1.5543   0.6278   2.3979   2.4426   2.9241

          k = 0.0667 0.1376 0.0000 ( 30962 PWs)   bands (ev):

   -22.2241 -22.2198 -22.2171 -22.2146 -22.2078 -22.1872 -22.1828 -22.1788
   -22.1723 -22.1674 -14.1316 -13.1978  -7.4770  -6.5379  -4.3200  -4.1299
    -3.4290  -2.8820  -2.1456  -1.5907   0.6768   1.8552   2.5406   2.8170

          k = 0.0667 0.2064 0.0000 ( 30932 PWs)   bands (ev):

   -22.2224 -22.2211 -22.2161 -22.2156 -22.2059 -22.1878 -22.1828 -22.1776
   -22.1735 -22.1675 -14.0395 -13.1885  -7.6720  -6.8193  -4.2378  -4.0963
    -3.1730  -2.8449  -1.8477  -1.6549   0.7698   1.2727   2.2968   2.4446

          k = 0.0667 0.2751 0.0000 ( 30899 PWs)   bands (ev):

   -22.2225 -22.2215 -22.2165 -22.2140 -22.2036 -22.1887 -22.1826 -22.1761
   -22.1749 -22.1677 -13.9186 -13.1900  -7.8715  -7.1451  -4.0997  -3.9712
    -2.9543  -2.7607  -1.7258  -1.5926   0.7740   0.9120   1.7733   1.9745

          k = 0.0667 0.3439 0.0000 ( 30892 PWs)   bands (ev):

   -22.2238 -22.2224 -22.2152 -22.2127 -22.2011 -22.1900 -22.1822 -22.1765
   -22.1745 -22.1682 -13.7777 -13.2138  -8.0287  -7.4691  -3.9125  -3.7738
    -2.8391  -2.6862  -1.7383  -1.4318   0.4462   1.0215   1.3289   1.5461

          k = 0.0667 0.4127 0.0000 ( 30861 PWs)   bands (ev):

   -22.2247 -22.2237 -22.2135 -22.2118 -22.1985 -22.1917 -22.1814 -22.1779
   -22.1728 -22.1689 -13.6285 -13.2698  -8.1078  -7.7529  -3.6925  -3.5390
    -2.8739  -2.6969  -1.6362  -1.3757   0.2990   0.6867   1.3012   1.4696

          k = 0.0667 0.4815 0.0000 ( 30819 PWs)   bands (ev):

   -22.2250 -22.2247 -22.2123 -22.2117 -22.1960 -22.1937 -22.1804 -22.1793
   -22.1713 -22.1699 -13.4850 -13.3617  -8.0883  -7.9664  -3.4740  -3.3746
    -2.9416  -2.8256  -1.4828  -1.3878   0.2598   0.3765   1.3584   1.6550

          k = 0.1333 0.0000 0.0000 ( 30936 PWs)   bands (ev):

   -22.2254 -22.2191 -22.2182 -22.2132 -22.2085 -22.1869 -22.1821 -22.1796
   -22.1714 -22.1680 -14.1569 -13.2111  -7.4538  -6.5037  -4.3266  -3.7999
    -3.7364  -2.6652  -2.3653  -1.6065   0.6597   2.1847   2.4551   2.6888

          k = 0.1333 0.0688 0.0000 ( 30934 PWs)   bands (ev):

   -22.2249 -22.2194 -22.2178 -22.2139 -22.2078 -22.1870 -22.1823 -22.1793
   -22.1718 -22.1679 -14.1377 -13.2067  -7.4831  -6.5494  -4.3112  -4.0913
    -3.4067  -2.8542  -2.1295  -1.6073   0.6785   1.8466   2.4647   2.8695

          k = 0.1333 0.1376 0.0000 ( 30957 PWs)   bands (ev):

   -22.2237 -22.2204 -22.2167 -22.2154 -22.2063 -22.1873 -22.1826 -22.1783
   -22.1727 -22.1678 -14.0813 -13.1959  -7.5689  -6.6851  -4.3240  -4.2637
    -3.0634  -3.0464  -1.8170  -1.6080   0.7357   1.3257   2.2777   2.9794

          k = 0.1333 0.2064 0.0000 ( 30935 PWs)   bands (ev):

   -22.2223 -22.2218 -22.2166 -22.2151 -22.2044 -22.1879 -22.1828 -22.1771
   -22.1739 -22.1677 -13.9910 -13.1848  -7.6994  -6.9002  -4.4350  -4.1792
    -3.1263  -2.7935  -1.6168  -1.5970   0.8282   0.9071   1.7736   2.8334

          k = 0.1333 0.2751 0.0000 ( 30914 PWs)   bands (ev):

   -22.2234 -22.2224 -22.2163 -22.2134 -22.2023 -22.1888 -22.1827 -22.1756
   -22.1753 -22.1679 -13.8731 -13.1834  -7.8462  -7.1676  -4.4156  -4.0520
    -3.1072  -2.6601  -1.6271  -1.5484   0.7342   0.8878   1.3182   2.4758

          k = 0.1333 0.3439 0.0000 ( 30902 PWs)   bands (ev):

   -22.2248 -22.2237 -22.2145 -22.2120 -22.2000 -22.1901 -22.1823 -22.1768
   -22.1740 -22.1682 -13.7363 -13.2030  -7.9698  -7.4480  -4.2791  -3.8831
    -3.0541  -2.6912  -1.7980  -1.4749   0.6434   0.7961   1.3366   2.0782

          k = 0.1333 0.4127 0.0000 ( 30864 PWs)   bands (ev):

   -22.2259 -22.2251 -22.2128 -22.2112 -22.1977 -22.1916 -22.1816 -22.1782
   -22.1724 -22.1688 -13.5923 -13.2534  -8.0327  -7.7021  -4.0523  -3.6934
    -3.0813  -2.8433  -1.9079  -1.4762   0.4479   0.8716   1.5837   1.8399

          k = 0.1333 0.4815 0.0000 ( 30839 PWs)   bands (ev):

   -22.2263 -22.2261 -22.2116 -22.2110 -22.1955 -22.1935 -22.1806 -22.1794
   -22.1709 -22.1697 -13.4551 -13.3387  -8.0107  -7.8973  -3.7796  -3.5926
    -3.1689  -3.0443  -1.8156  -1.6190   0.5040   0.7204   1.8815   1.9467

          k = 0.2000 0.0000 0.0000 ( 30926 PWs)   bands (ev):

   -22.2245 -22.2197 -22.2178 -22.2145 -22.2059 -22.1871 -22.1813 -22.1793
   -22.1719 -22.1689 -14.0738 -13.2159  -7.6716  -6.8134  -4.2396  -3.6579
    -3.4795  -2.5868  -1.9918  -1.7106   0.7533   1.5986   2.2009   2.4151

          k = 0.2000 0.0688 0.0000 ( 30943 PWs)   bands (ev):

   -22.2241 -22.2201 -22.2173 -22.2151 -22.2053 -22.1872 -22.1817 -22.1787
   -22.1723 -22.1687 -14.0552 -13.2110  -7.6781  -6.8361  -4.2205  -4.0249
    -3.1136  -2.8069  -1.7858  -1.6880   0.7757   1.2801   2.2344   2.5003

          k = 0.2000 0.1376 0.0000 ( 30945 PWs)   bands (ev):

   -22.2230 -22.2212 -22.2164 -22.2161 -22.2040 -22.1876 -22.1822 -22.1776
   -22.1733 -22.1684 -14.0006 -13.1984  -7.7013  -6.9080  -4.4007  -4.1663
    -3.1185  -2.7605  -1.6070  -1.5678   0.8348   0.9165   1.7669   2.8605

          k = 0.2000 0.2064 0.0000 ( 30946 PWs)   bands (ev):

   -22.2229 -22.2226 -22.2170 -22.2145 -22.2022 -22.1881 -22.1826 -22.1763
   -22.1746 -22.1682 -13.9138 -13.1842  -7.7475  -7.0354  -4.6598  -4.0853
    -3.3295  -2.5780  -1.6307  -1.4599   0.8491   0.8579   1.3295   2.9997

          k = 0.2000 0.2751 0.0000 ( 30937 PWs)   bands (ev):

   -22.2247 -22.2238 -22.2156 -22.2127 -22.2004 -22.1890 -22.1827 -22.1759
   -22.1748 -22.1681 -13.8008 -13.1776  -7.8139  -7.2143  -4.7690  -3.9840
    -3.4100  -2.5731  -1.9489  -1.3393   0.6482   1.0732   1.3113   2.7975

          k = 0.2000 0.3439 0.0000 ( 30923 PWs)   bands (ev):

   -22.2264 -22.2256 -22.2136 -22.2112 -22.1985 -22.1902 -22.1824 -22.1772
   -22.1733 -22.1682 -13.6710 -13.1899  -7.8800  -7.4222  -4.7250  -3.8585
    -3.4246  -2.6923  -2.2963  -1.4050   0.5448   1.4034   1.5178   2.4798

          k = 0.2000 0.4127 0.0000 ( 30906 PWs)   bands (ev):

   -22.2276 -22.2271 -22.2118 -22.2103 -22.1966 -22.1916 -22.1817 -22.1785
   -22.1718 -22.1687 -13.5361 -13.2306  -7.9132  -7.6244  -4.5482  -3.7584
    -3.4802  -2.8891  -2.4325  -1.6701   0.7000   1.5809   1.7922   2.2834

          k = 0.2000 0.4815 0.0000 ( 30880 PWs)   bands (ev):

   -22.2282 -22.2280 -22.2105 -22.2100 -22.1948 -22.1932 -22.1807 -22.1796
   -22.1705 -22.1694 -13.4096 -13.3047  -7.8858  -7.7870  -4.2729  -3.9539
    -3.3596  -3.1257  -2.2914  -2.0023   1.0051   1.3548   2.0892   2.3051

          k = 0.2667 0.0000 0.0000 ( 30956 PWs)   bands (ev):

   -22.2233 -22.2203 -22.2175 -22.2161 -22.2028 -22.1876 -22.1803 -22.1787
   -22.1726 -22.1701 -13.9643 -13.2342  -7.8796  -7.1531  -4.0965  -3.4682
    -3.2126  -2.5052  -1.8300  -1.5780   0.9057   0.9950   1.7369   2.1324

          k = 0.2667 0.0688 0.0000 ( 30976 PWs)   bands (ev):

   -22.2230 -22.2208 -22.2170 -22.2166 -22.2023 -22.1877 -22.1809 -22.1780
   -22.1731 -22.1698 -13.9466 -13.2284  -7.8693  -7.1570  -4.0778  -3.8780
    -2.8710  -2.7289  -1.7558  -1.4656   0.7927   0.9270   1.7605   2.0558

          k = 0.2667 0.1376 0.0000 ( 30945 PWs)   bands (ev):

   -22.2225 -22.2222 -22.2173 -22.2157 -22.2012 -22.1880 -22.1817 -22.1768
   -22.1742 -22.1692 -13.8949 -13.2130  -7.8422  -7.1735  -4.3585  -4.0262
    -3.1169  -2.6194  -1.5333  -1.5067   0.7556   0.9217   1.3068   2.5216

          k = 0.2667 0.2064 0.0000 ( 30941 PWs)   bands (ev):

   -22.2240 -22.2234 -22.2167 -22.2139 -22.1997 -22.1885 -22.1823 -22.1754
   -22.1754 -22.1687 -13.8130 -13.1937  -7.8095  -7.2146  -4.7459  -3.9592
    -3.4411  -2.5634  -1.8789  -1.3135   0.6710   1.0963   1.3082   2.8109

          k = 0.2667 0.2751 0.0000 ( 30931 PWs)   bands (ev):

   -22.2261 -22.2254 -22.2148 -22.2121 -22.1982 -22.1893 -22.1825 -22.1766
   -22.1739 -22.1684 -13.7075 -13.1794  -7.7847  -7.2918  -4.9894  -3.9150
    -3.6209  -2.6324  -2.3574  -1.3560   0.6097   1.5205   1.6001   2.7965

          k = 0.2667 0.3439 0.0000 ( 30962 PWs)   bands (ev):

   -22.2281 -22.2276 -22.2126 -22.2104 -22.1967 -22.1904 -22.1822 -22.1778
   -22.1725 -22.1684 -13.5878 -13.1809  -7.7727  -7.4038  -5.0618  -3.8856
    -3.7363  -2.7920  -2.7115  -1.6528   0.8293   1.8066   2.0975   2.6079

          k = 0.2667 0.4127 0.0000 ( 30924 PWs)   bands (ev):

   -22.2296 -22.2293 -22.2107 -22.2093 -22.1954 -22.1916 -22.1816 -22.1788
   -22.1712 -22.1686 -13.4659 -13.2079  -7.7598  -7.5310  -4.9653  -4.0244
    -3.7620  -3.0251  -2.7678  -2.0132   1.1608   2.1322   2.2043   2.6165

          k = 0.2667 0.4815 0.0000 ( 30942 PWs)   bands (ev):

   -22.2304 -22.2303 -22.2095 -22.2090 -22.1941 -22.1929 -22.1807 -22.1798
   -22.1700 -22.1691 -13.3547 -13.2662  -7.7223  -7.6446  -4.7277  -4.3915
    -3.5622  -3.2990  -2.6051  -2.3405   1.5215   1.8828   2.4545   2.6842

          k = 0.3333 0.0000 0.0000 ( 31016 PWs)   bands (ev):

   -22.2220 -22.2208 -22.2177 -22.2174 -22.1995 -22.1884 -22.1792 -22.1779
   -22.1734 -22.1714 -13.8357 -13.2743  -8.0346  -7.4785  -3.9052  -3.2420
    -3.0238  -2.4529  -1.8831  -1.1739   0.4442   1.1209   1.3748   1.6827

          k = 0.3333 0.0688 0.0000 ( 30977 PWs)   bands (ev):

   -22.2219 -22.2214 -22.2179 -22.2169 -22.1991 -22.1884 -22.1799 -22.1770
   -22.1740 -22.1709 -13.8193 -13.2672  -8.0138  -7.4689  -3.8894  -3.6703
    -2.7784  -2.6708  -1.7167  -1.2335   0.4611   1.0900   1.2990   1.6634

          k = 0.3333 0.1376 0.0000 ( 30971 PWs)   bands (ev):

   -22.2230 -22.2225 -22.2177 -22.2155 -22.1982 -22.1887 -22.1809 -22.1757
   -22.1752 -22.1701 -13.7714 -13.2477  -7.9543  -7.4439  -4.2138  -3.8471
    -3.1034  -2.6717  -1.6033  -1.4004   0.7019   0.8304   1.3202   2.1516

          k = 0.3333 0.2064 0.0000 ( 30946 PWs)   bands (ev):

   -22.2251 -22.2245 -22.2161 -22.2136 -22.1971 -22.1891 -22.1816 -22.1764
   -22.1743 -22.1694 -13.6963 -13.2214  -7.8650  -7.4144  -4.6951  -3.8047
    -3.5187  -2.6844  -2.1509  -1.3419   0.5932   1.4615   1.5193   2.4948

          k = 0.3333 0.2751 0.0000 ( 30948 PWs)   bands (ev):

   -22.2275 -22.2270 -22.2138 -22.2116 -22.1960 -22.1898 -22.1820 -22.1774
   -22.1730 -22.1689 -13.6008 -13.1966  -7.7621  -7.3962  -5.0559  -3.9027
    -3.7442  -2.7835  -2.6449  -1.6287   0.8585   1.8190   2.1497   2.6060

          k = 0.3333 0.3439 0.0000 ( 30937 PWs)   bands (ev):

   -22.2298 -22.2294 -22.2116 -22.2098 -22.1950 -22.1906 -22.1818 -22.1783
   -22.1717 -22.1686 -13.4947 -13.1837  -7.6664  -7.4033  -5.2535  -4.1028
    -3.9095  -2.9835  -2.8853  -1.9892   1.2221   2.2009   2.5437   2.8021

          k = 0.3333 0.4127 0.0000 ( 30950 PWs)   bands (ev):

   -22.2315 -22.2313 -22.2097 -22.2086 -22.1942 -22.1916 -22.1813 -22.1791
   -22.1705 -22.1686 -13.3897 -13.1929  -7.5927  -7.4373  -5.2641  -4.4106
    -3.9855  -3.2764  -2.8553  -2.2834   1.5660   2.3907   2.6083   3.2278

          k = 0.3333 0.4815 0.0000 ( 30931 PWs)   bands (ev):

   -22.2324 -22.2324 -22.2085 -22.2082 -22.1934 -22.1926 -22.1805 -22.1798
   -22.1695 -22.1689 -13.2983 -13.2308  -7.5370  -7.4860  -5.0966  -4.7908
    -3.8508  -3.5926  -2.7078  -2.5142   1.8784   2.1581   2.9725   3.2250

          k = 0.4000 0.0000 0.0000 ( 30960 PWs)   bands (ev):

   -22.2210 -22.2207 -22.2191 -22.2178 -22.1963 -22.1896 -22.1779 -22.1769
   -22.1744 -22.1728 -13.6977 -13.3426  -8.1079  -7.7572  -3.6779  -3.0245
    -2.9975  -2.4679  -1.7481  -0.9155   0.0964   1.1682   1.1752   1.4029

          k = 0.4000 0.0688 0.0000 ( 30976 PWs)   bands (ev):

   -22.2218 -22.2212 -22.2187 -22.2171 -22.1961 -22.1896 -22.1788 -22.1759
   -22.1751 -22.1721 -13.6829 -13.3338  -8.0820  -7.7385  -3.6673  -3.4336
    -2.8653  -2.6935  -1.5342  -1.1347   0.3114   0.7656   1.4419   1.4459

          k = 0.4000 0.1376 0.0000 ( 30954 PWs)   bands (ev):

   -22.2235 -22.2229 -22.2174 -22.2156 -22.1954 -22.1897 -22.1799 -22.1763
   -22.1746 -22.1711 -13.6400 -13.3091  -8.0064  -7.6850  -3.9918  -3.6456
    -3.1626  -2.8463  -1.6704  -1.3414   0.5144   0.9163   1.5669   1.9311

          k = 0.4000 0.2064 0.0000 ( 30957 PWs)   bands (ev):

   -22.2259 -22.2255 -22.2153 -22.2136 -22.1947 -22.1899 -22.1808 -22.1774
   -22.1733 -22.1702 -13.5734 -13.2736  -7.8870  -7.6047  -4.5277  -3.7363
    -3.5545  -2.8805  -2.2535  -1.5770   0.7737   1.6726   1.7986   2.2886

          k = 0.4000 0.2751 0.0000 ( 30931 PWs)   bands (ev):

   -22.2286 -22.2283 -22.2129 -22.2115 -22.1941 -22.1904 -22.1812 -22.1783
   -22.1720 -22.1695 -13.4904 -13.2356  -7.7366  -7.5114  -4.9716  -4.1355
    -3.6634  -2.9972  -2.6923  -1.9768   1.2111   2.1695   2.2631   2.6697

          k = 0.4000 0.3439 0.0000 ( 30940 PWs)   bands (ev):

   -22.2310 -22.2309 -22.2107 -22.2096 -22.1936 -22.1910 -22.1811 -22.1789
   -22.1709 -22.1690 -13.4009 -13.2053  -7.5780  -7.4243  -5.2779  -4.4913
    -3.8943  -3.2486  -2.8455  -2.2797   1.5829   2.3984   2.6466   3.3557

          k = 0.4000 0.4127 0.0000 ( 30970 PWs)   bands (ev):

   -22.2329 -22.2329 -22.2090 -22.2082 -22.1932 -22.1918 -22.1808 -22.1793
   -22.1699 -22.1687 -13.3167 -13.1930  -7.4438  -7.3623  -5.4081  -4.8138
    -4.0953  -3.5897  -2.8066  -2.4579   1.8774   2.3871   3.1031   3.7017

          k = 0.4000 0.4815 0.0000 ( 30944 PWs)   bands (ev):

   -22.2340 -22.2340 -22.2079 -22.2076 -22.1929 -22.1924 -22.1803 -22.1798
   -22.1692 -22.1688 -13.2490 -13.2066  -7.3624  -7.3386  -5.3457  -5.1223
    -4.0930  -3.9014  -2.7046  -2.5868   2.1128   2.2865   3.4508   3.6657

          k = 0.4667 0.0000 0.0000 ( 30918 PWs)   bands (ev):

   -22.2208 -22.2202 -22.2195 -22.2184 -22.1935 -22.1912 -22.1767 -22.1756
   -22.1755 -22.1743 -13.5618 -13.4402  -8.0852  -7.9652  -3.4313  -3.1941
    -2.7625  -2.5743  -1.4367  -1.0752   0.2373   0.6676   1.1727   1.3618

          k = 0.4667 0.0688 0.0000 ( 30937 PWs)   bands (ev):

   -22.2217 -22.2214 -22.2184 -22.2177 -22.1934 -22.1912 -22.1776 -22.1763
   -22.1747 -22.1734 -13.5489 -13.4293  -8.0584  -7.9409  -3.4348  -3.2853
    -2.9594  -2.8235  -1.3118  -1.1624   0.2980   0.4451   1.4975   1.6885

          k = 0.4667 0.1376 0.0000 ( 30965 PWs)   bands (ev):

   -22.2237 -22.2235 -22.2167 -22.2160 -22.1930 -22.1911 -22.1788 -22.1775
   -22.1734 -22.1723 -13.5119 -13.3985  -7.9797  -7.8698  -3.7296  -3.5323
    -3.2392  -3.0683  -1.5936  -1.4362   0.5744   0.7830   1.8504   1.9807

          k = 0.4667 0.2064 0.0000 ( 30980 PWs)   bands (ev):

   -22.2263 -22.2261 -22.2145 -22.2139 -22.1927 -22.1911 -22.1797 -22.1785
   -22.1722 -22.1712 -13.4552 -13.3526  -7.8539  -7.7576  -4.2750  -3.9816
    -3.3517  -3.1130  -2.1374  -1.8810   1.0936   1.4481   2.0933   2.2989

          k = 0.4667 0.2751 0.0000 ( 30956 PWs)   bands (ev):

   -22.2291 -22.2290 -22.2122 -22.2117 -22.1925 -22.1913 -22.1802 -22.1792
   -22.1711 -22.1702 -13.3868 -13.2996  -7.6914  -7.6153  -4.7609  -4.4623
    -3.4781  -3.2423  -2.5488  -2.2968   1.5780   1.9364   2.5179   2.7666

          k = 0.4667 0.3439 0.0000 ( 30958 PWs)   bands (ev):

   -22.2317 -22.2317 -22.2101 -22.2097 -22.1925 -22.1916 -22.1803 -22.1796
   -22.1701 -22.1695 -13.3165 -13.2496  -7.5119  -7.4619  -5.1372  -4.8596
    -3.7602  -3.5294  -2.7042  -2.5129   1.8991   2.1744   3.0514   3.3411

          k = 0.4667 0.4127 0.0000 ( 30973 PWs)   bands (ev):

   -22.2337 -22.2337 -22.2084 -22.2082 -22.1925 -22.1920 -22.1802 -22.1797
   -22.1694 -22.1690 -13.2556 -13.2134  -7.3496  -7.3262  -5.3702  -5.1566
    -4.0519  -3.8703  -2.7073  -2.5900   2.1191   2.2919   3.4798   3.7027

          k = 0.4667 0.4815 0.0000 ( 30951 PWs)   bands (ev):

   -22.2348 -22.2348 -22.2075 -22.2074 -22.1925 -22.1923 -22.1800 -22.1798
   -22.1689 -22.1688 -13.2146 -13.2001  -7.2500  -7.2446  -5.4388  -5.3549
    -4.1917  -4.1206  -2.6696  -2.6299   2.2610   2.3199   3.7321   3.8424

     the Fermi energy is    -0.8522 ev

!    total energy              =    -413.80390205 Ry
     estimated scf accuracy    <          4.6E-13 Ry
     smearing contrib. (-TS)   =       0.00009286 Ry
     internal energy E=F+TS    =    -413.80399491 Ry

     The total energy is F=E-TS. E is the sum of the following terms:
     one-electron contribution =   -1180.52133066 Ry
     hartree contribution      =     602.40516190 Ry
     xc contribution           =    -154.40434241 Ry
     ewald contribution        =     318.71651626 Ry

     convergence has been achieved in   7 iterations

     negative rho (up, down):  2.855E-05 0.000E+00

     Forces acting on atoms (cartesian axes, Ry/au):

     atom    1 type  1   force =     0.00001255    0.00000000   -0.00001935
     atom    2 type  1   force =     0.00001248    0.00000000    0.00002066
     atom    3 type  2   force =    -0.00001253    0.00000000   -0.00001218
     atom    4 type  2   force =    -0.00001250    0.00000000    0.00001087

     Total force =     0.000041     Total SCF correction =     0.000003

     bfgs converged in  17 scf cycles and  16 bfgs steps
     (criteria: energy <  1.0E-06 Ry, force <  3.8E-05 Ry/Bohr)

     End of BFGS Geometry Optimization

     Final energy   =    -413.8039020461 Ry

     File ./wfc-out/pwscf.bfgs deleted, as requested
Begin final coordinates

ATOMIC_POSITIONS (crystal)
Sn            0.5855483467        0.7500000000        0.1445865101
Sn            0.0855492482        0.2500000000        0.0065583401
Se            0.0285551510        0.2500000000        0.1422202129
Se            0.5285552282        0.7500000000        0.0089249907
End final coordinates



     Writing output data file ./wfc-out/pwscf.save/
 
     init_run     :      1.92s CPU      2.30s WALL (       1 calls)
     electrons    :    598.60s CPU    664.80s WALL (      17 calls)
     update_pot   :      7.02s CPU      7.15s WALL (      16 calls)
     forces       :     15.44s CPU     17.73s WALL (      17 calls)

     Called by init_run:
     wfcinit      :      1.14s CPU      1.28s WALL (       1 calls)
     potinit      :      0.15s CPU      0.17s WALL (       1 calls)
     hinit0       :      0.31s CPU      0.35s WALL (       1 calls)

     Called by electrons:
     c_bands      :    478.43s CPU    494.31s WALL (     146 calls)
     sum_band     :     95.82s CPU    119.37s WALL (     146 calls)
     v_of_rho     :      5.30s CPU      5.48s WALL (     147 calls)
     newd         :     20.25s CPU     42.50s WALL (     147 calls)
     mix_rho      :      0.77s CPU      0.80s WALL (     146 calls)

     Called by c_bands:
     init_us_2    :     11.91s CPU     12.84s WALL (   19840 calls)
     cegterg      :    418.28s CPU    430.96s WALL (    9344 calls)

     Called by *egterg:
     cdiaghg      :     25.99s CPU     26.41s WALL (   35086 calls)
     h_psi        :    314.09s CPU    325.29s WALL (   37198 calls)
     s_psi        :     15.43s CPU     15.76s WALL (   37198 calls)
     g_psi        :      1.71s CPU      1.74s WALL (   27790 calls)

     Called by h_psi:
     h_psi:calbec :     22.32s CPU     22.97s WALL (   37198 calls)
     vloc_psi     :    269.75s CPU    279.89s WALL (   37198 calls)
     add_vuspsi   :     18.99s CPU     19.38s WALL (   37198 calls)

     General routines
     calbec       :     31.74s CPU     32.62s WALL (   50894 calls)
     fft          :      4.58s CPU      4.70s WALL (    2096 calls)
     ffts         :      0.15s CPU      0.15s WALL (     293 calls)
     fftw         :    287.99s CPU    298.54s WALL ( 1416948 calls)
     interpolate  :      0.35s CPU      0.36s WALL (     147 calls)
 
     Parallel routines
     fft_scatt_xy :     40.98s CPU     42.47s WALL ( 1419337 calls)
     fft_scatt_yz :    162.00s CPU    167.87s WALL ( 1419337 calls)
 
     PWSCF        :  10m26.85s CPU  13m 5.72s WALL

 
   This run was terminated on:   6:36:58   8May2023            

=------------------------------------------------------------------------------=
   JOB DONE.
=------------------------------------------------------------------------------=
