
     Program PWSCF v.6.6 starts on  8May2023 at  6:23:52 

     This program is part of the open-source Quantum ESPRESSO suite
     for quantum simulation of materials; please cite
         "P. Giannozzi et al., J. Phys.:Condens. Matter 21 395502 (2009);
         "P. Giannozzi et al., J. Phys.:Condens. Matter 29 465901 (2017);
          URL http://www.quantum-espresso.org", 
     in publications or presentations arising from this work. More details at
     http://www.quantum-espresso.org/quote

     Parallel version (MPI), running on    24 processors

     MPI processes distributed on     1 nodes
     R & G space division:  proc/nbgrp/npool/nimage =      24
     Fft bands division:     nmany     =       1
     Reading input from INCAR-relax.pw
Warning: card &CELL ignored
Warning: card     CELL_DYNAMICS  = "BFGS" ignored
Warning: card     ! CELL_DOFREE = "XY" ignored
Warning: card / ignored

     Current dimensions of program PWSCF are:
     Max number of different atomic species (ntypx) = 10
     Max number of k-points (npk) =  40000
     Max angular momentum in pseudopotentials (lmaxx) =  3

     Subspace diagonalization in iterative solution of the eigenvalue problem:
     a serial algorithm will be used

     Message from routine setup:
     using ibrav=0 with symmetry is DISCOURAGED, use correct ibrav instead
 
     Parallelization info
     --------------------
     sticks:   dense  smooth     PW     G-vecs:    dense   smooth      PW
     Min         135      71     20                26529    10319    1522
     Max         136      72     21                26546    10330    1535
     Sum        3243    1721    485               636825   247803   36593
 


     bravais-lattice index     =            0
     lattice parameter (alat)  =       8.3768  a.u.
     unit-cell volume          =    2565.2293 (a.u.)^3
     number of atoms/cell      =            4
     number of atomic types    =            2
     number of electrons       =        40.00
     number of Kohn-Sham states=           24
     kinetic-energy cutoff     =      80.0000  Ry
     charge density cutoff     =     600.0000  Ry
     convergence threshold     =      1.0E-10
     mixing beta               =       0.7000
     number of iterations used =            8  plain     mixing
     Exchange-correlation= SLA  PW   PBE  PBE
                           (   1   4   3   4   0   0   0)
     nstep                     =          100


     celldm(1)=   8.376807  celldm(2)=   0.000000  celldm(3)=   0.000000
     celldm(4)=   0.000000  celldm(5)=   0.000000  celldm(6)=   0.000000

     crystal axes: (cart. coord. in units of alat)
               a(1) = (   1.000000   0.000000   0.000000 )  
               a(2) = (   0.000000   0.967254   0.000000 )  
               a(3) = (   0.000000   0.000000   4.511805 )  

     reciprocal axes: (cart. coord. in units 2 pi/alat)
               b(1) = (  1.000000  0.000000  0.000000 )  
               b(2) = (  0.000000  1.033855  0.000000 )  
               b(3) = (  0.000000  0.000000  0.221641 )  


     PseudoPot. # 1 for Sn read from file:
     ./Sn_pbe_v1.uspp.F.UPF
     MD5 check sum: 4cf58ce39ec5d5d420df3dd08604eb00
     Pseudo is Ultrasoft + core correction, Zval = 14.0
     Generated by new atomic code, or converted to UPF format
     Using radial grid of  891 points,  6 beta functions with: 
                l(1) =   0
                l(2) =   0
                l(3) =   1
                l(4) =   1
                l(5) =   2
                l(6) =   2
     Q(r) pseudized with  6 coefficients,  rinner =    1.200   1.200   1.200
                                                       1.200   1.200

     PseudoPot. # 2 for Se read from file:
     ./Se_pbe_v1.uspp.F.UPF
     MD5 check sum: 1b3568f3a8ae88f9a2a0ad0698632c85
     Pseudo is Ultrasoft + core correction, Zval =  6.0
     Generated by new atomic code, or converted to UPF format
     Using radial grid of  877 points,  6 beta functions with: 
                l(1) =   0
                l(2) =   0
                l(3) =   1
                l(4) =   1
                l(5) =   2
                l(6) =   2
     Q(r) pseudized with  8 coefficients,  rinner =    1.300   1.300   1.300
                                                       1.300   1.300

     atomic species   valence    mass     pseudopotential
        Sn            14.00   118.71000     Sn( 1.00)
        Se             6.00    78.96000     Se( 1.00)

      2 Sym. Ops. (no inversion) found ( 1 have fractional translation)



   Cartesian axes

     site n.     atom                  positions (alat units)
         1           Sn  tau(   1) = (   0.5839905   0.7254402   0.6522097  )
         2           Sn  tau(   2) = (   0.0839891   0.2418134   0.0297310  )
         3           Se  tau(   3) = (   0.0301155   0.2418134   0.6421168  )
         4           Se  tau(   4) = (   0.5301129   0.7254402   0.0398164  )

     number of k points=    64  Marzari-Vanderbilt smearing, width (Ry)=  0.0100
                       cart. coord. in units 2pi/alat
        k(    1) = (   0.0000000   0.0000000   0.0000000), wk =   0.0088889
        k(    2) = (   0.0000000   0.0689237   0.0000000), wk =   0.0177778
        k(    3) = (   0.0000000   0.1378473   0.0000000), wk =   0.0177778
        k(    4) = (   0.0000000   0.2067710   0.0000000), wk =   0.0177778
        k(    5) = (   0.0000000   0.2756947   0.0000000), wk =   0.0177778
        k(    6) = (   0.0000000   0.3446184   0.0000000), wk =   0.0177778
        k(    7) = (   0.0000000   0.4135420   0.0000000), wk =   0.0177778
        k(    8) = (   0.0000000   0.4824657   0.0000000), wk =   0.0177778
        k(    9) = (   0.0666667   0.0000000   0.0000000), wk =   0.0177778
        k(   10) = (   0.0666667   0.0689237   0.0000000), wk =   0.0355556
        k(   11) = (   0.0666667   0.1378473   0.0000000), wk =   0.0355556
        k(   12) = (   0.0666667   0.2067710   0.0000000), wk =   0.0355556
        k(   13) = (   0.0666667   0.2756947   0.0000000), wk =   0.0355556
        k(   14) = (   0.0666667   0.3446184   0.0000000), wk =   0.0355556
        k(   15) = (   0.0666667   0.4135420   0.0000000), wk =   0.0355556
        k(   16) = (   0.0666667   0.4824657   0.0000000), wk =   0.0355556
        k(   17) = (   0.1333333   0.0000000   0.0000000), wk =   0.0177778
        k(   18) = (   0.1333333   0.0689237   0.0000000), wk =   0.0355556
        k(   19) = (   0.1333333   0.1378473   0.0000000), wk =   0.0355556
        k(   20) = (   0.1333333   0.2067710   0.0000000), wk =   0.0355556
        k(   21) = (   0.1333333   0.2756947   0.0000000), wk =   0.0355556
        k(   22) = (   0.1333333   0.3446184   0.0000000), wk =   0.0355556
        k(   23) = (   0.1333333   0.4135420   0.0000000), wk =   0.0355556
        k(   24) = (   0.1333333   0.4824657   0.0000000), wk =   0.0355556
        k(   25) = (   0.2000000   0.0000000   0.0000000), wk =   0.0177778
        k(   26) = (   0.2000000   0.0689237   0.0000000), wk =   0.0355556
        k(   27) = (   0.2000000   0.1378473   0.0000000), wk =   0.0355556
        k(   28) = (   0.2000000   0.2067710   0.0000000), wk =   0.0355556
        k(   29) = (   0.2000000   0.2756947   0.0000000), wk =   0.0355556
        k(   30) = (   0.2000000   0.3446184   0.0000000), wk =   0.0355556
        k(   31) = (   0.2000000   0.4135420   0.0000000), wk =   0.0355556
        k(   32) = (   0.2000000   0.4824657   0.0000000), wk =   0.0355556
        k(   33) = (   0.2666667   0.0000000   0.0000000), wk =   0.0177778
        k(   34) = (   0.2666667   0.0689237   0.0000000), wk =   0.0355556
        k(   35) = (   0.2666667   0.1378473   0.0000000), wk =   0.0355556
        k(   36) = (   0.2666667   0.2067710   0.0000000), wk =   0.0355556
        k(   37) = (   0.2666667   0.2756947   0.0000000), wk =   0.0355556
        k(   38) = (   0.2666667   0.3446184   0.0000000), wk =   0.0355556
        k(   39) = (   0.2666667   0.4135420   0.0000000), wk =   0.0355556
        k(   40) = (   0.2666667   0.4824657   0.0000000), wk =   0.0355556
        k(   41) = (   0.3333333   0.0000000   0.0000000), wk =   0.0177778
        k(   42) = (   0.3333333   0.0689237   0.0000000), wk =   0.0355556
        k(   43) = (   0.3333333   0.1378473   0.0000000), wk =   0.0355556
        k(   44) = (   0.3333333   0.2067710   0.0000000), wk =   0.0355556
        k(   45) = (   0.3333333   0.2756947   0.0000000), wk =   0.0355556
        k(   46) = (   0.3333333   0.3446184   0.0000000), wk =   0.0355556
        k(   47) = (   0.3333333   0.4135420   0.0000000), wk =   0.0355556
        k(   48) = (   0.3333333   0.4824657   0.0000000), wk =   0.0355556
        k(   49) = (   0.4000000   0.0000000   0.0000000), wk =   0.0177778
        k(   50) = (   0.4000000   0.0689237   0.0000000), wk =   0.0355556
        k(   51) = (   0.4000000   0.1378473   0.0000000), wk =   0.0355556
        k(   52) = (   0.4000000   0.2067710   0.0000000), wk =   0.0355556
        k(   53) = (   0.4000000   0.2756947   0.0000000), wk =   0.0355556
        k(   54) = (   0.4000000   0.3446184   0.0000000), wk =   0.0355556
        k(   55) = (   0.4000000   0.4135420   0.0000000), wk =   0.0355556
        k(   56) = (   0.4000000   0.4824657   0.0000000), wk =   0.0355556
        k(   57) = (   0.4666667   0.0000000   0.0000000), wk =   0.0177778
        k(   58) = (   0.4666667   0.0689237   0.0000000), wk =   0.0355556
        k(   59) = (   0.4666667   0.1378473   0.0000000), wk =   0.0355556
        k(   60) = (   0.4666667   0.2067710   0.0000000), wk =   0.0355556
        k(   61) = (   0.4666667   0.2756947   0.0000000), wk =   0.0355556
        k(   62) = (   0.4666667   0.3446184   0.0000000), wk =   0.0355556
        k(   63) = (   0.4666667   0.4135420   0.0000000), wk =   0.0355556
        k(   64) = (   0.4666667   0.4824657   0.0000000), wk =   0.0355556

     Dense  grid:   636825 G-vectors     FFT dimensions: (  72,  64, 300)

     Smooth grid:   247803 G-vectors     FFT dimensions: (  48,  48, 216)

     Estimated max dynamical RAM per process >     129.06 MB

     Estimated total dynamical RAM >       3.02 GB

     Initial potential from superposition of free atoms

     starting charge   37.99977, renormalised to   40.00000

     negative rho (up, down):  2.851E-03 0.000E+00
     Starting wfcs are   26 randomized atomic wfcs

     total cpu time spent up to now is        2.6 secs

     Self-consistent Calculation

     iteration #  1     ecut=    80.00 Ry     beta= 0.70
     Davidson diagonalization with overlap
     ethr =  1.00E-02,  avg # of iterations =  3.8

     negative rho (up, down):  5.698E-04 0.000E+00

     total cpu time spent up to now is        7.8 secs

     total energy              =    -413.23941915 Ry
     estimated scf accuracy    <       1.35145365 Ry

     iteration #  2     ecut=    80.00 Ry     beta= 0.70
     Davidson diagonalization with overlap
     ethr =  3.38E-03,  avg # of iterations =  2.2

     negative rho (up, down):  1.132E-04 0.000E+00

     total cpu time spent up to now is       12.6 secs

     total energy              =    -413.63384854 Ry
     estimated scf accuracy    <       0.68204296 Ry

     iteration #  3     ecut=    80.00 Ry     beta= 0.70
     Davidson diagonalization with overlap
     ethr =  1.71E-03,  avg # of iterations =  2.0

     negative rho (up, down):  2.600E-05 0.000E+00

     total cpu time spent up to now is       16.8 secs

     total energy              =    -413.79956745 Ry
     estimated scf accuracy    <       0.02432540 Ry

     iteration #  4     ecut=    80.00 Ry     beta= 0.70
     Davidson diagonalization with overlap
     ethr =  6.08E-05,  avg # of iterations =  3.0

     negative rho (up, down):  2.841E-05 0.000E+00

     total cpu time spent up to now is       21.1 secs

     total energy              =    -413.80356256 Ry
     estimated scf accuracy    <       0.00092336 Ry

     iteration #  5     ecut=    80.00 Ry     beta= 0.70
     Davidson diagonalization with overlap
     ethr =  2.31E-06,  avg # of iterations =  6.6

     negative rho (up, down):  2.858E-05 0.000E+00

     total cpu time spent up to now is       26.6 secs

     total energy              =    -413.80372866 Ry
     estimated scf accuracy    <       0.00071020 Ry

     iteration #  6     ecut=    80.00 Ry     beta= 0.70
     Davidson diagonalization with overlap
     ethr =  1.78E-06,  avg # of iterations =  4.2

     negative rho (up, down):  2.861E-05 0.000E+00

     total cpu time spent up to now is       31.2 secs

     total energy              =    -413.80380931 Ry
     estimated scf accuracy    <       0.00034016 Ry

     iteration #  7     ecut=    80.00 Ry     beta= 0.70
     Davidson diagonalization with overlap
     ethr =  8.50E-07,  avg # of iterations =  2.1

     negative rho (up, down):  2.830E-05 0.000E+00

     total cpu time spent up to now is       35.3 secs

     total energy              =    -413.80383982 Ry
     estimated scf accuracy    <       0.00003949 Ry

     iteration #  8     ecut=    80.00 Ry     beta= 0.70
     Davidson diagonalization with overlap
     ethr =  9.87E-08,  avg # of iterations =  3.3

     negative rho (up, down):  2.855E-05 0.000E+00

     total cpu time spent up to now is       39.7 secs

     total energy              =    -413.80384999 Ry
     estimated scf accuracy    <       0.00000023 Ry

     iteration #  9     ecut=    80.00 Ry     beta= 0.70
     Davidson diagonalization with overlap
     ethr =  5.70E-10,  avg # of iterations =  8.3

     negative rho (up, down):  2.872E-05 0.000E+00

     total cpu time spent up to now is       48.4 secs

     total energy              =    -413.80385154 Ry
     estimated scf accuracy    <       0.00000030 Ry

     iteration # 10     ecut=    80.00 Ry     beta= 0.70
     Davidson diagonalization with overlap
     ethr =  5.70E-10,  avg # of iterations =  2.0

     negative rho (up, down):  2.874E-05 0.000E+00

     total cpu time spent up to now is       52.6 secs

     total energy              =    -413.80385158 Ry
     estimated scf accuracy    <          9.7E-09 Ry

     iteration # 11     ecut=    80.00 Ry     beta= 0.70
     Davidson diagonalization with overlap
     ethr =  2.42E-11,  avg # of iterations =  3.8

     negative rho (up, down):  2.874E-05 0.000E+00

     total cpu time spent up to now is       57.4 secs

     total energy              =    -413.80385159 Ry
     estimated scf accuracy    <          1.3E-09 Ry

     iteration # 12     ecut=    80.00 Ry     beta= 0.70
     Davidson diagonalization with overlap
     ethr =  3.17E-12,  avg # of iterations =  2.7

     negative rho (up, down):  2.874E-05 0.000E+00

     total cpu time spent up to now is       61.8 secs

     End of self-consistent calculation

          k = 0.0000 0.0000 0.0000 ( 30991 PWs)   bands (ev):

   -22.2401 -22.2331 -22.2323 -22.2258 -22.2235 -22.1995 -22.1969 -22.1938
   -22.1852 -22.1810 -14.2132 -13.2051  -7.2241  -6.2198  -4.3564  -4.0130
    -3.8954  -2.7668  -2.7183  -1.5384   0.5961   2.3666   2.8213   2.9563

          k = 0.0000 0.0689 0.0000 ( 31021 PWs)   bands (ev):

   -22.2396 -22.2328 -22.2325 -22.2265 -22.2228 -22.1996 -22.1969 -22.1935
   -22.1855 -22.1810 -14.1936 -13.2013  -7.2845  -6.2940  -4.3547  -3.9941
    -3.8401  -2.7781  -2.6012  -1.5523   0.6098   2.4442   2.7541   2.8281

          k = 0.0000 0.1378 0.0000 ( 30999 PWs)   bands (ev):

   -22.2382 -22.2334 -22.2316 -22.2280 -22.2213 -22.2000 -22.1969 -22.1928
   -22.1862 -22.1811 -14.1362 -13.1920  -7.4457  -6.5015  -4.3282  -3.9219
    -3.6997  -2.7365  -2.3595  -1.5986   0.6559   2.2456   2.5318   2.5977

          k = 0.0000 0.2068 0.0000 ( 30999 PWs)   bands (ev):

   -22.2362 -22.2346 -22.2301 -22.2297 -22.2193 -22.2006 -22.1968 -22.1917
   -22.1874 -22.1813 -14.0440 -13.1837  -7.6601  -6.8013  -4.2479  -3.7893
    -3.5064  -2.6566  -2.0455  -1.6833   0.7469   1.6008   2.0700   2.5572

          k = 0.0000 0.2757 0.0000 ( 30983 PWs)   bands (ev):

   -22.2359 -22.2349 -22.2306 -22.2286 -22.2169 -22.2015 -22.1966 -22.1903
   -22.1888 -22.1816 -13.9231 -13.1865  -7.8735  -7.1411  -4.1076  -3.6042
    -3.2898  -2.5676  -1.7945  -1.6951   0.8947   0.9574   1.5915   2.1864

          k = 0.0000 0.3446 0.0000 ( 30915 PWs)   bands (ev):

   -22.2371 -22.2354 -22.2297 -22.2273 -22.2143 -22.2028 -22.1961 -22.1903
   -22.1887 -22.1822 -13.7820 -13.2119  -8.0388  -7.4743  -3.9163  -3.3845
    -3.1001  -2.5074  -1.8758  -1.3483   0.3849   1.0985   1.2044   1.6685

          k = 0.0000 0.4135 0.0000 ( 30897 PWs)   bands (ev):

   -22.2379 -22.2367 -22.2281 -22.2265 -22.2115 -22.2045 -22.1954 -22.1918
   -22.1870 -22.1830 -13.6322 -13.2696  -8.1216  -7.7636  -3.6895  -3.1954
    -2.9898  -2.5194  -1.8173  -1.1256   0.0243   0.9866   1.0526   1.4199

          k = 0.0000 0.4825 0.0000 ( 30886 PWs)   bands (ev):

   -22.2381 -22.2377 -22.2269 -22.2263 -22.2089 -22.2065 -22.1944 -22.1932
   -22.1854 -22.1840 -13.4878 -13.3631  -8.1030  -7.9801  -3.4508  -3.2452
    -2.8174  -2.6295  -1.5740  -1.2575   0.1257   0.5443   0.9802   1.1772

          k = 0.0667 0.0000 0.0000 ( 31021 PWs)   bands (ev):

   -22.2399 -22.2329 -22.2324 -22.2261 -22.2230 -22.1996 -22.1967 -22.1937
   -22.1853 -22.1812 -14.1957 -13.2043  -7.2901  -6.3014  -4.3525  -3.9414
    -3.8659  -2.6990  -2.6599  -1.5586   0.6095   2.4103   2.6610   2.9390

          k = 0.0667 0.0689 0.0000 ( 31004 PWs)   bands (ev):

   -22.2394 -22.2328 -22.2325 -22.2268 -22.2222 -22.1997 -22.1968 -22.1934
   -22.1856 -22.1812 -14.1763 -13.2004  -7.3405  -6.3667  -4.3451  -4.0643
    -3.6793  -2.8327  -2.4383  -1.5697   0.6247   2.3901   2.4775   2.9180

          k = 0.0667 0.1378 0.0000 ( 31006 PWs)   bands (ev):

   -22.2380 -22.2336 -22.2314 -22.2283 -22.2207 -22.2000 -22.1969 -22.1927
   -22.1864 -22.1813 -14.1192 -13.1908  -7.4787  -6.5526  -4.3103  -4.1298
    -3.4283  -2.8830  -2.1481  -1.6063   0.6745   1.8344   2.5615   2.8060

          k = 0.0667 0.2068 0.0000 ( 30988 PWs)   bands (ev):

   -22.2361 -22.2349 -22.2300 -22.2299 -22.2188 -22.2006 -22.1968 -22.1915
   -22.1876 -22.1814 -14.0277 -13.1820  -7.6691  -6.8280  -4.2280  -4.0972
    -3.1742  -2.8477  -1.8521  -1.6705   0.7681   1.2446   2.2816   2.4230

          k = 0.0667 0.2757 0.0000 ( 30968 PWs)   bands (ev):

   -22.2362 -22.2351 -22.2307 -22.2284 -22.2164 -22.2015 -22.1966 -22.1901
   -22.1890 -22.1817 -13.9077 -13.1838  -7.8644  -7.1477  -4.0906  -3.9729
    -2.9559  -2.7632  -1.7413  -1.5988   0.7406   0.9104   1.7435   1.9453

          k = 0.0667 0.3446 0.0000 ( 30940 PWs)   bands (ev):

   -22.2374 -22.2359 -22.2295 -22.2270 -22.2139 -22.2028 -22.1962 -22.1905
   -22.1885 -22.1822 -13.7679 -13.2079  -8.0186  -7.4665  -3.9044  -3.7752
    -2.8400  -2.6866  -1.7535  -1.4405   0.4100   1.0074   1.3057   1.5109

          k = 0.0667 0.4135 0.0000 ( 30903 PWs)   bands (ev):

   -22.2383 -22.2372 -22.2279 -22.2262 -22.2112 -22.2044 -22.1954 -22.1919
   -22.1868 -22.1829 -13.6198 -13.2638  -8.0962  -7.7461  -3.6855  -3.5386
    -2.8746  -2.6954  -1.6499  -1.3876   0.2628   0.6515   1.2611   1.4633

          k = 0.0667 0.4825 0.0000 ( 30867 PWs)   bands (ev):

   -22.2386 -22.2382 -22.2267 -22.2261 -22.2087 -22.2064 -22.1944 -22.1932
   -22.1853 -22.1839 -13.4775 -13.3551  -8.0768  -7.9566  -3.4679  -3.3701
    -2.9433  -2.8254  -1.4951  -1.4002   0.2222   0.3382   1.3174   1.6191

          k = 0.1333 0.0000 0.0000 ( 31002 PWs)   bands (ev):

   -22.2393 -22.2329 -22.2326 -22.2270 -22.2214 -22.1997 -22.1962 -22.1935
   -22.1855 -22.1818 -14.1442 -13.2037  -7.4611  -6.5231  -4.3204  -3.7784
    -3.7502  -2.6444  -2.3811  -1.6211   0.6554   2.1885   2.4888   2.6627

          k = 0.1333 0.0689 0.0000 ( 31001 PWs)   bands (ev):

   -22.2388 -22.2332 -22.2321 -22.2277 -22.2207 -22.1998 -22.1964 -22.1931
   -22.1859 -22.1817 -14.1251 -13.1995  -7.4892  -6.5675  -4.3043  -4.0854
    -3.4057  -2.8445  -2.1358  -1.6221   0.6744   1.8364   2.4941   2.8563

          k = 0.1333 0.1378 0.0000 ( 31002 PWs)   bands (ev):

   -22.2375 -22.2342 -22.2310 -22.2292 -22.2192 -22.2002 -22.1967 -22.1922
   -22.1867 -22.1817 -14.0691 -13.1889  -7.5718  -6.6996  -4.3194  -4.2554
    -3.0636  -3.0415  -1.8220  -1.6233   0.7322   1.3052   2.2776   2.9710

          k = 0.1333 0.2068 0.0000 ( 30999 PWs)   bands (ev):

   -22.2359 -22.2356 -22.2306 -22.2295 -22.2173 -22.2008 -22.1968 -22.1910
   -22.1880 -22.1816 -13.9795 -13.1784  -7.6978  -6.9094  -4.4325  -4.1697
    -3.1250  -2.7943  -1.6221  -1.6125   0.8252   0.8787   1.7516   2.8179

          k = 0.1333 0.2757 0.0000 ( 30983 PWs)   bands (ev):

   -22.2371 -22.2358 -22.2305 -22.2278 -22.2151 -22.2017 -22.1967 -22.1895
   -22.1894 -22.1818 -13.8625 -13.1774  -7.8402  -7.1708  -4.4152  -4.0423
    -3.1079  -2.6607  -1.6341  -1.5631   0.7002   0.8785   1.2937   2.4537

          k = 0.1333 0.3446 0.0000 ( 30991 PWs)   bands (ev):

   -22.2385 -22.2371 -22.2289 -22.2264 -22.2128 -22.2029 -22.1963 -22.1908
   -22.1880 -22.1822 -13.7267 -13.1973  -7.9603  -7.4458  -4.2802  -3.8742
    -3.0545  -2.6913  -1.8094  -1.4870   0.6138   0.7604   1.3265   2.0514

          k = 0.1333 0.4135 0.0000 ( 30949 PWs)   bands (ev):

   -22.2395 -22.2386 -22.2271 -22.2255 -22.2105 -22.2044 -22.1956 -22.1921
   -22.1864 -22.1828 -13.5840 -13.2476  -8.0214  -7.6955  -4.0538  -3.6858
    -3.0809  -2.8425  -1.9230  -1.4865   0.4122   0.8370   1.5754   1.8087

          k = 0.1333 0.4825 0.0000 ( 30900 PWs)   bands (ev):

   -22.2398 -22.2395 -22.2259 -22.2254 -22.2083 -22.2063 -22.1946 -22.1934
   -22.1849 -22.1837 -13.4479 -13.3323  -7.9993  -7.8875  -3.7797  -3.5881
    -3.1685  -3.0427  -1.8299  -1.6306   0.4682   0.6863   1.8718   1.9167

          k = 0.2000 0.0000 0.0000 ( 30980 PWs)   bands (ev):

   -22.2384 -22.2335 -22.2321 -22.2283 -22.2189 -22.2000 -22.1954 -22.1931
   -22.1860 -22.1827 -14.0615 -13.2086  -7.6791  -6.8308  -4.2352  -3.6365
    -3.4899  -2.5656  -2.0053  -1.7239   0.7474   1.5994   2.1765   2.4395

          k = 0.2000 0.0689 0.0000 ( 31014 PWs)   bands (ev):

   -22.2379 -22.2339 -22.2317 -22.2289 -22.2183 -22.2001 -22.1957 -22.1926
   -22.1864 -22.1826 -14.0431 -13.2038  -7.6849  -6.8526  -4.2156  -4.0152
    -3.1129  -2.7920  -1.7939  -1.7016   0.7698   1.2703   2.2434   2.4843

          k = 0.2000 0.1378 0.0000 ( 31018 PWs)   bands (ev):

   -22.2368 -22.2350 -22.2305 -22.2303 -22.2169 -22.2005 -22.1963 -22.1915
   -22.1874 -22.1823 -13.9890 -13.1916  -7.7055  -6.9219  -4.3925  -4.1599
    -3.1079  -2.7604  -1.6208  -1.5745   0.8291   0.8979   1.7559   2.8470

          k = 0.2000 0.2068 0.0000 ( 30994 PWs)   bands (ev):

   -22.2366 -22.2361 -22.2311 -22.2289 -22.2152 -22.2010 -22.1967 -22.1902
   -22.1886 -22.1821 -13.9028 -13.1778  -7.7477  -7.0450  -4.6537  -4.0765
    -3.3233  -2.5788  -1.6384  -1.4730   0.8233   0.8490   1.3110   2.9889

          k = 0.2000 0.2757 0.0000 ( 30997 PWs)   bands (ev):

   -22.2383 -22.2372 -22.2299 -22.2271 -22.2133 -22.2019 -22.1967 -22.1899
   -22.1888 -22.1820 -13.7908 -13.1718  -7.8095  -7.2184  -4.7659  -3.9731
    -3.4079  -2.5739  -1.9596  -1.3506   0.6257   1.0423   1.2987   2.7855

          k = 0.2000 0.3446 0.0000 ( 30992 PWs)   bands (ev):

   -22.2400 -22.2390 -22.2279 -22.2256 -22.2113 -22.2031 -22.1964 -22.1912
   -22.1873 -22.1822 -13.6620 -13.1844  -7.8715  -7.4207  -4.7247  -3.8477
    -3.4236  -2.6919  -2.3113  -1.4156   0.5167   1.3691   1.5060   2.4661

          k = 0.2000 0.4135 0.0000 ( 30953 PWs)   bands (ev):

   -22.2412 -22.2405 -22.2261 -22.2246 -22.2095 -22.2045 -22.1957 -22.1924
   -22.1858 -22.1827 -13.5283 -13.2252  -7.9022  -7.6181  -4.5497  -3.7524
    -3.4765  -2.8866  -2.4499  -1.6825   0.6718   1.5488   1.7789   2.2654

          k = 0.2000 0.4825 0.0000 ( 30964 PWs)   bands (ev):

   -22.2417 -22.2415 -22.2249 -22.2244 -22.2077 -22.2061 -22.1947 -22.1936
   -22.1845 -22.1834 -13.4029 -13.2988  -7.8745  -7.7773  -4.2749  -3.9545
    -3.3533  -3.1211  -2.3078  -2.0169   0.9782   1.3279   2.0738   2.2866

          k = 0.2667 0.0000 0.0000 ( 31012 PWs)   bands (ev):

   -22.2372 -22.2341 -22.2318 -22.2299 -22.2158 -22.2006 -22.1944 -22.1925
   -22.1866 -22.1839 -13.9527 -13.2268  -7.8873  -7.1683  -4.0939  -3.4468
    -3.2198  -2.4833  -1.8414  -1.5889   0.8977   0.9946   1.7135   2.1441

          k = 0.2667 0.0689 0.0000 ( 31033 PWs)   bands (ev):

   -22.2368 -22.2346 -22.2313 -22.2304 -22.2154 -22.2006 -22.1949 -22.1919
   -22.1871 -22.1836 -13.9352 -13.2211  -7.8764  -7.1717  -4.0749  -3.8658
    -2.8700  -2.7099  -1.7669  -1.4747   0.7851   0.9187   1.7572   2.0381

          k = 0.2667 0.1378 0.0000 ( 31014 PWs)   bands (ev):

   -22.2362 -22.2359 -22.2313 -22.2300 -22.2142 -22.2009 -22.1957 -22.1907
   -22.1882 -22.1831 -13.8839 -13.2061  -7.8474  -7.1864  -4.3475  -4.0220
    -3.1007  -2.6199  -1.5434  -1.5165   0.7416   0.9108   1.2972   2.5057

          k = 0.2667 0.2068 0.0000 ( 31001 PWs)   bands (ev):

   -22.2377 -22.2368 -22.2309 -22.2283 -22.2127 -22.2015 -22.1963 -22.1894
   -22.1893 -22.1826 -13.8026 -13.1874  -7.8115  -7.2242  -4.7365  -3.9518
    -3.4291  -2.5649  -1.8912  -1.3230   0.6533   1.0760   1.2983   2.7957

          k = 0.2667 0.2757 0.0000 ( 31018 PWs)   bands (ev):

   -22.2398 -22.2388 -22.2290 -22.2264 -22.2112 -22.2023 -22.1965 -22.1906
   -22.1879 -22.1823 -13.6981 -13.1737  -7.7823  -7.2965  -4.9831  -3.9016
    -3.6161  -2.6329  -2.3728  -1.3664   0.5890   1.5081   1.5733   2.7858

          k = 0.2667 0.3446 0.0000 ( 31002 PWs)   bands (ev):

   -22.2417 -22.2410 -22.2268 -22.2248 -22.2097 -22.2034 -22.1962 -22.1917
   -22.1865 -22.1823 -13.5796 -13.1756  -7.7656  -7.4029  -5.0594  -3.8714
    -3.7345  -2.7902  -2.7298  -1.6659   0.8098   1.7901   2.0651   2.6001

          k = 0.2667 0.4135 0.0000 ( 30988 PWs)   bands (ev):

   -22.2431 -22.2427 -22.2250 -22.2237 -22.2084 -22.2046 -22.1956 -22.1927
   -22.1851 -22.1826 -13.4587 -13.2028  -7.7495  -7.5249  -4.9664  -4.0259
    -3.7496  -3.0205  -2.7857  -2.0287   1.1445   2.1105   2.1887   2.5890

          k = 0.2667 0.4825 0.0000 ( 31004 PWs)   bands (ev):

   -22.2439 -22.2437 -22.2238 -22.2233 -22.2071 -22.2059 -22.1947 -22.1937
   -22.1840 -22.1831 -13.3486 -13.2607  -7.7109  -7.6348  -4.7309  -4.3949
    -3.5525  -3.2917  -2.6220  -2.3570   1.5082   1.8713   2.4275   2.6531

          k = 0.3333 0.0000 0.0000 ( 31084 PWs)   bands (ev):

   -22.2359 -22.2346 -22.2317 -22.2314 -22.2126 -22.2014 -22.1932 -22.1917
   -22.1875 -22.1852 -13.8248 -13.2667  -8.0424  -7.4917  -3.9043  -3.2205
    -3.0290  -2.4302  -1.8914  -1.1818   0.4426   1.1105   1.3518   1.6866

          k = 0.3333 0.0689 0.0000 ( 31037 PWs)   bands (ev):

   -22.2357 -22.2352 -22.2318 -22.2311 -22.2122 -22.2015 -22.1939 -22.1909
   -22.1880 -22.1848 -13.8086 -13.2598  -8.0212  -7.4817  -3.8883  -3.6568
    -2.7779  -2.6486  -1.7236  -1.2439   0.4579   1.0764   1.2957   1.6429

          k = 0.3333 0.1378 0.0000 ( 31036 PWs)   bands (ev):

   -22.2367 -22.2361 -22.2317 -22.2298 -22.2113 -22.2017 -22.1949 -22.1896
   -22.1892 -22.1840 -13.7612 -13.2407  -7.9603  -7.4554  -4.2008  -3.8452
    -3.0816  -2.6732  -1.6175  -1.4068   0.6878   0.8242   1.3131   2.1328

          k = 0.3333 0.2068 0.0000 ( 31016 PWs)   bands (ev):

   -22.2388 -22.2379 -22.2302 -22.2279 -22.2102 -22.2021 -22.1957 -22.1903
   -22.1882 -22.1833 -13.6867 -13.2150  -7.8685  -7.4233  -4.6832  -3.7993
    -3.5002  -2.6858  -2.1680  -1.3507   0.5779   1.4491   1.5100   2.4779

          k = 0.3333 0.2757 0.0000 ( 31016 PWs)   bands (ev):

   -22.2411 -22.2405 -22.2280 -22.2259 -22.2091 -22.2028 -22.1960 -22.1913
   -22.1869 -22.1828 -13.5922 -13.1908  -7.7617  -7.4012  -5.0468  -3.8812
    -3.7429  -2.7828  -2.6641  -1.6410   0.8441   1.8053   2.1297   2.5934

          k = 0.3333 0.3446 0.0000 ( 30988 PWs)   bands (ev):

   -22.2433 -22.2429 -22.2257 -22.2241 -22.2081 -22.2037 -22.1958 -22.1922
   -22.1856 -22.1825 -13.4872 -13.1786  -7.6612  -7.4030  -5.2491  -4.0897
    -3.9058  -2.9798  -2.9032  -2.0045   1.2113   2.1802   2.5371   2.7722

          k = 0.3333 0.4135 0.0000 ( 31008 PWs)   bands (ev):

   -22.2450 -22.2447 -22.2239 -22.2229 -22.2073 -22.2048 -22.1952 -22.1929
   -22.1845 -22.1826 -13.3833 -13.1880  -7.5830  -7.4313  -5.2647  -4.4134
    -3.9732  -3.2703  -2.8708  -2.2996   1.5597   2.3882   2.5804   3.1888

          k = 0.3333 0.4825 0.0000 ( 31000 PWs)   bands (ev):

   -22.2459 -22.2458 -22.2228 -22.2224 -22.2066 -22.2057 -22.1944 -22.1937
   -22.1835 -22.1829 -13.2927 -13.2258  -7.5254  -7.4758  -5.1010  -4.7965
    -3.8403  -3.5846  -2.7228  -2.5298   1.8758   2.1569   2.9385   3.1864

          k = 0.4000 0.0000 0.0000 ( 31028 PWs)   bands (ev):

   -22.2348 -22.2346 -22.2329 -22.2319 -22.2094 -22.2026 -22.1920 -22.1907
   -22.1884 -22.1866 -13.6877 -13.3347  -8.1160  -7.7686  -3.6787  -3.0292
    -2.9756  -2.4447  -1.7527  -0.9188   0.0920   1.1524   1.1646   1.3934

          k = 0.4000 0.0689 0.0000 ( 31028 PWs)   bands (ev):

   -22.2355 -22.2350 -22.2326 -22.2313 -22.2092 -22.2027 -22.1928 -22.1898
   -22.1891 -22.1860 -13.6730 -13.3260  -8.0898  -7.7496  -3.6680  -3.4205
    -2.8635  -2.6697  -1.5377  -1.1452   0.3124   0.7559   1.4230   1.4332

          k = 0.4000 0.1378 0.0000 ( 31022 PWs)   bands (ev):

   -22.2372 -22.2365 -22.2314 -22.2298 -22.2086 -22.2028 -22.1939 -22.1903
   -22.1885 -22.1850 -13.6306 -13.3017  -8.0131  -7.6950  -3.9773  -3.6458
    -3.1380  -2.8472  -1.6866  -1.3477   0.5042   0.9182   1.5585   1.9091

          k = 0.4000 0.2068 0.0000 ( 31017 PWs)   bands (ev):

   -22.2395 -22.2390 -22.2294 -22.2278 -22.2079 -22.2031 -22.1947 -22.1913
   -22.1872 -22.1841 -13.5647 -13.2669  -7.8917  -7.6126  -4.5139  -3.7235
    -3.5426  -2.8807  -2.2720  -1.5876   0.7633   1.6704   1.7894   2.2708

          k = 0.4000 0.2757 0.0000 ( 31002 PWs)   bands (ev):

   -22.2421 -22.2417 -22.2271 -22.2257 -22.2072 -22.2036 -22.1951 -22.1922
   -22.1859 -22.1834 -13.4826 -13.2297  -7.7380  -7.5160  -4.9604  -4.1175
    -3.6590  -2.9949  -2.7111  -1.9909   1.2013   2.1562   2.2544   2.6571

          k = 0.4000 0.3446 0.0000 ( 30994 PWs)   bands (ev):

   -22.2445 -22.2443 -22.2248 -22.2238 -22.2068 -22.2043 -22.1951 -22.1927
   -22.1848 -22.1829 -13.3942 -13.2001  -7.5746  -7.4239  -5.2717  -4.4815
    -3.8887  -3.2437  -2.8615  -2.2955   1.5766   2.3924   2.6262   3.3395

          k = 0.4000 0.4135 0.0000 ( 31032 PWs)   bands (ev):

   -22.2464 -22.2463 -22.2231 -22.2224 -22.2065 -22.2050 -22.1946 -22.1932
   -22.1838 -22.1827 -13.3109 -13.1882  -7.4349  -7.3560  -5.4086  -4.8159
    -4.0851  -3.5830  -2.8206  -2.4733   1.8758   2.3865   3.0766   3.6691

          k = 0.4000 0.4825 0.0000 ( 31000 PWs)   bands (ev):

   -22.2474 -22.2473 -22.2220 -22.2218 -22.2062 -22.2057 -22.1941 -22.1936
   -22.1831 -22.1827 -13.2440 -13.2020  -7.3502  -7.3275  -5.3521  -5.1302
    -4.0819  -3.8925  -2.7184  -2.6012   2.1149   2.2891   3.4197   3.6300

          k = 0.4667 0.0000 0.0000 ( 30970 PWs)   bands (ev):

   -22.2346 -22.2339 -22.2335 -22.2325 -22.2067 -22.2044 -22.1907 -22.1895
   -22.1894 -22.1880 -13.5526 -13.4317  -8.0940  -7.9751  -3.4337  -3.1979
    -2.7401  -2.5513  -1.4385  -1.0758   0.2314   0.6632   1.1502   1.3393

          k = 0.4667 0.0689 0.0000 ( 31006 PWs)   bands (ev):

   -22.2354 -22.2351 -22.2324 -22.2318 -22.2065 -22.2043 -22.1916 -22.1903
   -22.1886 -22.1873 -13.5399 -13.4210  -8.0670  -7.9505  -3.4369  -3.2826
    -2.9447  -2.8007  -1.3153  -1.1697   0.2968   0.4388   1.4766   1.6785

          k = 0.4667 0.1378 0.0000 ( 31031 PWs)   bands (ev):

   -22.2373 -22.2371 -22.2308 -22.2302 -22.2062 -22.2043 -22.1927 -22.1915
   -22.1873 -22.1861 -13.5033 -13.3906  -7.9873  -7.8785  -3.7150  -3.5265
    -3.2240  -3.0661  -1.6072  -1.4457   0.5700   0.7840   1.8419   1.9670

          k = 0.4667 0.2068 0.0000 ( 31038 PWs)   bands (ev):

   -22.2399 -22.2397 -22.2286 -22.2281 -22.2059 -22.2043 -22.1936 -22.1925
   -22.1861 -22.1851 -13.4474 -13.3455  -7.8596  -7.7644  -4.2595  -3.9648
    -3.3473  -3.1113  -2.1534  -1.8941   1.0870   1.4443   2.0855   2.2919

          k = 0.4667 0.2757 0.0000 ( 31012 PWs)   bands (ev):

   -22.2426 -22.2425 -22.2263 -22.2258 -22.2057 -22.2045 -22.1941 -22.1931
   -22.1850 -22.1841 -13.3798 -13.2933  -7.6941  -7.6191  -4.7479  -4.4473
    -3.4733  -3.2384  -2.5657  -2.3122   1.5700   1.9283   2.5078   2.7614

          k = 0.4667 0.3446 0.0000 ( 31017 PWs)   bands (ev):

   -22.2452 -22.2451 -22.2242 -22.2238 -22.2057 -22.2049 -22.1942 -22.1934
   -22.1840 -22.1834 -13.3105 -13.2441  -7.5100  -7.4610  -5.1296  -4.8512
    -3.7544  -3.5239  -2.7194  -2.5284   1.8941   2.1691   3.0349   3.3286

          k = 0.4667 0.4135 0.0000 ( 31036 PWs)   bands (ev):

   -22.2472 -22.2471 -22.2226 -22.2223 -22.2058 -22.2054 -22.1940 -22.1935
   -22.1833 -22.1829 -13.2505 -13.2086  -7.3416  -7.3192  -5.3709  -5.1579
    -4.0432  -3.8628  -2.7211  -2.6044   2.1191   2.2921   3.4582   3.6800

          k = 0.4667 0.4825 0.0000 ( 31003 PWs)   bands (ev):

   -22.2482 -22.2482 -22.2216 -22.2215 -22.2059 -22.2057 -22.1938 -22.1936
   -22.1829 -22.1827 -13.2099 -13.1956  -7.2372  -7.2323  -5.4472  -5.3640
    -4.1805  -4.1104  -2.6831  -2.6436   2.2653   2.3244   3.7068   3.8114

     the Fermi energy is    -0.8442 ev

!    total energy              =    -413.80385159 Ry
     estimated scf accuracy    <          4.1E-11 Ry
     smearing contrib. (-TS)   =       0.00007537 Ry
     internal energy E=F+TS    =    -413.80392695 Ry

     The total energy is F=E-TS. E is the sum of the following terms:
     one-electron contribution =   -1178.50566746 Ry
     hartree contribution      =     601.38341906 Ry
     xc contribution           =    -154.39739514 Ry
     ewald contribution        =     317.71571659 Ry

     convergence has been achieved in  12 iterations

     negative rho (up, down):  2.874E-05 0.000E+00

     Forces acting on atoms (cartesian axes, Ry/au):

     atom    1 type  1   force =     0.00086852    0.00000000   -0.00059788
     atom    2 type  1   force =     0.00086182    0.00000000    0.00059018
     atom    3 type  2   force =    -0.00086598    0.00000000   -0.00036692
     atom    4 type  2   force =    -0.00086436    0.00000000    0.00037462

     Total force =     0.001994     Total SCF correction =     0.000014

     BFGS Geometry Optimization

     number of scf cycles    =   1
     number of bfgs steps    =   0

     energy   new            =    -413.8038515854 Ry

     new trust radius        =       0.0010544146 bohr
     new conv_thr            =            1.0E-10 Ry


ATOMIC_POSITIONS (crystal)
Sn            0.5840941711        0.7500000000        0.1445404391
Sn            0.0840919593        0.2500000000        0.0066052210
Se            0.0300121647        0.2500000000        0.1423095382
Se            0.5300096790        0.7500000000        0.0088348556



     Writing output data file ./wfc-out/pwscf.save/
     NEW-OLD atomic charge density approx. for the potential

     negative rho (up, down):  3.491E-05 0.000E+00

     total cpu time spent up to now is       65.2 secs

     Self-consistent Calculation

     iteration #  1     ecut=    80.00 Ry     beta= 0.70
     Davidson diagonalization with overlap
     ethr =  1.00E-06,  avg # of iterations =  2.0

     Threshold (ethr) on eigenvalues was too large:
     Diagonalizing with lowered threshold

     Davidson diagonalization with overlap
     ethr =  2.56E-10,  avg # of iterations =  6.7

     negative rho (up, down):  2.860E-05 0.000E+00

     total cpu time spent up to now is       76.3 secs

     total energy              =    -413.80385539 Ry
     estimated scf accuracy    <       0.00000016 Ry

     iteration #  2     ecut=    80.00 Ry     beta= 0.70
     Davidson diagonalization with overlap
     ethr =  3.94E-10,  avg # of iterations =  2.1

     negative rho (up, down):  2.851E-05 0.000E+00

     total cpu time spent up to now is       80.5 secs

     total energy              =    -413.80385538 Ry
     estimated scf accuracy    <       0.00000010 Ry

     iteration #  3     ecut=    80.00 Ry     beta= 0.70
     Davidson diagonalization with overlap
     ethr =  2.60E-10,  avg # of iterations =  2.0

     negative rho (up, down):  2.866E-05 0.000E+00

     total cpu time spent up to now is       84.7 secs

     total energy              =    -413.80385540 Ry
     estimated scf accuracy    <          7.9E-09 Ry

     iteration #  4     ecut=    80.00 Ry     beta= 0.70
     Davidson diagonalization with overlap
     ethr =  1.98E-11,  avg # of iterations =  3.1

     negative rho (up, down):  2.872E-05 0.000E+00

     total cpu time spent up to now is       89.1 secs

     total energy              =    -413.80385540 Ry
     estimated scf accuracy    <       0.00000002 Ry

     iteration #  5     ecut=    80.00 Ry     beta= 0.70
     Davidson diagonalization with overlap
     ethr =  1.98E-11,  avg # of iterations =  2.6

     negative rho (up, down):  2.874E-05 0.000E+00

     total cpu time spent up to now is       93.2 secs

     total energy              =    -413.80385540 Ry
     estimated scf accuracy    <          9.3E-10 Ry

     iteration #  6     ecut=    80.00 Ry     beta= 0.70
     Davidson diagonalization with overlap
     ethr =  2.31E-12,  avg # of iterations =  2.6

     negative rho (up, down):  2.874E-05 0.000E+00

     total cpu time spent up to now is       97.4 secs

     End of self-consistent calculation

          k = 0.0000 0.0000 0.0000 ( 30991 PWs)   bands (ev):

   -22.2400 -22.2329 -22.2322 -22.2256 -22.2234 -22.1994 -22.1967 -22.1936
   -22.1850 -22.1808 -14.2150 -13.2063  -7.2251  -6.2200  -4.3571  -4.0134
    -3.8973  -2.7664  -2.7196  -1.5386   0.5968   2.3630   2.8204   2.9550

          k = 0.0000 0.0689 0.0000 ( 31021 PWs)   bands (ev):

   -22.2395 -22.2326 -22.2324 -22.2264 -22.2227 -22.1995 -22.1967 -22.1933
   -22.1852 -22.1808 -14.1954 -13.2024  -7.2855  -6.2942  -4.3555  -3.9948
    -3.8418  -2.7783  -2.6019  -1.5525   0.6105   2.4408   2.7522   2.8283

          k = 0.0000 0.1378 0.0000 ( 30999 PWs)   bands (ev):

   -22.2380 -22.2333 -22.2314 -22.2279 -22.2211 -22.1998 -22.1967 -22.1926
   -22.1860 -22.1809 -14.1379 -13.1931  -7.4468  -6.5018  -4.3291  -3.9229
    -3.7012  -2.7368  -2.3600  -1.5988   0.6566   2.2451   2.5310   2.5948

          k = 0.0000 0.2068 0.0000 ( 30999 PWs)   bands (ev):

   -22.2361 -22.2345 -22.2300 -22.2295 -22.2192 -22.2004 -22.1966 -22.1915
   -22.1872 -22.1811 -14.0458 -13.1849  -7.6612  -6.8016  -4.2489  -3.7905
    -3.5078  -2.6572  -2.0459  -1.6835   0.7476   1.6006   2.0698   2.5559

          k = 0.0000 0.2757 0.0000 ( 30983 PWs)   bands (ev):

   -22.2358 -22.2348 -22.2305 -22.2284 -22.2168 -22.2014 -22.1964 -22.1901
   -22.1886 -22.1814 -13.9248 -13.1877  -7.8746  -7.1416  -4.1087  -3.6055
    -3.2911  -2.5685  -1.7947  -1.6955   0.8954   0.9575   1.5919   2.1865

          k = 0.0000 0.3446 0.0000 ( 30915 PWs)   bands (ev):

   -22.2370 -22.2353 -22.2295 -22.2271 -22.2141 -22.2026 -22.1959 -22.1901
   -22.1885 -22.1820 -13.7836 -13.2132  -8.0399  -7.4749  -3.9175  -3.3862
    -3.1014  -2.5085  -1.8760  -1.3488   0.3853   1.0991   1.2053   1.6692

          k = 0.0000 0.4135 0.0000 ( 30897 PWs)   bands (ev):

   -22.2378 -22.2366 -22.2280 -22.2263 -22.2114 -22.2043 -22.1952 -22.1916
   -22.1868 -22.1827 -13.6338 -13.2710  -8.1227  -7.7643  -3.6907  -3.1974
    -2.9909  -2.5209  -1.8175  -1.1265   0.0253   0.9878   1.0532   1.4209

          k = 0.0000 0.4825 0.0000 ( 30886 PWs)   bands (ev):

   -22.2380 -22.2376 -22.2268 -22.2262 -22.2088 -22.2064 -22.1942 -22.1930
   -22.1852 -22.1838 -13.4893 -13.3645  -8.1040  -7.9810  -3.4522  -3.2468
    -2.8188  -2.6311  -1.5746  -1.2584   0.1267   0.5452   0.9816   1.1786

          k = 0.0667 0.0000 0.0000 ( 31021 PWs)   bands (ev):

   -22.2398 -22.2328 -22.2323 -22.2259 -22.2229 -22.1994 -22.1965 -22.1935
   -22.1851 -22.1810 -14.1975 -13.2055  -7.2910  -6.3015  -4.3532  -3.9420
    -3.8678  -2.7003  -2.6595  -1.5588   0.6102   2.4067   2.6591   2.9390

          k = 0.0667 0.0689 0.0000 ( 31004 PWs)   bands (ev):

   -22.2393 -22.2327 -22.2323 -22.2267 -22.2221 -22.1995 -22.1966 -22.1932
   -22.1853 -22.1810 -14.1781 -13.2015  -7.3415  -6.3669  -4.3458  -4.0653
    -3.6807  -2.8332  -2.4387  -1.5699   0.6254   2.3890   2.4740   2.9179

          k = 0.0667 0.1378 0.0000 ( 31006 PWs)   bands (ev):

   -22.2379 -22.2335 -22.2313 -22.2282 -22.2206 -22.1999 -22.1967 -22.1925
   -22.1862 -22.1810 -14.1209 -13.1919  -7.4797  -6.5529  -4.3112  -4.1309
    -3.4297  -2.8834  -2.1486  -1.6065   0.6752   1.8341   2.5589   2.8052

          k = 0.0667 0.2068 0.0000 ( 30988 PWs)   bands (ev):

   -22.2360 -22.2347 -22.2298 -22.2298 -22.2186 -22.2005 -22.1967 -22.1913
   -22.1874 -22.1812 -14.0294 -13.1831  -7.6702  -6.8283  -4.2290  -4.0984
    -3.1756  -2.8482  -1.8526  -1.6706   0.7688   1.2448   2.2813   2.4227

          k = 0.0667 0.2757 0.0000 ( 30968 PWs)   bands (ev):

   -22.2361 -22.2349 -22.2305 -22.2282 -22.2163 -22.2014 -22.1964 -22.1899
   -22.1888 -22.1815 -13.9094 -13.1851  -7.8655  -7.1482  -4.0917  -3.9741
    -2.9574  -2.7639  -1.7415  -1.5995   0.7411   0.9111   1.7442   1.9454

          k = 0.0667 0.3446 0.0000 ( 30940 PWs)   bands (ev):

   -22.2373 -22.2358 -22.2293 -22.2269 -22.2138 -22.2027 -22.1960 -22.1903
   -22.1883 -22.1820 -13.7695 -13.2092  -8.0197  -7.4671  -3.9056  -3.7766
    -2.8414  -2.6875  -1.7538  -1.4412   0.4108   1.0080   1.3068   1.5114

          k = 0.0667 0.4135 0.0000 ( 30903 PWs)   bands (ev):

   -22.2382 -22.2371 -22.2277 -22.2261 -22.2111 -22.2043 -22.1952 -22.1917
   -22.1866 -22.1827 -13.6214 -13.2651  -8.0973  -7.7468  -3.6868  -3.5402
    -2.8759  -2.6967  -1.6504  -1.3882   0.2636   0.6525   1.2621   1.4642

          k = 0.0667 0.4825 0.0000 ( 30867 PWs)   bands (ev):

   -22.2384 -22.2381 -22.2265 -22.2259 -22.2086 -22.2063 -22.1942 -22.1930
   -22.1851 -22.1837 -13.4790 -13.3565  -8.0778  -7.9575  -3.4693  -3.3718
    -2.9444  -2.8267  -1.4957  -1.4008   0.2232   0.3393   1.3186   1.6203

          k = 0.1333 0.0000 0.0000 ( 31002 PWs)   bands (ev):

   -22.2392 -22.2328 -22.2324 -22.2268 -22.2212 -22.1996 -22.1960 -22.1933
   -22.1853 -22.1816 -14.1460 -13.2049  -7.4619  -6.5231  -4.3211  -3.7803
    -3.7508  -2.6458  -2.3809  -1.6214   0.6561   2.1869   2.4853   2.6626

          k = 0.1333 0.0689 0.0000 ( 31001 PWs)   bands (ev):

   -22.2387 -22.2331 -22.2320 -22.2275 -22.2206 -22.1997 -22.1962 -22.1929
   -22.1857 -22.1815 -14.1269 -13.2007  -7.4901  -6.5676  -4.3051  -4.0867
    -3.4070  -2.8453  -2.1361  -1.6223   0.6752   1.8356   2.4910   2.8556

          k = 0.1333 0.1378 0.0000 ( 31002 PWs)   bands (ev):

   -22.2374 -22.2341 -22.2309 -22.2290 -22.2191 -22.2000 -22.1965 -22.1920
   -22.1865 -22.1814 -14.0709 -13.1902  -7.5727  -6.6998  -4.3206  -4.2563
    -3.0650  -3.0420  -1.8226  -1.6235   0.7329   1.3051   2.2765   2.9702

          k = 0.1333 0.2068 0.0000 ( 30999 PWs)   bands (ev):

   -22.2358 -22.2354 -22.2305 -22.2293 -22.2172 -22.2006 -22.1966 -22.1908
   -22.1878 -22.1814 -13.9813 -13.1796  -7.6988  -6.9097  -4.4337  -4.1708
    -3.1254  -2.7958  -1.6229  -1.6127   0.8259   0.8791   1.7520   2.8174

          k = 0.1333 0.2757 0.0000 ( 30983 PWs)   bands (ev):

   -22.2370 -22.2357 -22.2304 -22.2277 -22.2150 -22.2015 -22.1965 -22.1893
   -22.1892 -22.1816 -13.8642 -13.1787  -7.8412  -7.1713  -4.4164  -4.0435
    -3.1083  -2.6622  -1.6349  -1.5634   0.7011   0.8792   1.2947   2.4537

          k = 0.1333 0.3446 0.0000 ( 30991 PWs)   bands (ev):

   -22.2384 -22.2370 -22.2287 -22.2263 -22.2127 -22.2028 -22.1961 -22.1906
   -22.1878 -22.1820 -13.7284 -13.1986  -7.9614  -7.4464  -4.2814  -3.8755
    -3.0552  -2.6927  -1.8100  -1.4875   0.6147   0.7612   1.3275   2.0517

          k = 0.1333 0.4135 0.0000 ( 30949 PWs)   bands (ev):

   -22.2393 -22.2385 -22.2270 -22.2254 -22.2104 -22.2043 -22.1954 -22.1919
   -22.1862 -22.1826 -13.5855 -13.2489  -8.0225  -7.6963  -4.0550  -3.6872
    -3.0819  -2.8437  -1.9231  -1.4870   0.4132   0.8376   1.5763   1.8094

          k = 0.1333 0.4825 0.0000 ( 30900 PWs)   bands (ev):

   -22.2397 -22.2394 -22.2258 -22.2252 -22.2082 -22.2061 -22.1944 -22.1932
   -22.1847 -22.1835 -13.4494 -13.3337  -8.0004  -7.8884  -3.7811  -3.5896
    -3.1696  -3.0439  -1.8299  -1.6308   0.4689   0.6868   1.8728   1.9178

          k = 0.2000 0.0000 0.0000 ( 30980 PWs)   bands (ev):

   -22.2382 -22.2334 -22.2320 -22.2282 -22.2188 -22.1999 -22.1952 -22.1929
   -22.1858 -22.1825 -14.0633 -13.2098  -7.6798  -6.8308  -4.2359  -3.6385
    -3.4907  -2.5671  -2.0052  -1.7243   0.7483   1.5981   2.1765   2.4367

          k = 0.2000 0.0689 0.0000 ( 31014 PWs)   bands (ev):

   -22.2378 -22.2338 -22.2315 -22.2288 -22.2182 -22.2000 -22.1955 -22.1924
   -22.1862 -22.1824 -14.0449 -13.2051  -7.6855  -6.8527  -4.2164  -4.0167
    -3.1143  -2.7932  -1.7942  -1.7019   0.7707   1.2697   2.2419   2.4838

          k = 0.2000 0.1378 0.0000 ( 31018 PWs)   bands (ev):

   -22.2367 -22.2349 -22.2303 -22.2302 -22.2168 -22.2003 -22.1961 -22.1913
   -22.1872 -22.1821 -13.9907 -13.1928  -7.7063  -6.9220  -4.3939  -4.1608
    -3.1087  -2.7619  -1.6211  -1.5752   0.8300   0.8980   1.7558   2.8466

          k = 0.2000 0.2068 0.0000 ( 30994 PWs)   bands (ev):

   -22.2365 -22.2360 -22.2309 -22.2287 -22.2151 -22.2009 -22.1965 -22.1900
   -22.1884 -22.1818 -13.9045 -13.1791  -7.7486  -7.0453  -4.6550  -4.0777
    -3.3239  -2.5802  -1.6392  -1.4735   0.8238   0.8498   1.3116   2.9891

          k = 0.2000 0.2757 0.0000 ( 30997 PWs)   bands (ev):

   -22.2382 -22.2371 -22.2298 -22.2270 -22.2131 -22.2018 -22.1965 -22.1897
   -22.1886 -22.1818 -13.7925 -13.1731  -7.8105  -7.2189  -4.7670  -3.9744
    -3.4084  -2.5752  -1.9602  -1.3511   0.6265   1.0430   1.2996   2.7859

          k = 0.2000 0.3446 0.0000 ( 30992 PWs)   bands (ev):

   -22.2399 -22.2389 -22.2278 -22.2255 -22.2112 -22.2029 -22.1962 -22.1910
   -22.1871 -22.1820 -13.6637 -13.1857  -7.8726  -7.4213  -4.7257  -3.8492
    -3.4242  -2.6932  -2.3114  -1.4159   0.5175   1.3698   1.5068   2.4666

          k = 0.2000 0.4135 0.0000 ( 30953 PWs)   bands (ev):

   -22.2411 -22.2404 -22.2260 -22.2245 -22.2094 -22.2043 -22.1955 -22.1922
   -22.1856 -22.1824 -13.5298 -13.2265  -7.9034  -7.6190  -4.5508  -3.7539
    -3.4775  -2.8880  -2.4495  -1.6825   0.6722   1.5490   1.7798   2.2663

          k = 0.2000 0.4825 0.0000 ( 30964 PWs)   bands (ev):

   -22.2416 -22.2414 -22.2247 -22.2242 -22.2076 -22.2059 -22.1945 -22.1934
   -22.1843 -22.1832 -13.4044 -13.3002  -7.8756  -7.7783  -4.2760  -3.9557
    -3.3546  -3.1225  -2.3073  -2.0166   0.9784   1.3281   2.0746   2.2877

          k = 0.2667 0.0000 0.0000 ( 31012 PWs)   bands (ev):

   -22.2371 -22.2340 -22.2316 -22.2297 -22.2157 -22.2004 -22.1942 -22.1923
   -22.1864 -22.1837 -13.9545 -13.2281  -7.8878  -7.1683  -4.0946  -3.4488
    -3.2208  -2.4850  -1.8418  -1.5889   0.8987   0.9934   1.7138   2.1424

          k = 0.2667 0.0689 0.0000 ( 31033 PWs)   bands (ev):

   -22.2367 -22.2345 -22.2311 -22.2302 -22.2153 -22.2005 -22.1947 -22.1917
   -22.1869 -22.1834 -13.9369 -13.2225  -7.8769  -7.1717  -4.0757  -3.8674
    -2.8713  -2.7114  -1.7673  -1.4750   0.7846   0.9197   1.7567   2.0379

          k = 0.2667 0.1378 0.0000 ( 31014 PWs)   bands (ev):

   -22.2361 -22.2358 -22.2312 -22.2299 -22.2141 -22.2008 -22.1955 -22.1905
   -22.1880 -22.1829 -13.8856 -13.2074  -7.8480  -7.1865  -4.3490  -4.0229
    -3.1019  -2.6213  -1.5440  -1.5170   0.7417   0.9116   1.2975   2.5056

          k = 0.2667 0.2068 0.0000 ( 31001 PWs)   bands (ev):

   -22.2376 -22.2367 -22.2307 -22.2281 -22.2126 -22.2013 -22.1961 -22.1892
   -22.1891 -22.1824 -13.8044 -13.1887  -7.8123  -7.2244  -4.7379  -3.9529
    -3.4300  -2.5662  -1.8915  -1.3236   0.6540   1.0764   1.2991   2.7964

          k = 0.2667 0.2757 0.0000 ( 31018 PWs)   bands (ev):

   -22.2396 -22.2387 -22.2288 -22.2263 -22.2110 -22.2021 -22.1963 -22.1904
   -22.1877 -22.1821 -13.6998 -13.1751  -7.7832  -7.2970  -4.9843  -3.9030
    -3.6168  -2.6342  -2.3728  -1.3666   0.5896   1.5088   1.5738   2.7867

          k = 0.2667 0.3446 0.0000 ( 31002 PWs)   bands (ev):

   -22.2416 -22.2409 -22.2267 -22.2246 -22.2096 -22.2032 -22.1960 -22.1915
   -22.1863 -22.1821 -13.5812 -13.1770  -7.7667  -7.4036  -5.0604  -3.8729
    -3.7355  -2.7916  -2.7293  -1.6657   0.8101   1.7907   2.0656   2.6009

          k = 0.2667 0.4135 0.0000 ( 30988 PWs)   bands (ev):

   -22.2430 -22.2426 -22.2248 -22.2235 -22.2082 -22.2044 -22.1954 -22.1925
   -22.1849 -22.1823 -13.4603 -13.2042  -7.7507  -7.5259  -4.9673  -4.0269
    -3.7510  -3.0219  -2.7850  -2.0281   1.1447   2.1111   2.1889   2.5900

          k = 0.2667 0.4825 0.0000 ( 31004 PWs)   bands (ev):

   -22.2437 -22.2436 -22.2236 -22.2232 -22.2070 -22.2057 -22.1945 -22.1935
   -22.1838 -22.1829 -13.3501 -13.2622  -7.7121  -7.6359  -4.7317  -4.3958
    -3.5539  -3.2931  -2.6213  -2.3564   1.5084   1.8715   2.4281   2.6538

          k = 0.3333 0.0000 0.0000 ( 31084 PWs)   bands (ev):

   -22.2358 -22.2345 -22.2315 -22.2313 -22.2125 -22.2013 -22.1930 -22.1915
   -22.1873 -22.1850 -13.8266 -13.2682  -8.0427  -7.4917  -3.9051  -3.2226
    -3.0301  -2.4321  -1.8919  -1.1820   0.4417   1.1116   1.3524   1.6856

          k = 0.3333 0.0689 0.0000 ( 31037 PWs)   bands (ev):

   -22.2356 -22.2351 -22.2316 -22.2310 -22.2121 -22.2013 -22.1937 -22.1907
   -22.1878 -22.1846 -13.8104 -13.2612  -8.0215  -7.4817  -3.8891  -3.6585
    -2.7792  -2.6504  -1.7242  -1.2441   0.4574   1.0773   1.2958   1.6432

          k = 0.3333 0.1378 0.0000 ( 31036 PWs)   bands (ev):

   -22.2366 -22.2360 -22.2316 -22.2296 -22.2112 -22.2016 -22.1947 -22.1894
   -22.1890 -22.1838 -13.7629 -13.2422  -7.9607  -7.4554  -4.2024  -3.8461
    -3.0833  -2.6744  -1.6176  -1.4075   0.6882   0.8239   1.3139   2.1331

          k = 0.3333 0.2068 0.0000 ( 31016 PWs)   bands (ev):

   -22.2387 -22.2378 -22.2301 -22.2278 -22.2101 -22.2020 -22.1955 -22.1901
   -22.1880 -22.1831 -13.6885 -13.2164  -7.8691  -7.4236  -4.6846  -3.8004
    -3.5017  -2.6870  -2.1677  -1.3510   0.5782   1.4491   1.5107   2.4787

          k = 0.3333 0.2757 0.0000 ( 31016 PWs)   bands (ev):

   -22.2410 -22.2404 -22.2278 -22.2257 -22.2090 -22.2027 -22.1958 -22.1911
   -22.1867 -22.1826 -13.5939 -13.1923  -7.7625  -7.4017  -5.0481  -3.8830
    -3.7439  -2.7841  -2.6634  -1.6408   0.8444   1.8059   2.1298   2.5944

          k = 0.3333 0.3446 0.0000 ( 30988 PWs)   bands (ev):

   -22.2432 -22.2428 -22.2256 -22.2240 -22.2080 -22.2036 -22.1956 -22.1920
   -22.1854 -22.1823 -13.4888 -13.1800  -7.6622  -7.4037  -5.2501  -4.0912
    -3.9067  -2.9811  -2.9025  -2.0039   1.2116   2.1805   2.5378   2.7726

          k = 0.3333 0.4135 0.0000 ( 31008 PWs)   bands (ev):

   -22.2449 -22.2446 -22.2238 -22.2227 -22.2072 -22.2046 -22.1950 -22.1927
   -22.1842 -22.1823 -13.3848 -13.1895  -7.5842  -7.4324  -5.2655  -4.4143
    -3.9743  -3.2716  -2.8703  -2.2990   1.5600   2.3887   2.5805   3.1892

          k = 0.3333 0.4825 0.0000 ( 31000 PWs)   bands (ev):

   -22.2457 -22.2457 -22.2226 -22.2223 -22.2064 -22.2056 -22.1942 -22.1935
   -22.1833 -22.1827 -13.2942 -13.2273  -7.5267  -7.4771  -5.1017  -4.7971
    -3.8414  -3.5857  -2.7224  -2.5294   1.8761   2.1572   2.9386   3.1866

          k = 0.4000 0.0000 0.0000 ( 31028 PWs)   bands (ev):

   -22.2347 -22.2345 -22.2327 -22.2318 -22.2093 -22.2025 -22.1918 -22.1905
   -22.1882 -22.1864 -13.6894 -13.3362  -8.1162  -7.7686  -3.6795  -3.0303
    -2.9778  -2.4469  -1.7534  -0.9195   0.0916   1.1532   1.1642   1.3944

          k = 0.4000 0.0689 0.0000 ( 31028 PWs)   bands (ev):

   -22.2354 -22.2349 -22.2325 -22.2312 -22.2091 -22.2025 -22.1926 -22.1896
   -22.1889 -22.1858 -13.6748 -13.3276  -8.0901  -7.7496  -3.6689  -3.4223
    -2.8647  -2.6718  -1.5385  -1.1454   0.3117   0.7560   1.4236   1.4342

          k = 0.4000 0.1378 0.0000 ( 31022 PWs)   bands (ev):

   -22.2371 -22.2364 -22.2313 -22.2297 -22.2085 -22.2026 -22.1937 -22.1901
   -22.1883 -22.1848 -13.6323 -13.3033  -8.0134  -7.6951  -3.9790  -3.6467
    -3.1401  -2.8483  -1.6862  -1.3482   0.5043   0.9174   1.5593   1.9098

          k = 0.4000 0.2068 0.0000 ( 31017 PWs)   bands (ev):

   -22.2394 -22.2389 -22.2293 -22.2277 -22.2077 -22.2029 -22.1945 -22.1912
   -22.1870 -22.1839 -13.5664 -13.2684  -7.8921  -7.6129  -4.5155  -3.7251
    -3.5440  -2.8819  -2.2713  -1.5875   0.7633   1.6697   1.7900   2.2718

          k = 0.4000 0.2757 0.0000 ( 31002 PWs)   bands (ev):

   -22.2420 -22.2416 -22.2269 -22.2255 -22.2071 -22.2034 -22.1949 -22.1920
   -22.1857 -22.1832 -13.4843 -13.2312  -7.7387  -7.5164  -4.9618  -4.1193
    -3.6600  -2.9961  -2.7102  -1.9903   1.2015   2.1564   2.2548   2.6572

          k = 0.4000 0.3446 0.0000 ( 30994 PWs)   bands (ev):

   -22.2444 -22.2442 -22.2247 -22.2236 -22.2067 -22.2041 -22.1949 -22.1926
   -22.1846 -22.1827 -13.3958 -13.2015  -7.5755  -7.4247  -5.2727  -4.4829
    -3.8895  -3.2448  -2.8609  -2.2950   1.5770   2.3931   2.6261   3.3393

          k = 0.4000 0.4135 0.0000 ( 31032 PWs)   bands (ev):

   -22.2463 -22.2462 -22.2230 -22.2223 -22.2064 -22.2049 -22.1945 -22.1930
   -22.1836 -22.1825 -13.3125 -13.1897  -7.4362  -7.3572  -5.4093  -4.8167
    -4.0859  -3.5840  -2.8203  -2.4729   1.8761   2.3869   3.0764   3.6689

          k = 0.4000 0.4825 0.0000 ( 31000 PWs)   bands (ev):

   -22.2473 -22.2472 -22.2219 -22.2217 -22.2060 -22.2055 -22.1939 -22.1934
   -22.1829 -22.1825 -13.2455 -13.2034  -7.3517  -7.3290  -5.3525  -5.1305
    -4.0828  -3.8934  -2.7181  -2.6010   2.1151   2.2893   3.4195   3.6300

          k = 0.4667 0.0000 0.0000 ( 30970 PWs)   bands (ev):

   -22.2345 -22.2338 -22.2333 -22.2324 -22.2065 -22.2043 -22.1905 -22.1893
   -22.1892 -22.1878 -13.5543 -13.4333  -8.0941  -7.9751  -3.4346  -3.1988
    -2.7423  -2.5536  -1.4394  -1.0768   0.2313   0.6630   1.1511   1.3402

          k = 0.4667 0.0689 0.0000 ( 31006 PWs)   bands (ev):

   -22.2353 -22.2350 -22.2323 -22.2316 -22.2064 -22.2042 -22.1914 -22.1901
   -22.1884 -22.1871 -13.5416 -13.4226  -8.0671  -7.9506  -3.4378  -3.2839
    -2.9465  -2.8030  -1.3161  -1.1701   0.2963   0.4387   1.4773   1.6792

          k = 0.4667 0.1378 0.0000 ( 31031 PWs)   bands (ev):

   -22.2372 -22.2370 -22.2306 -22.2300 -22.2061 -22.2041 -22.1925 -22.1913
   -22.1871 -22.1859 -13.5049 -13.3923  -7.9874  -7.8786  -3.7168  -3.5279
    -3.2257  -3.0673  -1.6069  -1.4457   0.5696   0.7832   1.8427   1.9678

          k = 0.4667 0.2068 0.0000 ( 31038 PWs)   bands (ev):

   -22.2398 -22.2396 -22.2285 -22.2279 -22.2058 -22.2042 -22.1934 -22.1923
   -22.1859 -22.1849 -13.4490 -13.3471  -7.8600  -7.7647  -4.2613  -3.9667
    -3.3485  -3.1125  -2.1527  -1.8936   1.0867   1.4439   2.0859   2.2924

          k = 0.4667 0.2757 0.0000 ( 31012 PWs)   bands (ev):

   -22.2425 -22.2424 -22.2262 -22.2257 -22.2056 -22.2044 -22.1939 -22.1929
   -22.1848 -22.1839 -13.3814 -13.2948  -7.6947  -7.6196  -4.7494  -4.4490
    -3.4744  -3.2396  -2.5649  -2.3115   1.5703   1.9287   2.5076   2.7610

          k = 0.4667 0.3446 0.0000 ( 31017 PWs)   bands (ev):

   -22.2451 -22.2450 -22.2240 -22.2237 -22.2056 -22.2048 -22.1940 -22.1932
   -22.1838 -22.1832 -13.3120 -13.2456  -7.5109  -7.4618  -5.1308  -4.8524
    -3.7552  -3.5248  -2.7189  -2.5279   1.8946   2.1697   3.0344   3.3280

          k = 0.4667 0.4135 0.0000 ( 31036 PWs)   bands (ev):

   -22.2471 -22.2470 -22.2224 -22.2222 -22.2057 -22.2052 -22.1939 -22.1934
   -22.1831 -22.1827 -13.2520 -13.2101  -7.3430  -7.3205  -5.3716  -5.1586
    -4.0439  -3.8636  -2.7209  -2.6041   2.1195   2.2925   3.4577   3.6796

          k = 0.4667 0.4825 0.0000 ( 31003 PWs)   bands (ev):

   -22.2481 -22.2481 -22.2215 -22.2214 -22.2057 -22.2056 -22.1936 -22.1934
   -22.1827 -22.1825 -13.2114 -13.1971  -7.2389  -7.2340  -5.4474  -5.3642
    -4.1813  -4.1112  -2.6829  -2.6434   2.2655   2.3245   3.7066   3.8112

     the Fermi energy is    -0.8453 ev

!    total energy              =    -413.80385540 Ry
     estimated scf accuracy    <          6.1E-11 Ry
     smearing contrib. (-TS)   =       0.00007599 Ry
     internal energy E=F+TS    =    -413.80393139 Ry

     The total energy is F=E-TS. E is the sum of the following terms:
     one-electron contribution =   -1178.62384014 Ry
     hartree contribution      =     601.44223808 Ry
     xc contribution           =    -154.39786201 Ry
     ewald contribution        =     317.77553268 Ry

     convergence has been achieved in   6 iterations

     negative rho (up, down):  2.874E-05 0.000E+00

     Forces acting on atoms (cartesian axes, Ry/au):

     atom    1 type  1   force =     0.00082858    0.00000000   -0.00047554
     atom    2 type  1   force =     0.00082820    0.00000000    0.00046992
     atom    3 type  2   force =    -0.00082907    0.00000000   -0.00028622
     atom    4 type  2   force =    -0.00082772    0.00000000    0.00029184

     Total force =     0.001833     Total SCF correction =     0.000028

     number of scf cycles    =   2
     number of bfgs steps    =   1

     energy   old            =    -413.8038515854 Ry
     energy   new            =    -413.8038554006 Ry

     CASE: energy  _new < energy  _old


     WARNING: bfgs curvature condition failed, Theta= 0.873
     new trust radius        =       0.0011598561 bohr
     new conv_thr            =            3.8E-12 Ry


ATOMIC_POSITIONS (crystal)
Sn            0.5842126797        0.7500000000        0.1445245689
Sn            0.0842101865        0.2500000000        0.0066208985
Se            0.0298936963        0.2500000000        0.1422999298
Se            0.5298914115        0.7500000000        0.0088446567



     Writing output data file ./wfc-out/pwscf.save/
     NEW-OLD atomic charge density approx. for the potential

     negative rho (up, down):  3.627E-05 0.000E+00

     total cpu time spent up to now is       99.5 secs

     Self-consistent Calculation

     iteration #  1     ecut=    80.00 Ry     beta= 0.70
     Davidson diagonalization with overlap
     ethr =  1.00E-06,  avg # of iterations =  2.0

     Threshold (ethr) on eigenvalues was too large:
     Diagonalizing with lowered threshold

     Davidson diagonalization with overlap
     ethr =  3.21E-10,  avg # of iterations =  6.8

     negative rho (up, down):  2.874E-05 0.000E+00

     total cpu time spent up to now is      110.4 secs

     total energy              =    -413.80385927 Ry
     estimated scf accuracy    <       0.00000018 Ry

     iteration #  2     ecut=    80.00 Ry     beta= 0.70
     Davidson diagonalization with overlap
     ethr =  4.57E-10,  avg # of iterations =  2.1

     negative rho (up, down):  2.852E-05 0.000E+00

     total cpu time spent up to now is      114.7 secs

     total energy              =    -413.80385926 Ry
     estimated scf accuracy    <       0.00000010 Ry

     iteration #  3     ecut=    80.00 Ry     beta= 0.70
     Davidson diagonalization with overlap
     ethr =  2.59E-10,  avg # of iterations =  2.0

     negative rho (up, down):  2.866E-05 0.000E+00

     total cpu time spent up to now is      118.8 secs

     total energy              =    -413.80385929 Ry
     estimated scf accuracy    <          7.8E-09 Ry

     iteration #  4     ecut=    80.00 Ry     beta= 0.70
     Davidson diagonalization with overlap
     ethr =  1.94E-11,  avg # of iterations =  3.1

     negative rho (up, down):  2.872E-05 0.000E+00

     total cpu time spent up to now is      123.1 secs

     total energy              =    -413.80385929 Ry
     estimated scf accuracy    <          7.1E-09 Ry

     iteration #  5     ecut=    80.00 Ry     beta= 0.70
     Davidson diagonalization with overlap
     ethr =  1.78E-11,  avg # of iterations =  2.3

     negative rho (up, down):  2.874E-05 0.000E+00

     total cpu time spent up to now is      127.2 secs

     total energy              =    -413.80385929 Ry
     estimated scf accuracy    <          2.5E-09 Ry

     iteration #  6     ecut=    80.00 Ry     beta= 0.70
     Davidson diagonalization with overlap
     ethr =  6.27E-12,  avg # of iterations =  2.0

     negative rho (up, down):  2.875E-05 0.000E+00

     total cpu time spent up to now is      131.3 secs

     total energy              =    -413.80385929 Ry
     estimated scf accuracy    <          7.9E-11 Ry

     iteration #  7     ecut=    80.00 Ry     beta= 0.70
     Davidson diagonalization with overlap
     ethr =  1.98E-13,  avg # of iterations =  3.7

     negative rho (up, down):  2.875E-05 0.000E+00

     total cpu time spent up to now is      136.0 secs

     End of self-consistent calculation

          k = 0.0000 0.0000 0.0000 ( 30991 PWs)   bands (ev):

   -22.2399 -22.2327 -22.2321 -22.2255 -22.2233 -22.1993 -22.1965 -22.1934
   -22.1848 -22.1806 -14.2168 -13.2075  -7.2261  -6.2201  -4.3579  -4.0138
    -3.8993  -2.7659  -2.7210  -1.5387   0.5975   2.3590   2.8193   2.9536

          k = 0.0000 0.0689 0.0000 ( 31021 PWs)   bands (ev):

   -22.2393 -22.2325 -22.2322 -22.2263 -22.2226 -22.1994 -22.1965 -22.1931
   -22.1850 -22.1806 -14.1973 -13.2036  -7.2866  -6.2943  -4.3563  -3.9954
    -3.8436  -2.7784  -2.6026  -1.5526   0.6111   2.4369   2.7500   2.8284

          k = 0.0000 0.1378 0.0000 ( 30999 PWs)   bands (ev):

   -22.2379 -22.2332 -22.2313 -22.2278 -22.2210 -22.1997 -22.1965 -22.1924
   -22.1858 -22.1807 -14.1398 -13.1943  -7.4479  -6.5020  -4.3300  -3.9238
    -3.7027  -2.7372  -2.3605  -1.5989   0.6572   2.2447   2.5302   2.5916

          k = 0.0000 0.2068 0.0000 ( 30999 PWs)   bands (ev):

   -22.2360 -22.2344 -22.2298 -22.2294 -22.2191 -22.2003 -22.1965 -22.1913
   -22.1870 -22.1809 -14.0476 -13.1861  -7.6624  -6.8019  -4.2500  -3.7917
    -3.5092  -2.6578  -2.0463  -1.6836   0.7482   1.6006   2.0698   2.5545

          k = 0.0000 0.2757 0.0000 ( 30983 PWs)   bands (ev):

   -22.2357 -22.2347 -22.2303 -22.2283 -22.2167 -22.2012 -22.1962 -22.1899
   -22.1884 -22.1812 -13.9265 -13.1889  -7.8758  -7.1421  -4.1099  -3.6069
    -3.2925  -2.5694  -1.7948  -1.6959   0.8961   0.9577   1.5925   2.1867

          k = 0.0000 0.3446 0.0000 ( 30915 PWs)   bands (ev):

   -22.2369 -22.2352 -22.2294 -22.2269 -22.2140 -22.2025 -22.1957 -22.1899
   -22.1883 -22.1817 -13.7853 -13.2145  -8.0411  -7.4756  -3.9187  -3.3879
    -3.1027  -2.5098  -1.8760  -1.3493   0.3859   1.0998   1.2065   1.6701

          k = 0.0000 0.4135 0.0000 ( 30897 PWs)   bands (ev):

   -22.2376 -22.2365 -22.2278 -22.2262 -22.2113 -22.2042 -22.1950 -22.1914
   -22.1866 -22.1825 -13.6354 -13.2723  -8.1238  -7.7651  -3.6920  -3.1995
    -2.9919  -2.5225  -1.8177  -1.1274   0.0264   0.9894   1.0539   1.4219

          k = 0.0000 0.4825 0.0000 ( 30886 PWs)   bands (ev):

   -22.2379 -22.2375 -22.2266 -22.2260 -22.2086 -22.2063 -22.1940 -22.1928
   -22.1850 -22.1836 -13.4908 -13.3660  -8.1051  -7.9819  -3.4536  -3.2485
    -2.8203  -2.6327  -1.5750  -1.2592   0.1280   0.5462   0.9833   1.1802

          k = 0.0667 0.0000 0.0000 ( 31021 PWs)   bands (ev):

   -22.2397 -22.2326 -22.2322 -22.2258 -22.2228 -22.1993 -22.1963 -22.1933
   -22.1848 -22.1808 -14.1993 -13.2067  -7.2920  -6.3016  -4.3540  -3.9424
    -3.8698  -2.7018  -2.6591  -1.5590   0.6109   2.4028   2.6570   2.9391

          k = 0.0667 0.0689 0.0000 ( 31004 PWs)   bands (ev):

   -22.2391 -22.2326 -22.2322 -22.2266 -22.2220 -22.1994 -22.1964 -22.1930
   -22.1851 -22.1808 -14.1799 -13.2027  -7.3425  -6.3670  -4.3467  -4.0664
    -3.6821  -2.8338  -2.4391  -1.5700   0.6261   2.3878   2.4702   2.9179

          k = 0.0667 0.1378 0.0000 ( 31006 PWs)   bands (ev):

   -22.2377 -22.2334 -22.2311 -22.2281 -22.2205 -22.1997 -22.1965 -22.1923
   -22.1860 -22.1808 -14.1228 -13.1932  -7.4808  -6.5530  -4.3122  -4.1320
    -3.4310  -2.8839  -2.1491  -1.6066   0.6759   1.8338   2.5560   2.8044

          k = 0.0667 0.2068 0.0000 ( 30988 PWs)   bands (ev):

   -22.2359 -22.2346 -22.2297 -22.2296 -22.2185 -22.2004 -22.1965 -22.1911
   -22.1871 -22.1810 -14.0312 -13.1844  -7.6713  -6.8287  -4.2301  -4.0996
    -3.1770  -2.8486  -1.8533  -1.6708   0.7695   1.2450   2.2809   2.4224

          k = 0.0667 0.2757 0.0000 ( 30968 PWs)   bands (ev):

   -22.2360 -22.2348 -22.2304 -22.2281 -22.2162 -22.2013 -22.1963 -22.1897
   -22.1886 -22.1813 -13.9111 -13.1863  -7.8667  -7.1487  -4.0929  -3.9754
    -2.9589  -2.7645  -1.7416  -1.6002   0.7418   0.9117   1.7450   1.9457

          k = 0.0667 0.3446 0.0000 ( 30940 PWs)   bands (ev):

   -22.2372 -22.2357 -22.2292 -22.2267 -22.2136 -22.2025 -22.1958 -22.1901
   -22.1881 -22.1817 -13.7712 -13.2105  -8.0209  -7.4677  -3.9068  -3.7780
    -2.8430  -2.6885  -1.7540  -1.4420   0.4118   1.0087   1.3080   1.5122

          k = 0.0667 0.4135 0.0000 ( 30903 PWs)   bands (ev):

   -22.2381 -22.2370 -22.2276 -22.2259 -22.2110 -22.2042 -22.1950 -22.1915
   -22.1864 -22.1825 -13.6230 -13.2665  -8.0984  -7.7476  -3.6882  -3.5417
    -2.8772  -2.6981  -1.6509  -1.3888   0.2646   0.6538   1.2633   1.4652

          k = 0.0667 0.4825 0.0000 ( 30867 PWs)   bands (ev):

   -22.2383 -22.2380 -22.2263 -22.2258 -22.2085 -22.2062 -22.1941 -22.1929
   -22.1849 -22.1835 -13.4805 -13.3579  -8.0789  -7.9585  -3.4708  -3.3735
    -2.9456  -2.8281  -1.4964  -1.4014   0.2243   0.3406   1.3200   1.6216

          k = 0.1333 0.0000 0.0000 ( 31002 PWs)   bands (ev):

   -22.2391 -22.2326 -22.2323 -22.2267 -22.2211 -22.1995 -22.1958 -22.1931
   -22.1851 -22.1814 -14.1478 -13.2061  -7.4628  -6.5232  -4.3218  -3.7824
    -3.7514  -2.6473  -2.3805  -1.6216   0.6569   2.1851   2.4814   2.6626

          k = 0.1333 0.0689 0.0000 ( 31001 PWs)   bands (ev):

   -22.2386 -22.2330 -22.2318 -22.2274 -22.2205 -22.1996 -22.1960 -22.1927
   -22.1855 -22.1813 -14.1288 -13.2019  -7.4909  -6.5677  -4.3059  -4.0880
    -3.4084  -2.8462  -2.1364  -1.6226   0.6759   1.8348   2.4875   2.8550

          k = 0.1333 0.1378 0.0000 ( 31002 PWs)   bands (ev):

   -22.2372 -22.2340 -22.2307 -22.2289 -22.2190 -22.1999 -22.1963 -22.1918
   -22.1863 -22.1812 -14.0727 -13.1914  -7.5736  -6.6999  -4.3219  -4.2572
    -3.0664  -3.0427  -1.8232  -1.6237   0.7337   1.3051   2.2753   2.9695

          k = 0.1333 0.2068 0.0000 ( 30999 PWs)   bands (ev):

   -22.2357 -22.2353 -22.2304 -22.2292 -22.2171 -22.2005 -22.1964 -22.1906
   -22.1876 -22.1812 -13.9831 -13.1809  -7.6998  -6.9100  -4.4349  -4.1719
    -3.1259  -2.7973  -1.6237  -1.6129   0.8266   0.8798   1.7524   2.8170

          k = 0.1333 0.2757 0.0000 ( 30983 PWs)   bands (ev):

   -22.2369 -22.2356 -22.2302 -22.2275 -22.2149 -22.2014 -22.1963 -22.1891
   -22.1890 -22.1814 -13.8659 -13.1800  -7.8424  -7.1718  -4.4176  -4.0448
    -3.1088  -2.6637  -1.6359  -1.5637   0.7021   0.8798   1.2958   2.4537

          k = 0.1333 0.3446 0.0000 ( 30991 PWs)   bands (ev):

   -22.2382 -22.2370 -22.2286 -22.2261 -22.2126 -22.2026 -22.1959 -22.1904
   -22.1876 -22.1817 -13.7300 -13.1999  -7.9626  -7.4471  -4.2826  -3.8769
    -3.0559  -2.6941  -1.8105  -1.4881   0.6158   0.7622   1.3284   2.0521

          k = 0.1333 0.4135 0.0000 ( 30949 PWs)   bands (ev):

   -22.2392 -22.2384 -22.2268 -22.2252 -22.2103 -22.2042 -22.1952 -22.1917
   -22.1860 -22.1824 -13.5871 -13.2503  -8.0236  -7.6971  -4.0563  -3.6887
    -3.0829  -2.8450  -1.9232  -1.4876   0.4144   0.8382   1.5773   1.8103

          k = 0.1333 0.4825 0.0000 ( 30900 PWs)   bands (ev):

   -22.2396 -22.2393 -22.2256 -22.2250 -22.2081 -22.2060 -22.1942 -22.1930
   -22.1845 -22.1833 -13.4509 -13.3352  -8.0015  -7.8894  -3.7825  -3.5912
    -3.1706  -3.0451  -1.8299  -1.6311   0.4698   0.6874   1.8738   1.9190

          k = 0.2000 0.0000 0.0000 ( 30980 PWs)   bands (ev):

   -22.2381 -22.2332 -22.2318 -22.2280 -22.2186 -22.1998 -22.1950 -22.1927
   -22.1856 -22.1823 -14.0652 -13.2112  -7.6804  -6.8308  -4.2367  -3.6405
    -3.4914  -2.5687  -2.0050  -1.7246   0.7492   1.5967   2.1767   2.4336

          k = 0.2000 0.0689 0.0000 ( 31014 PWs)   bands (ev):

   -22.2377 -22.2337 -22.2314 -22.2287 -22.2181 -22.1999 -22.1953 -22.1922
   -22.1860 -22.1822 -14.0467 -13.2064  -7.6862  -6.8527  -4.2172  -4.0181
    -3.1156  -2.7944  -1.7945  -1.7022   0.7716   1.2691   2.2401   2.4834

          k = 0.2000 0.1378 0.0000 ( 31018 PWs)   bands (ev):

   -22.2365 -22.2348 -22.2302 -22.2300 -22.2167 -22.2002 -22.1959 -22.1911
   -22.1870 -22.1819 -13.9925 -13.1941  -7.7071  -6.9221  -4.3952  -4.1618
    -3.1096  -2.7633  -1.6214  -1.5758   0.8308   0.8982   1.7557   2.8462

          k = 0.2000 0.2068 0.0000 ( 30994 PWs)   bands (ev):

   -22.2363 -22.2359 -22.2308 -22.2286 -22.2150 -22.2008 -22.1963 -22.1898
   -22.1882 -22.1816 -13.9063 -13.1804  -7.7495  -7.0456  -4.6562  -4.0788
    -3.3245  -2.5816  -1.6399  -1.4739   0.8245   0.8505   1.3124   2.9893

          k = 0.2000 0.2757 0.0000 ( 30997 PWs)   bands (ev):

   -22.2381 -22.2370 -22.2296 -22.2268 -22.2130 -22.2016 -22.1963 -22.1895
   -22.1884 -22.1816 -13.7942 -13.1744  -7.8116  -7.2194  -4.7682  -3.9759
    -3.4088  -2.5766  -1.9608  -1.3517   0.6274   1.0439   1.3005   2.7863

          k = 0.2000 0.3446 0.0000 ( 30992 PWs)   bands (ev):

   -22.2397 -22.2388 -22.2276 -22.2253 -22.2111 -22.2028 -22.1960 -22.1908
   -22.1869 -22.1818 -13.6653 -13.1871  -7.8738  -7.4220  -4.7268  -3.8508
    -3.4249  -2.6946  -2.3114  -1.4163   0.5184   1.3706   1.5077   2.4671

          k = 0.2000 0.4135 0.0000 ( 30953 PWs)   bands (ev):

   -22.2410 -22.2403 -22.2258 -22.2243 -22.2092 -22.2042 -22.1953 -22.1920
   -22.1854 -22.1822 -13.5314 -13.2279  -7.9046  -7.6199  -4.5518  -3.7554
    -3.4786  -2.8894  -2.4490  -1.6824   0.6729   1.5494   1.7806   2.2672

          k = 0.2000 0.4825 0.0000 ( 30964 PWs)   bands (ev):

   -22.2415 -22.2413 -22.2246 -22.2241 -22.2075 -22.2058 -22.1943 -22.1932
   -22.1841 -22.1830 -13.4059 -13.3017  -7.8768  -7.7794  -4.2771  -3.9569
    -3.3560  -3.1239  -2.3067  -2.0162   0.9788   1.3283   2.0755   2.2888

          k = 0.2667 0.0000 0.0000 ( 31012 PWs)   bands (ev):

   -22.2369 -22.2339 -22.2315 -22.2296 -22.2156 -22.2003 -22.1940 -22.1922
   -22.1862 -22.1835 -13.9563 -13.2295  -7.8883  -7.1682  -4.0954  -3.4510
    -3.2217  -2.4869  -1.8422  -1.5889   0.8997   0.9923   1.7142   2.1405

          k = 0.2667 0.0689 0.0000 ( 31033 PWs)   bands (ev):

   -22.2366 -22.2344 -22.2310 -22.2301 -22.2151 -22.2004 -22.1945 -22.1915
   -22.1867 -22.1832 -13.9388 -13.2239  -7.8774  -7.1717  -4.0765  -3.8691
    -2.8727  -2.7130  -1.7677  -1.4753   0.7841   0.9207   1.7561   2.0379

          k = 0.2667 0.1378 0.0000 ( 31014 PWs)   bands (ev):

   -22.2360 -22.2357 -22.2310 -22.2297 -22.2140 -22.2007 -22.1953 -22.1903
   -22.1878 -22.1826 -13.8874 -13.2088  -7.8486  -7.1865  -4.3505  -4.0238
    -3.1032  -2.6226  -1.5445  -1.5175   0.7418   0.9125   1.2978   2.5055

          k = 0.2667 0.2068 0.0000 ( 31001 PWs)   bands (ev):

   -22.2375 -22.2366 -22.2306 -22.2280 -22.2125 -22.2012 -22.1959 -22.1890
   -22.1889 -22.1822 -13.8061 -13.1901  -7.8130  -7.2246  -4.7392  -3.9541
    -3.4311  -2.5675  -1.8918  -1.3241   0.6547   1.0768   1.2998   2.7971

          k = 0.2667 0.2757 0.0000 ( 31018 PWs)   bands (ev):

   -22.2395 -22.2386 -22.2287 -22.2261 -22.2109 -22.2020 -22.1961 -22.1902
   -22.1875 -22.1819 -13.7015 -13.1764  -7.7842  -7.2975  -4.9855  -3.9046
    -3.6175  -2.6355  -2.3727  -1.3669   0.5902   1.5096   1.5744   2.7876

          k = 0.2667 0.3446 0.0000 ( 31002 PWs)   bands (ev):

   -22.2414 -22.2408 -22.2265 -22.2245 -22.2095 -22.2031 -22.1958 -22.1913
   -22.1860 -22.1819 -13.5828 -13.1784  -7.7679  -7.4044  -5.0614  -3.8745
    -3.7364  -2.7930  -2.7286  -1.6654   0.8105   1.7914   2.0661   2.6017

          k = 0.2667 0.4135 0.0000 ( 30988 PWs)   bands (ev):

   -22.2429 -22.2425 -22.2247 -22.2234 -22.2081 -22.2043 -22.1952 -22.1923
   -22.1847 -22.1821 -13.4619 -13.2056  -7.7520  -7.5269  -4.9681  -4.0278
    -3.7526  -3.0234  -2.7841  -2.0275   1.1450   2.1117   2.1891   2.5910

          k = 0.2667 0.4825 0.0000 ( 31004 PWs)   bands (ev):

   -22.2436 -22.2435 -22.2234 -22.2230 -22.2069 -22.2056 -22.1943 -22.1933
   -22.1836 -22.1827 -13.3516 -13.2637  -7.7135  -7.6371  -4.7325  -4.3966
    -3.5554  -3.2946  -2.6205  -2.3556   1.5086   1.8716   2.4287   2.6546

          k = 0.3333 0.0000 0.0000 ( 31084 PWs)   bands (ev):

   -22.2357 -22.2344 -22.2314 -22.2312 -22.2123 -22.2011 -22.1928 -22.1913
   -22.1871 -22.1848 -13.8284 -13.2697  -8.0430  -7.4916  -3.9059  -3.2248
    -3.0311  -2.4342  -1.8925  -1.1822   0.4408   1.1127   1.3531   1.6845

          k = 0.3333 0.0689 0.0000 ( 31037 PWs)   bands (ev):

   -22.2355 -22.2349 -22.2315 -22.2308 -22.2120 -22.2012 -22.1935 -22.1905
   -22.1876 -22.1843 -13.8122 -13.2627  -8.0219  -7.4816  -3.8899  -3.6602
    -2.7806  -2.6524  -1.7249  -1.2443   0.4569   1.0782   1.2958   1.6436

          k = 0.3333 0.1378 0.0000 ( 31036 PWs)   bands (ev):

   -22.2365 -22.2359 -22.2315 -22.2295 -22.2111 -22.2014 -22.1945 -22.1892
   -22.1888 -22.1836 -13.7647 -13.2437  -7.9611  -7.4555  -4.2040  -3.8470
    -3.0852  -2.6757  -1.6175  -1.4082   0.6888   0.8236   1.3147   2.1334

          k = 0.3333 0.2068 0.0000 ( 31016 PWs)   bands (ev):

   -22.2385 -22.2377 -22.2299 -22.2276 -22.2100 -22.2019 -22.1953 -22.1899
   -22.1878 -22.1829 -13.6902 -13.2179  -7.8697  -7.4238  -4.6861  -3.8016
    -3.5034  -2.6882  -2.1673  -1.3513   0.5787   1.4490   1.5114   2.4795

          k = 0.3333 0.2757 0.0000 ( 31016 PWs)   bands (ev):

   -22.2409 -22.2402 -22.2277 -22.2256 -22.2088 -22.2026 -22.1956 -22.1910
   -22.1865 -22.1824 -13.5956 -13.1937  -7.7633  -7.4021  -5.0494  -3.8849
    -3.7448  -2.7854  -2.6626  -1.6405   0.8447   1.8064   2.1300   2.5954

          k = 0.3333 0.3446 0.0000 ( 30988 PWs)   bands (ev):

   -22.2431 -22.2427 -22.2255 -22.2238 -22.2079 -22.2035 -22.1954 -22.1918
   -22.1852 -22.1821 -13.4904 -13.1814  -7.6633  -7.4045  -5.2511  -4.0928
    -3.9077  -2.9825  -2.9016  -2.0033   1.2118   2.1809   2.5384   2.7732

          k = 0.3333 0.4135 0.0000 ( 31008 PWs)   bands (ev):

   -22.2448 -22.2445 -22.2236 -22.2226 -22.2071 -22.2045 -22.1948 -22.1925
   -22.1840 -22.1821 -13.3864 -13.1909  -7.5856  -7.4335  -5.2662  -4.4151
    -3.9756  -3.2729  -2.8696  -2.2984   1.5603   2.3891   2.5807   3.1898

          k = 0.3333 0.4825 0.0000 ( 31000 PWs)   bands (ev):

   -22.2456 -22.2456 -22.2225 -22.2221 -22.2063 -22.2054 -22.1941 -22.1933
   -22.1831 -22.1825 -13.2958 -13.2288  -7.5282  -7.4785  -5.1022  -4.7977
    -3.8426  -3.5869  -2.7218  -2.5288   1.8763   2.1575   2.9389   3.1870

          k = 0.4000 0.0000 0.0000 ( 31028 PWs)   bands (ev):

   -22.2346 -22.2344 -22.2326 -22.2316 -22.2092 -22.2024 -22.1916 -22.1903
   -22.1880 -22.1862 -13.6912 -13.3378  -8.1164  -7.7685  -3.6803  -3.0312
    -2.9802  -2.4492  -1.7541  -0.9203   0.0912   1.1542   1.1638   1.3954

          k = 0.4000 0.0689 0.0000 ( 31028 PWs)   bands (ev):

   -22.2353 -22.2347 -22.2324 -22.2310 -22.2090 -22.2024 -22.1924 -22.1894
   -22.1887 -22.1856 -13.6766 -13.3292  -8.0902  -7.7495  -3.6697  -3.4241
    -2.8660  -2.6742  -1.5394  -1.1456   0.3109   0.7562   1.4245   1.4351

          k = 0.4000 0.1378 0.0000 ( 31022 PWs)   bands (ev):

   -22.2370 -22.2363 -22.2311 -22.2295 -22.2083 -22.2025 -22.1935 -22.1899
   -22.1881 -22.1846 -13.6340 -13.3048  -8.0136  -7.6951  -3.9808  -3.6476
    -3.1424  -2.8495  -1.6857  -1.3486   0.5045   0.9165   1.5602   1.9107

          k = 0.4000 0.2068 0.0000 ( 31017 PWs)   bands (ev):

   -22.2393 -22.2388 -22.2291 -22.2275 -22.2076 -22.2028 -22.1943 -22.1910
   -22.1868 -22.1837 -13.5681 -13.2700  -7.8925  -7.6131  -4.5172  -3.7269
    -3.5455  -2.8831  -2.2704  -1.5873   0.7633   1.6690   1.7905   2.2728

          k = 0.4000 0.2757 0.0000 ( 31002 PWs)   bands (ev):

   -22.2419 -22.2415 -22.2268 -22.2254 -22.2070 -22.2033 -22.1947 -22.1918
   -22.1855 -22.1830 -13.4859 -13.2327  -7.7393  -7.5169  -4.9632  -4.1213
    -3.6611  -2.9975  -2.7092  -1.9897   1.2017   2.1566   2.2552   2.6574

          k = 0.4000 0.3446 0.0000 ( 30994 PWs)   bands (ev):

   -22.2443 -22.2441 -22.2246 -22.2235 -22.2065 -22.2040 -22.1947 -22.1924
   -22.1844 -22.1825 -13.3974 -13.2030  -7.5766  -7.4255  -5.2738  -4.4844
    -3.8904  -3.2461  -2.8602  -2.2943   1.5773   2.3938   2.6260   3.3390

          k = 0.4000 0.4135 0.0000 ( 31032 PWs)   bands (ev):

   -22.2462 -22.2461 -22.2228 -22.2221 -22.2062 -22.2047 -22.1943 -22.1928
   -22.1834 -22.1822 -13.3140 -13.1912  -7.4377  -7.3585  -5.4099  -4.8174
    -4.0868  -3.5850  -2.8198  -2.4724   1.8764   2.3873   3.0762   3.6689

          k = 0.4000 0.4825 0.0000 ( 31000 PWs)   bands (ev):

   -22.2472 -22.2471 -22.2218 -22.2215 -22.2059 -22.2054 -22.1937 -22.1932
   -22.1827 -22.1823 -13.2470 -13.2049  -7.3535  -7.3306  -5.3527  -5.1308
    -4.0837  -3.8943  -2.7178  -2.6006   2.1153   2.2895   3.4194   3.6301

          k = 0.4667 0.0000 0.0000 ( 30970 PWs)   bands (ev):

   -22.2343 -22.2337 -22.2332 -22.2322 -22.2064 -22.2041 -22.1903 -22.1891
   -22.1890 -22.1876 -13.5561 -13.4350  -8.0941  -7.9751  -3.4354  -3.1997
    -2.7448  -2.5560  -1.4403  -1.0779   0.2313   0.6627   1.1522   1.3413

          k = 0.4667 0.0689 0.0000 ( 31006 PWs)   bands (ev):

   -22.2352 -22.2349 -22.2322 -22.2315 -22.2063 -22.2041 -22.1912 -22.1899
   -22.1882 -22.1869 -13.5433 -13.4243  -8.0671  -7.9506  -3.4387  -3.2852
    -2.9485  -2.8054  -1.3168  -1.1705   0.2959   0.4387   1.4782   1.6800

          k = 0.4667 0.1378 0.0000 ( 31031 PWs)   bands (ev):

   -22.2371 -22.2369 -22.2305 -22.2299 -22.2060 -22.2040 -22.1923 -22.1911
   -22.1869 -22.1857 -13.5067 -13.3939  -7.9876  -7.8787  -3.7187  -3.5293
    -3.2276  -3.0685  -1.6064  -1.4457   0.5693   0.7823   1.8435   1.9685

          k = 0.4667 0.2068 0.0000 ( 31038 PWs)   bands (ev):

   -22.2396 -22.2394 -22.2284 -22.2278 -22.2056 -22.2040 -22.1932 -22.1921
   -22.1857 -22.1846 -13.4507 -13.3487  -7.8603  -7.7649  -4.2631  -3.9686
    -3.3498  -3.1137  -2.1518  -1.8930   1.0865   1.4434   2.0863   2.2928

          k = 0.4667 0.2757 0.0000 ( 31012 PWs)   bands (ev):

   -22.2424 -22.2423 -22.2260 -22.2256 -22.2055 -22.2042 -22.1937 -22.1927
   -22.1846 -22.1837 -13.3830 -13.2964  -7.6953  -7.6201  -4.7510  -4.4508
    -3.4755  -3.2408  -2.5640  -2.3107   1.5706   1.9291   2.5074   2.7605

          k = 0.4667 0.3446 0.0000 ( 31017 PWs)   bands (ev):

   -22.2450 -22.2449 -22.2239 -22.2235 -22.2055 -22.2046 -22.1938 -22.1930
   -22.1836 -22.1830 -13.3136 -13.2472  -7.5119  -7.4628  -5.1319  -4.8538
    -3.7560  -3.5258  -2.7182  -2.5273   1.8951   2.1703   3.0339   3.3273

          k = 0.4667 0.4135 0.0000 ( 31036 PWs)   bands (ev):

   -22.2470 -22.2469 -22.2223 -22.2220 -22.2056 -22.2051 -22.1937 -22.1932
   -22.1829 -22.1825 -13.2535 -13.2116  -7.3444  -7.3219  -5.3721  -5.1592
    -4.0447  -3.8644  -2.7205  -2.6037   2.1197   2.2928   3.4572   3.6792

          k = 0.4667 0.4825 0.0000 ( 31003 PWs)   bands (ev):

   -22.2480 -22.2480 -22.2213 -22.2213 -22.2056 -22.2054 -22.1934 -22.1933
   -22.1824 -22.1823 -13.2129 -13.1986  -7.2408  -7.2358  -5.4474  -5.3642
    -4.1821  -4.1120  -2.6827  -2.6432   2.2655   2.3245   3.7065   3.8111

     the Fermi energy is    -0.8466 ev

!    total energy              =    -413.80385929 Ry
     estimated scf accuracy    <          1.8E-12 Ry
     smearing contrib. (-TS)   =       0.00007675 Ry
     internal energy E=F+TS    =    -413.80393604 Ry

     The total energy is F=E-TS. E is the sum of the following terms:
     one-electron contribution =   -1178.74289797 Ry
     hartree contribution      =     601.50147630 Ry
     xc contribution           =    -154.39834675 Ry
     ewald contribution        =     317.83583238 Ry

     convergence has been achieved in   7 iterations

     negative rho (up, down):  2.875E-05 0.000E+00

     Forces acting on atoms (cartesian axes, Ry/au):

[...]

   -22.2350 -22.2285 -22.2275 -22.2226 -22.2184 -22.1960 -22.1918 -22.1885
   -22.1807 -22.1764 -14.1930 -13.2142  -7.3483  -6.3570  -4.3603  -4.0684
    -3.6891  -2.8392  -2.4426  -1.5621   0.6216   2.3741   2.4143   2.9119

          k = 0.0667 0.1378 0.0000 ( 31006 PWs)   bands (ev):

   -22.2336 -22.2294 -22.2265 -22.2241 -22.2169 -22.1964 -22.1919 -22.1878
   -22.1815 -22.1765 -14.1356 -13.2042  -7.4881  -6.5462  -4.3258  -4.1353
    -3.4380  -2.8873  -2.1552  -1.5987   0.6714   1.8373   2.5141   2.7943

          k = 0.0667 0.2068 0.0000 ( 30988 PWs)   bands (ev):

   -22.2319 -22.2306 -22.2255 -22.2250 -22.2150 -22.1970 -22.1919 -22.1866
   -22.1827 -22.1766 -14.0436 -13.1949  -7.6804  -6.8259  -4.2431  -4.1037
    -3.1850  -2.8523  -1.8617  -1.6632   0.7651   1.2586   2.2782   2.4247

          k = 0.0667 0.2757 0.0000 ( 30968 PWs)   bands (ev):

   -22.2320 -22.2311 -22.2258 -22.2234 -22.2127 -22.1979 -22.1917 -22.1851
   -22.1842 -22.1768 -13.9229 -13.1963  -7.8775  -7.1501  -4.1049  -3.9809
    -2.9681  -2.7706  -1.7353  -1.6111   0.7628   0.9075   1.7604   1.9584

          k = 0.0667 0.3446 0.0000 ( 30940 PWs)   bands (ev):

   -22.2333 -22.2320 -22.2245 -22.2220 -22.2102 -22.1992 -22.1913 -22.1857
   -22.1835 -22.1772 -13.7823 -13.2200  -8.0329  -7.4729  -3.9181  -3.7857
    -2.8520  -2.6986  -1.7511  -1.4532   0.4362   1.0129   1.3231   1.5338

          k = 0.0667 0.4135 0.0000 ( 30903 PWs)   bands (ev):

   -22.2342 -22.2333 -22.2229 -22.2212 -22.2076 -22.2009 -22.1906 -22.1871
   -22.1818 -22.1779 -13.6334 -13.2758  -8.1108  -7.7558  -3.6991  -3.5528
    -2.8841  -2.7112  -1.6537  -1.3978   0.2882   0.6769   1.2919   1.4668

          k = 0.0667 0.4825 0.0000 ( 30867 PWs)   bands (ev):

   -22.2345 -22.2342 -22.2216 -22.2211 -22.2051 -22.2029 -22.1896 -22.1885
   -22.1803 -22.1789 -13.4903 -13.3673  -8.0908  -7.9690  -3.4825  -3.3875
    -2.9519  -2.8397  -1.5038  -1.4099   0.2496   0.3674   1.3491   1.6451

          k = 0.1333 0.0000 0.0000 ( 31002 PWs)   bands (ev):

   -22.2349 -22.2286 -22.2276 -22.2227 -22.2175 -22.1960 -22.1913 -22.1886
   -22.1807 -22.1770 -14.1612 -13.2180  -7.4657  -6.5129  -4.3319  -3.8020
    -3.7439  -2.6692  -2.3721  -1.6153   0.6543   2.1598   2.4239   2.6726

          k = 0.1333 0.0689 0.0000 ( 31001 PWs)   bands (ev):

   -22.2344 -22.2289 -22.2272 -22.2234 -22.2168 -22.1962 -22.1914 -22.1882
   -22.1810 -22.1770 -14.1420 -13.2137  -7.4946  -6.5583  -4.3165  -4.0943
    -3.4144  -2.8576  -2.1384  -1.6161   0.6732   1.8284   2.4348   2.8490

          k = 0.1333 0.1378 0.0000 ( 31002 PWs)   bands (ev):

   -22.2331 -22.2299 -22.2261 -22.2248 -22.2154 -22.1965 -22.1917 -22.1873
   -22.1819 -22.1769 -14.0856 -13.2028  -7.5791  -6.6931  -4.3270  -4.2691
    -3.0741  -3.0496  -1.8299  -1.6173   0.7307   1.3132   2.2566   2.9583

          k = 0.1333 0.2068 0.0000 ( 30999 PWs)   bands (ev):

   -22.2318 -22.2313 -22.2260 -22.2245 -22.2135 -22.1971 -22.1919 -22.1861
   -22.1831 -22.1768 -13.9955 -13.1917  -7.7078  -6.9071  -4.4391  -4.1849
    -3.1303  -2.8065  -1.6340  -1.6077   0.8233   0.8986   1.7614   2.8124

          k = 0.1333 0.2757 0.0000 ( 30983 PWs)   bands (ev):

   -22.2329 -22.2319 -22.2256 -22.2229 -22.2114 -22.1980 -22.1918 -22.1846
   -22.1845 -22.1769 -13.8778 -13.1902  -7.8528  -7.1731  -4.4214  -4.0581
    -3.1127  -2.6732  -1.6460  -1.5623   0.7261   0.8812   1.3118   2.4575

          k = 0.1333 0.3446 0.0000 ( 30991 PWs)   bands (ev):

   -22.2343 -22.2333 -22.2239 -22.2214 -22.2092 -22.1993 -22.1914 -22.1860
   -22.1830 -22.1773 -13.7412 -13.2097  -7.9748  -7.4524  -4.2867  -3.8898
    -3.0617  -2.7025  -1.8151  -1.4925   0.6361   0.7848   1.3329   2.0626

          k = 0.1333 0.4135 0.0000 ( 30949 PWs)   bands (ev):

   -22.2354 -22.2346 -22.2222 -22.2206 -22.2069 -22.2008 -22.1907 -22.1873
   -22.1814 -22.1778 -13.5976 -13.2598  -8.0366  -7.7058  -4.0617  -3.7012
    -3.0909  -2.8527  -1.9224  -1.4948   0.4397   0.8562   1.5798   1.8276

          k = 0.1333 0.4825 0.0000 ( 30900 PWs)   bands (ev):

   -22.2358 -22.2356 -22.2209 -22.2204 -22.2047 -22.2027 -22.1898 -22.1886
   -22.1800 -22.1787 -13.4608 -13.3447  -8.0141  -7.9006  -3.7905  -3.6030
    -3.1774  -3.0523  -1.8298  -1.6354   0.4923   0.7053   1.8771   1.9364

          k = 0.2000 0.0000 0.0000 ( 30980 PWs)   bands (ev):

   -22.2340 -22.2291 -22.2273 -22.2240 -22.2149 -22.1963 -22.1905 -22.1882
   -22.1811 -22.1780 -14.0787 -13.2236  -7.6807  -6.8213  -4.2437  -3.6612
    -3.4872  -2.5927  -2.0003  -1.7205   0.7489   1.5785   2.1906   2.3850

          k = 0.2000 0.0689 0.0000 ( 31014 PWs)   bands (ev):

   -22.2336 -22.2296 -22.2268 -22.2246 -22.2144 -22.1964 -22.1908 -22.1877
   -22.1815 -22.1778 -14.0601 -13.2187  -7.6871  -6.8438  -4.2248  -4.0278
    -3.1223  -2.8114  -1.7968  -1.6982   0.7712   1.2671   2.2118   2.4837

          k = 0.2000 0.1378 0.0000 ( 31018 PWs)   bands (ev):

   -22.2325 -22.2307 -22.2258 -22.2256 -22.2131 -22.1968 -22.1913 -22.1867
   -22.1825 -22.1775 -14.0057 -13.2060  -7.7100  -6.9154  -4.4027  -4.1713
    -3.1216  -2.7716  -1.6183  -1.5826   0.8302   0.9090   1.7544   2.8411

          k = 0.2000 0.2068 0.0000 ( 30994 PWs)   bands (ev):

   -22.2323 -22.2321 -22.2264 -22.2240 -22.2114 -22.1973 -22.1917 -22.1853
   -22.1838 -22.1772 -13.9189 -13.1917  -7.7555  -7.0423  -4.6616  -4.0915
    -3.3318  -2.5899  -1.6466  -1.4742   0.8425   0.8523   1.3231   2.9833

          k = 0.2000 0.2757 0.0000 ( 30997 PWs)   bands (ev):

   -22.2341 -22.2332 -22.2251 -22.2222 -22.2095 -22.1982 -22.1918 -22.1851
   -22.1839 -22.1772 -13.8062 -13.1850  -7.8211  -7.2205  -4.7715  -3.9914
    -3.4125  -2.5844  -1.9624  -1.3563   0.6422   1.0632   1.3067   2.7832

          k = 0.2000 0.3446 0.0000 ( 30992 PWs)   bands (ev):

   -22.2358 -22.2350 -22.2230 -22.2207 -22.2076 -22.1994 -22.1915 -22.1864
   -22.1824 -22.1773 -13.6767 -13.1971  -7.8861  -7.4277  -4.7287  -3.8668
    -3.4289  -2.7028  -2.3062  -1.4208   0.5364   1.3885   1.5123   2.4672

          k = 0.2000 0.4135 0.0000 ( 30953 PWs)   bands (ev):

   -22.2371 -22.2366 -22.2212 -22.2197 -22.2058 -22.2008 -22.1908 -22.1876
   -22.1809 -22.1777 -13.5421 -13.2376  -7.9185  -7.6295  -4.5532  -3.7670
    -3.4871  -2.8988  -2.4391  -1.6819   0.6872   1.5612   1.7854   2.2738

          k = 0.2000 0.4825 0.0000 ( 30964 PWs)   bands (ev):

   -22.2377 -22.2375 -22.2200 -22.2194 -22.2041 -22.2024 -22.1899 -22.1888
   -22.1795 -22.1785 -13.4159 -13.3114  -7.8908  -7.7918  -4.2794  -3.9616
    -3.3683  -3.1350  -2.2977  -2.0107   0.9889   1.3362   2.0811   2.2963

          k = 0.2667 0.0000 0.0000 ( 31012 PWs)   bands (ev):

   -22.2328 -22.2298 -22.2270 -22.2256 -22.2119 -22.1968 -22.1895 -22.1877
   -22.1818 -22.1791 -13.9700 -13.2425  -7.8859  -7.1592  -4.1003  -3.4731
    -3.2202  -2.5136  -1.8408  -1.5881   0.9020   0.9793   1.7323   2.1086

          k = 0.2667 0.0689 0.0000 ( 31033 PWs)   bands (ev):

   -22.2325 -22.2303 -22.2265 -22.2260 -22.2114 -22.1969 -22.1900 -22.1870
   -22.1823 -22.1788 -13.9524 -13.2367  -7.8757  -7.1631  -4.0818  -3.8817
    -2.8800  -2.7358  -1.7671  -1.4777   0.7836   0.9232   1.7469   2.0448

          k = 0.2667 0.1378 0.0000 ( 31014 PWs)   bands (ev):

   -22.2320 -22.2316 -22.2268 -22.2252 -22.2103 -22.1972 -22.1908 -22.1858
   -22.1833 -22.1783 -13.9007 -13.2213  -7.8489  -7.1797  -4.3606  -4.0310
    -3.1220  -2.6297  -1.5469  -1.5196   0.7499   0.9171   1.3004   2.5063

          k = 0.2667 0.2068 0.0000 ( 31001 PWs)   bands (ev):

   -22.2335 -22.2328 -22.2262 -22.2234 -22.2089 -22.1977 -22.1913 -22.1846
   -22.1844 -22.1778 -13.8190 -13.2019  -7.8167  -7.2210  -4.7467  -3.9656
    -3.4444  -2.5739  -1.8890  -1.3296   0.6666   1.0882   1.3036   2.7978

          k = 0.2667 0.2757 0.0000 ( 31018 PWs)   bands (ev):

   -22.2356 -22.2348 -22.2242 -22.2216 -22.2074 -22.1985 -22.1915 -22.1858
   -22.1830 -22.1775 -13.7137 -13.1875  -7.7922  -7.2983  -4.9896  -3.9234
    -3.6231  -2.6427  -2.3636  -1.3699   0.6024   1.5145   1.5877   2.7861

          k = 0.2667 0.3446 0.0000 ( 31002 PWs)   bands (ev):

   -22.2375 -22.2370 -22.2220 -22.2199 -22.2059 -22.1996 -22.1913 -22.1869
   -22.1816 -22.1774 -13.5943 -13.1888  -7.7802  -7.4105  -5.0621  -3.8941
    -3.7406  -2.8023  -2.7137  -1.6619   0.8173   1.7978   2.0796   2.5983

          k = 0.2667 0.4135 0.0000 ( 30988 PWs)   bands (ev):

   -22.2390 -22.2387 -22.2202 -22.2188 -22.2046 -22.2008 -22.1907 -22.1879
   -22.1802 -22.1777 -13.4726 -13.2156  -7.7672  -7.5378  -4.9663  -4.0289
    -3.7710  -3.0353  -2.7683  -2.0185   1.1463   2.1198   2.1869   2.6020

          k = 0.2667 0.4825 0.0000 ( 31004 PWs)   bands (ev):

   -22.2398 -22.2397 -22.2189 -22.2185 -22.2033 -22.2021 -22.1898 -22.1889
   -22.1791 -22.1782 -13.3618 -13.2736  -7.7294  -7.6515  -4.7299  -4.3949
    -3.5715  -3.3087  -2.6062  -2.3433   1.5061   1.8672   2.4385   2.6661

          k = 0.3333 0.0000 0.0000 ( 31084 PWs)   bands (ev):

   -22.2315 -22.2303 -22.2271 -22.2270 -22.2086 -22.1976 -22.1883 -22.1869
   -22.1826 -22.1804 -13.8424 -13.2833  -8.0385  -7.4827  -3.9094  -3.2491
    -3.0312  -2.4638  -1.8944  -1.1863   0.4331   1.1176   1.3754   1.6651

          k = 0.3333 0.0689 0.0000 ( 31037 PWs)   bands (ev):

   -22.2314 -22.2308 -22.2274 -22.2264 -22.2083 -22.1977 -22.1890 -22.1861
   -22.1832 -22.1800 -13.8260 -13.2762  -8.0179  -7.4733  -3.8936  -3.6755
    -2.7873  -2.6809  -1.7291  -1.2453   0.4537   1.0858   1.2915   1.6581

          k = 0.3333 0.1378 0.0000 ( 31036 PWs)   bands (ev):

   -22.2324 -22.2320 -22.2272 -22.2250 -22.2074 -22.1979 -22.1900 -22.1848
   -22.1843 -22.1792 -13.7783 -13.2567  -7.9591  -7.4487  -4.2170  -3.8519
    -3.1120  -2.6812  -1.6109  -1.4150   0.6988   0.8228   1.3158   2.1406

          k = 0.3333 0.2068 0.0000 ( 31016 PWs)   bands (ev):

   -22.2345 -22.2339 -22.2256 -22.2231 -22.2063 -22.1983 -22.1907 -22.1855
   -22.1834 -22.1785 -13.7032 -13.2302  -7.8709  -7.4199  -4.6964  -3.8112
    -3.5253  -2.6940  -2.1539  -1.3550   0.5884   1.4512   1.5140   2.4833

          k = 0.3333 0.2757 0.0000 ( 31016 PWs)   bands (ev):

   -22.2369 -22.2364 -22.2233 -22.2211 -22.2052 -22.1990 -22.1910 -22.1865
   -22.1820 -22.1780 -13.6079 -13.2053  -7.7694  -7.4028  -5.0555  -3.9122
    -3.7476  -2.7931  -2.6443  -1.6367   0.8486   1.8109   2.1358   2.5960

          k = 0.3333 0.3446 0.0000 ( 30988 PWs)   bands (ev):

   -22.2391 -22.2388 -22.2211 -22.2194 -22.2043 -22.1999 -22.1909 -22.1874
   -22.1807 -22.1777 -13.5020 -13.1923  -7.6752  -7.4111  -5.2517  -4.1106
    -3.9128  -2.9928  -2.8837  -1.9935   1.2095   2.1876   2.5323   2.7846

          k = 0.3333 0.4135 0.0000 ( 31008 PWs)   bands (ev):

   -22.2408 -22.2407 -22.2192 -22.2181 -22.2034 -22.2008 -22.1904 -22.1882
   -22.1796 -22.1777 -13.3973 -13.2013  -7.6025  -7.4462  -5.2616  -4.4132
    -3.9908  -3.2849  -2.8549  -2.2857   1.5527   2.3789   2.5891   3.2025

          k = 0.3333 0.4825 0.0000 ( 31000 PWs)   bands (ev):

   -22.2418 -22.2417 -22.2180 -22.2177 -22.2027 -22.2018 -22.1897 -22.1889
   -22.1786 -22.1780 -13.3061 -13.2389  -7.5471  -7.4957  -5.0946  -4.7904
    -3.8570  -3.5998  -2.7084  -2.5156   1.8653   2.1455   2.9485   3.1982

          k = 0.4000 0.0000 0.0000 ( 31028 PWs)   bands (ev):

   -22.2304 -22.2302 -22.2285 -22.2273 -22.2055 -22.1988 -22.1871 -22.1858
   -22.1836 -22.1818 -13.7054 -13.3519  -8.1102  -7.7599  -3.6827  -3.0317
    -3.0069  -2.4807  -1.7599  -0.9315   0.0905   1.1556   1.1793   1.3988

          k = 0.4000 0.0689 0.0000 ( 31028 PWs)   bands (ev):

   -22.2312 -22.2307 -22.2282 -22.2267 -22.2052 -22.1988 -22.1879 -22.1850
   -22.1843 -22.1812 -13.6906 -13.3431  -8.0846  -7.7415  -3.6722  -3.4404
    -2.8741  -2.7060  -1.5472  -1.1451   0.3035   0.7612   1.4375   1.4452

          k = 0.4000 0.1378 0.0000 ( 31022 PWs)   bands (ev):

   -22.2329 -22.2324 -22.2269 -22.2251 -22.2046 -22.1989 -22.1890 -22.1854
   -22.1837 -22.1802 -13.6478 -13.3183  -8.0097  -7.6886  -3.9968  -3.6507
    -3.1741  -2.8552  -1.6737  -1.3539   0.5116   0.9057   1.5620   1.9241

          k = 0.4000 0.2068 0.0000 ( 31017 PWs)   bands (ev):

   -22.2353 -22.2349 -22.2248 -22.2231 -22.2039 -22.1992 -22.1898 -22.1865
   -22.1823 -22.1793 -13.5813 -13.2828  -7.8917  -7.6093  -4.5306  -3.7448
    -3.5617  -2.8893  -2.2522  -1.5844   0.7662   1.6600   1.7922   2.2794

          k = 0.4000 0.2757 0.0000 ( 31002 PWs)   bands (ev):

   -22.2379 -22.2376 -22.2224 -22.2210 -22.2033 -22.1996 -22.1902 -22.1874
   -22.1811 -22.1786 -13.4984 -13.2447  -7.7434  -7.5177  -4.9722  -4.1440
    -3.6677  -3.0057  -2.6894  -1.9802   1.2002   2.1590   2.2513   2.6573

          k = 0.4000 0.3446 0.0000 ( 30994 PWs)   bands (ev):

   -22.2404 -22.2402 -22.2202 -22.2191 -22.2028 -22.2003 -22.1902 -22.1880
   -22.1799 -22.1781 -13.4091 -13.2142  -7.5874  -7.4327  -5.2757  -4.4967
    -3.8960  -3.2557  -2.8445  -2.2817   1.5708   2.3872   2.6295   3.3387

          k = 0.4000 0.4135 0.0000 ( 31032 PWs)   bands (ev):

   -22.2423 -22.2422 -22.2185 -22.2178 -22.2025 -22.2010 -22.1899 -22.1885
   -22.1790 -22.1778 -13.3250 -13.2018  -7.4559  -7.3732  -5.4033  -4.8140
    -4.0971  -3.5948  -2.8072  -2.4599   1.8645   2.3748   3.0798   3.6736

          k = 0.4000 0.4825 0.0000 ( 31000 PWs)   bands (ev):

   -22.2433 -22.2433 -22.2174 -22.2172 -22.2021 -22.2016 -22.1894 -22.1889
   -22.1783 -22.1779 -13.2575 -13.2153  -7.3759  -7.3515  -5.3400  -5.1182
    -4.0959  -3.9052  -2.7061  -2.5888   2.0993   2.2730   3.4242   3.6372

          k = 0.4667 0.0000 0.0000 ( 30970 PWs)   bands (ev):

   -22.2302 -22.2296 -22.2290 -22.2280 -22.2027 -22.2005 -22.1859 -22.1847
   -22.1846 -22.1832 -13.5704 -13.4493  -8.0868  -7.9670  -3.4371  -3.2007
    -2.7742  -2.5874  -1.4496  -1.0904   0.2311   0.6583   1.1779   1.3658

          k = 0.4667 0.0689 0.0000 ( 31006 PWs)   bands (ev):

   -22.2311 -22.2308 -22.2279 -22.2272 -22.2026 -22.2004 -22.1867 -22.1855
   -22.1837 -22.1825 -13.5576 -13.4385  -8.0603  -7.9429  -3.4405  -3.2921
    -2.9698  -2.8361  -1.3245  -1.1736   0.2920   0.4414   1.4968   1.6835

          k = 0.4667 0.1378 0.0000 ( 31031 PWs)   bands (ev):

   -22.2331 -22.2329 -22.2262 -22.2256 -22.2023 -22.2003 -22.1879 -22.1866
   -22.1825 -22.1813 -13.5205 -13.4077  -7.9823  -7.8725  -3.7366  -3.5390
    -3.2495  -3.0768  -1.5973  -1.4439   0.5686   0.7735   1.8443   1.9737

          k = 0.4667 0.2068 0.0000 ( 31038 PWs)   bands (ev):

   -22.2356 -22.2355 -22.2241 -22.2235 -22.2019 -22.2003 -22.1888 -22.1876
   -22.1813 -22.1803 -13.4639 -13.3618  -7.8579  -7.7616  -4.2803  -3.9895
    -3.3589  -3.1210  -2.1366  -1.8836   1.0839   1.4366   2.0855   2.2900

          k = 0.4667 0.2757 0.0000 ( 31012 PWs)   bands (ev):

   -22.2384 -22.2383 -22.2217 -22.2212 -22.2017 -22.2005 -22.1893 -22.1883
   -22.1802 -22.1793 -13.3955 -13.3087  -7.6976  -7.6214  -4.7636  -4.4680
    -3.4833  -3.2492  -2.5471  -2.2972   1.5670   1.9253   2.5054   2.7533

          k = 0.4667 0.3446 0.0000 ( 31017 PWs)   bands (ev):

   -22.2410 -22.2410 -22.2196 -22.2192 -22.2017 -22.2009 -22.1894 -22.1887
   -22.1792 -22.1786 -13.3253 -13.2587  -7.5213  -7.4709  -5.1364  -4.8617
    -3.7623  -3.5337  -2.7043  -2.5140   1.8875   2.1630   3.0323   3.3217

          k = 0.4667 0.4135 0.0000 ( 31036 PWs)   bands (ev):

   -22.2431 -22.2430 -22.2180 -22.2177 -22.2018 -22.2013 -22.1893 -22.1888
   -22.1785 -22.1781 -13.2645 -13.2224  -7.3627  -7.3387  -5.3653  -5.1538
    -4.0528  -3.8726  -2.7089  -2.5920   2.1058   2.2787   3.4561   3.6785

          k = 0.4667 0.4825 0.0000 ( 31003 PWs)   bands (ev):

   -22.2441 -22.2441 -22.2171 -22.2170 -22.2017 -22.2016 -22.1891 -22.1889
   -22.1780 -22.1779 -13.2235 -13.2091  -7.2659  -7.2601  -5.4309  -5.3479
    -4.1929  -4.1221  -2.6718  -2.6322   2.2462   2.3051   3.7099   3.8160

     the Fermi energy is    -0.8739 ev

!    total energy              =    -413.80388818 Ry
     estimated scf accuracy    <          9.7E-13 Ry
     smearing contrib. (-TS)   =       0.00010200 Ry
     internal energy E=F+TS    =    -413.80399017 Ry

     The total energy is F=E-TS. E is the sum of the following terms:
     one-electron contribution =   -1178.75315870 Ry
     hartree contribution      =     601.50759824 Ry
     xc contribution           =    -154.40218296 Ry
     ewald contribution        =     317.84375325 Ry

     convergence has been achieved in   7 iterations

     negative rho (up, down):  2.877E-05 0.000E+00

     Forces acting on atoms (cartesian axes, Ry/au):

     atom    1 type  1   force =     0.00001996    0.00000000   -0.00003033
     atom    2 type  1   force =     0.00001871    0.00000000    0.00003567
     atom    3 type  2   force =    -0.00002024    0.00000000   -0.00002145
     atom    4 type  2   force =    -0.00001843    0.00000000    0.00001612

     Total force =     0.000066     Total SCF correction =     0.000003

     bfgs converged in  17 scf cycles and  16 bfgs steps
     (criteria: energy <  1.0E-06 Ry, force <  3.8E-05 Ry/Bohr)

     End of BFGS Geometry Optimization

     Final energy   =    -413.8038881751 Ry

     File ./wfc-out/pwscf.bfgs deleted, as requested
Begin final coordinates

ATOMIC_POSITIONS (crystal)
Sn            0.5862991977        0.7500000000        0.1446033678
Sn            0.0863021450        0.2500000000        0.0065409988
Se            0.0278045332        0.2500000000        0.1421692360
Se            0.5278020981        0.7500000000        0.0089764514
End final coordinates



     Writing output data file ./wfc-out/pwscf.save/
 
     init_run     :      1.91s CPU      2.29s WALL (       1 calls)
     electrons    :    622.23s CPU    688.49s WALL (      17 calls)
     update_pot   :      6.86s CPU      6.95s WALL (      16 calls)
     forces       :     14.52s CPU     17.07s WALL (      17 calls)

     Called by init_run:
     wfcinit      :      1.16s CPU      1.31s WALL (       1 calls)
     potinit      :      0.15s CPU      0.17s WALL (       1 calls)
     hinit0       :      0.28s CPU      0.33s WALL (       1 calls)

     Called by electrons:
     c_bands      :    496.36s CPU    515.04s WALL (     149 calls)
     sum_band     :    101.47s CPU    124.28s WALL (     149 calls)
     v_of_rho     :      5.29s CPU      5.50s WALL (     150 calls)
     newd         :     20.18s CPU     41.25s WALL (     150 calls)
     mix_rho      :      0.75s CPU      0.79s WALL (     149 calls)

     Called by c_bands:
     init_us_2    :     11.80s CPU     12.89s WALL (   20224 calls)
     cegterg      :    436.95s CPU    452.12s WALL (    9536 calls)

     Called by *egterg:
     cdiaghg      :     26.76s CPU     27.29s WALL (   36233 calls)
     h_psi        :    329.33s CPU    342.68s WALL (   38345 calls)
     s_psi        :     15.43s CPU     15.78s WALL (   38345 calls)
     g_psi        :      1.73s CPU      1.76s WALL (   28745 calls)

     Called by h_psi:
     h_psi:calbec :     22.56s CPU     23.39s WALL (   38345 calls)
     vloc_psi     :    284.38s CPU    296.43s WALL (   38345 calls)
     add_vuspsi   :     19.41s CPU     19.86s WALL (   38345 calls)

     General routines
     calbec       :     31.94s CPU     33.11s WALL (   52233 calls)
     fft          :      4.52s CPU      4.65s WALL (    2135 calls)
     ffts         :      0.15s CPU      0.16s WALL (     299 calls)
     fftw         :    307.15s CPU    320.12s WALL ( 1446152 calls)
     interpolate  :      0.36s CPU      0.36s WALL (     150 calls)
 
     Parallel routines
     fft_scatt_xy :     41.81s CPU     43.74s WALL ( 1448586 calls)
     fft_scatt_yz :    178.76s CPU    186.07s WALL ( 1448586 calls)
 
     PWSCF        :  10m49.57s CPU  13m16.16s WALL

 
   This run was terminated on:   6:37: 8   8May2023            

=------------------------------------------------------------------------------=
   JOB DONE.
=------------------------------------------------------------------------------=
