 vasp.5.4.4.18Apr17-6-g9f103f2a35 (build Oct 01 2024 10:11:53) complex          
  
 executed on              Shaheen date 2025.02.19  15:20:00
 running on  192 total cores
 distrk:  each k-point on  192 cores,    1 groups
 distr:  one band on NCORES_PER_BAND=  24 cores,    8 groups


--------------------------------------------------------------------------------------------------------


 INCAR:
 POTCAR:    PAW_PBE Mo 08Apr2002                  
 POTCAR:    PAW_PBE S 06Sep2000                   
 POTCAR:    PAW_PBE Te 08Apr2002                  
 POTCAR:    PAW_PBE Mo 08Apr2002                  
   VRHFIN =Mo: 4p5s4d                                                           
   LEXCH  = PE                                                                  
   EATOM  =   217.5176 eV,   15.9871 Ry                                         
                                                                                
   TITEL  = PAW_PBE Mo 08Apr2002                                                
   LULTRA =        F    use ultrasoft PP ?                                      
   IUNSCR =        1    unscreen: 0-lin 1-nonlin 2-no                           
   RPACOR =    2.200    partial core radius                                     
   POMASS =   95.940; ZVAL   =    6.000    mass and valenz                      
   RCORE  =    2.750    outmost cutoff radius                                   
   RWIGS  =    2.750; RWIGS  =    1.455    wigner-seitz radius (au A)           
   ENMAX  =  224.584; ENMIN  =  168.438 eV                                      
   RCLOC  =    2.111    cutoff for local pot                                    
   LCOR   =        T    correct aug charges                                     
   LPAW   =        T    paw PP                                                  
   EAUG   =  345.278                                                            
   DEXC   =    0.000                                                            
   RMAX   =    2.821    core radius for proj-oper                               
   RAUG   =    1.300    factor for augmentation sphere                          
   RDEP   =    2.815    radius for radial grids                                 
   RDEPT  =    2.211    core radius for aug-charge                              
                                                                                
   Atomic configuration                                                         
   12 entries                                                                   
     n  l   j            E        occ.                                          
     1  0  0.50    -19819.0341   2.0000                                         
     2  0  0.50     -2799.0127   2.0000                                         
     2  1  1.50     -2502.0276   6.0000                                         
     3  0  0.50      -476.4448   2.0000                                         
     3  1  1.50      -379.1496   6.0000                                         
     3  2  2.50      -220.9367  10.0000                                         
     4  0  0.50       -64.3378   2.0000                                         
     4  1  1.50       -38.4773   6.0000                                         
     4  2  2.50        -3.7535   5.0000                                         
     5  0  0.50        -4.0862   1.0000                                         
     5  1  0.50        -2.7701   0.0000                                         
     4  3  2.50        -1.3606   0.0000                                         
   Description                                                                  
     l       E           TYP  RCUT    TYP  RCUT                                 
     2     -3.7534765     23  2.500                                             
     2     -5.1140591     23  2.500                                             
     0     -4.0861560     23  2.600                                             
     0     13.6058260     23  2.600                                             
     1      5.4423304     23  2.750                                             
     1     27.2116520     23  2.750                                             
  local pseudopotential read in
  partial core-charges read in
  partial kinetic energy density read in
  atomic valenz-charges read in
  non local Contribution for L=           2  read in
    real space projection operators read in
  non local Contribution for L=           2  read in
    real space projection operators read in
  non local Contribution for L=           0  read in
    real space projection operators read in
  non local Contribution for L=           0  read in
    real space projection operators read in
  non local Contribution for L=           1  read in
    real space projection operators read in
  non local Contribution for L=           1  read in
    real space projection operators read in
    PAW grid and wavefunctions read in
 
   number of l-projection  operators is LMAX  =           6
   number of lm-projection operators is LMMAX =          18
 
 POTCAR:    PAW_PBE S 06Sep2000                   
   VRHFIN =S : s2p4                                                             
   LEXCH  = PE                                                                  
   EATOM  =   276.8230 eV,   20.3459 Ry                                         
                                                                                
   TITEL  = PAW_PBE S 06Sep2000                                                 
   LULTRA =        F    use ultrasoft PP ?                                      
   IUNSCR =        1    unscreen: 0-lin 1-nonlin 2-no                           
   RPACOR =    1.500    partial core radius                                     
   POMASS =   32.066; ZVAL   =    6.000    mass and valenz                      
   RCORE  =    1.900    outmost cutoff radius                                   
   RWIGS  =    2.200; RWIGS  =    1.164    wigner-seitz radius (au A)           
   ENMAX  =  258.689; ENMIN  =  194.016 eV                                      
   ICORE  =        2    local potential                                         
   LCOR   =        T    correct aug charges                                     
   LPAW   =        T    paw PP                                                  
   EAUG   =  335.092                                                            
   DEXC   =    0.000                                                            
   RMAX   =    1.942    core radius for proj-oper                               
   RAUG   =    1.300    factor for augmentation sphere                          
   RDEP   =    1.954    radius for radial grids                                 
   RDEPT  =    1.744    core radius for aug-charge                              
                                                                                
   Atomic configuration                                                         
    6 entries                                                                   
     n  l   j            E        occ.                                          
     1  0  0.50     -2405.8406   2.0000                                         
     2  0  0.50      -211.7007   2.0000                                         
     2  1  1.50      -156.4958   6.0000                                         
     3  0  0.50       -17.2562   2.0000                                         
     3  1  0.50        -7.0085   4.0000                                         
     3  2  1.50        -6.8029   0.0000                                         
   Description                                                                  
     l       E           TYP  RCUT    TYP  RCUT                                 
     0    -17.2561641     23  1.900                                             
     0    -15.8743224     23  1.900                                             
     1     -7.0085400     23  1.900                                             
     1     -2.7779785     23  1.900                                             
     2     -6.8029130     23  1.900                                             
  local pseudopotential read in
  partial core-charges read in
  partial kinetic energy density read in
  atomic valenz-charges read in
  non local Contribution for L=           0  read in
    real space projection operators read in
  non local Contribution for L=           0  read in
    real space projection operators read in
  non local Contribution for L=           1  read in
    real space projection operators read in
  non local Contribution for L=           1  read in
    real space projection operators read in
    PAW grid and wavefunctions read in
 
   number of l-projection  operators is LMAX  =           4
   number of lm-projection operators is LMMAX =           8
 
 POTCAR:    PAW_PBE Te 08Apr2002                  
   VRHFIN =Te: s2p4                                                             
   LEXCH  = PE                                                                  
   EATOM  =   223.2721 eV,   16.4100 Ry                                         
                                                                                
   TITEL  = PAW_PBE Te 08Apr2002                                                
   LULTRA =        F    use ultrasoft PP ?                                      
   IUNSCR =        1    unscreen: 0-lin 1-nonlin 2-no                           
   RPACOR =    2.200    partial core radius                                     
   POMASS =  127.600; ZVAL   =    6.000    mass and valenz                      
   RCORE  =    2.300    outmost cutoff radius                                   
   RWIGS  =    2.900; RWIGS  =    1.535    wigner-seitz radius (au A)           
   ENMAX  =  174.982; ENMIN  =  131.236 eV                                      
   ICORE  =        3    local potential                                         
   LCOR   =        T    correct aug charges                                     
   LPAW   =        T    paw PP                                                  
   EAUG   =  368.792                                                            
   DEXC   =    0.000                                                            
   RMAX   =    2.345    core radius for proj-oper                               
   RAUG   =    1.300    factor for augmentation sphere                          
   RDEP   =    2.397    radius for radial grids                                 
   RDEPT  =    2.174    core radius for aug-charge                              
                                                                                
   Atomic configuration                                                         
   13 entries                                                                   
     n  l   j            E        occ.                                          
     1  0  0.50    -31621.2075   2.0000                                         
     2  0  0.50     -4848.7941   2.0000                                         
     2  1  1.50     -4352.1960   6.0000                                         
     3  0  0.50      -964.9612   2.0000                                         
     3  1  1.50      -803.6179   6.0000                                         
     3  2  2.50      -559.8710  10.0000                                         
     4  0  0.50      -164.3522   2.0000                                         
     4  1  1.50      -114.3756   6.0000                                         
     4  2  2.50       -41.6483  10.0000                                         
     5  0  0.50       -15.1072   2.0000                                         
     5  1  0.50        -5.9526   4.0000                                         
     5  2  1.50        -5.4423   0.0000                                         
     4  3  2.50        -5.4423   0.0000                                         
   Description                                                                  
     l       E           TYP  RCUT    TYP  RCUT                                 
     0    -15.1072389     23  2.300                                             
     0    -16.4678215     23  2.300                                             
     1     -5.9526306     23  2.300                                             
     1     -2.4873968     23  2.300                                             
     2     -5.4423304     23  2.300                                             
     3     -1.3605826     23  2.300                                             
  local pseudopotential read in
  partial core-charges read in
  partial kinetic energy density read in
  atomic valenz-charges read in
  non local Contribution for L=           0  read in
    real space projection operators read in
  non local Contribution for L=           0  read in
    real space projection operators read in
  non local Contribution for L=           1  read in
    real space projection operators read in
  non local Contribution for L=           1  read in
    real space projection operators read in
  non local Contribution for L=           2  read in
    real space projection operators read in
    PAW grid and wavefunctions read in
 
   number of l-projection  operators is LMAX  =           5
   number of lm-projection operators is LMMAX =          13
 
  PAW_PBE Mo 08Apr2002                  :
 energy of atom  1       EATOM= -217.5176
 kinetic energy error for atom=    0.0005 (will be added to EATOM!!)
  PAW_PBE S 06Sep2000                   :
 energy of atom  2       EATOM= -276.8230
 kinetic energy error for atom=    0.0009 (will be added to EATOM!!)
  PAW_PBE Te 08Apr2002                  :
 energy of atom  3       EATOM= -223.2721
 kinetic energy error for atom=    0.0004 (will be added to EATOM!!)
 
 
 POSCAR: Generated by VASPKIT code               
  positions in direct lattice
  velocities in cartesian coordinates
 exchange correlation table for  LEXCH =        8
   RHO(1)=    0.500       N(1)  =     2000
   RHO(2)=  100.500       N(2)  =     4000
 


--------------------------------------------------------------------------------------------------------


 ion  position               nearest neighbor table
   1  0.500  0.167  0.507-   4 2.44   4 2.44   3 2.44   6 2.72   6 2.72   5 2.72   2 3.37   2 3.37
                             2 3.37   2 3.37
   2  1.000  0.667  0.507-   3 2.44   3 2.44   4 2.44   5 2.72   5 2.72   6 2.72   1 3.37   1 3.37
                             1 3.37   1 3.37
   3  0.500  0.833  0.580-   2 2.44   2 2.44   1 2.44
   4  1.000  0.333  0.580-   1 2.44   1 2.44   2 2.44
   5  0.500  0.833  0.413-   2 2.72   2 2.72   1 2.72   6 3.37   6 3.37   6 3.37   6 3.37
   6  1.000  0.333  0.413-   1 2.72   1 2.72   2 2.72   5 3.37   5 3.37   5 3.37   5 3.37
 

IMPORTANT INFORMATION: All symmetrisations will be switched off!
NOSYMM: (Re-)initialisation of all symmetry stuff for point group C_1.

 
 
 KPOINTS: K-Spacing Value to Generate K-Mesh: 0.01

Automatic generation of k-mesh.
Space group operators:
 irot       det(A)        alpha          n_x          n_y          n_z        tau_x        tau_y        tau_z
    1     1.000000     0.000000     1.000000     0.000000     0.000000     0.000000     0.000000     0.000000
 
 Subroutine IBZKPT returns following result:
 ===========================================
 
 Found     10 irreducible k-points:
 
 Following reciprocal coordinates:
            Coordinates               Weight
  0.000000  0.000000  0.000000      1.000000
  0.052632  0.000000  0.000000      2.000000
  0.105263  0.000000  0.000000      2.000000
  0.157895  0.000000  0.000000      2.000000
  0.210526  0.000000  0.000000      2.000000
  0.263158  0.000000  0.000000      2.000000
  0.315789  0.000000  0.000000      2.000000
  0.368421  0.000000  0.000000      2.000000
  0.421053  0.000000  0.000000      2.000000
  0.473684  0.000000  0.000000      2.000000
 
 Following cartesian coordinates:
            Coordinates               Weight
  0.000000  0.000000  0.000000      1.000000
  0.015647  0.000000  0.000000      2.000000
  0.031295  0.000000  0.000000      2.000000
  0.046942  0.000000  0.000000      2.000000
  0.062590  0.000000  0.000000      2.000000
  0.078237  0.000000  0.000000      2.000000
  0.093884  0.000000  0.000000      2.000000
  0.109532  0.000000  0.000000      2.000000
  0.125179  0.000000  0.000000      2.000000
  0.140827  0.000000  0.000000      2.000000
 


--------------------------------------------------------------------------------------------------------




 Dimension of arrays:
   k-points           NKPTS =     80   k-points in BZ     NKDIM =     80   number of bands    NBANDS=     24
   number of dos      NEDOS =    301   number of ions     NIONS =      6
   non local maximal  LDIM  =      6   non local SUM 2l+1 LMDIM =     18
   total plane-waves  NPLWV = 217728
   max r-space proj   IRMAX =      1   max aug-charges    IRDMAX=  35313
   dimension x,y,z NGX =    28 NGY =   48 NGZ =  162
   dimension x,y,z NGXF=    56 NGYF=   96 NGZF=  324
   support grid    NGXF=    56 NGYF=   96 NGZF=  324
   ions per type =               2   2   2
   NGX,Y,Z   is equivalent  to a cutoff of  13.84, 13.66, 13.30 a.u.
   NGXF,Y,Z  is equivalent  to a cutoff of  27.68, 27.31, 26.60 a.u.

 SYSTEM =  unknown system                          
 POSCAR =  Generated by VASPKIT code               

 Startparameter for this run:
   NWRITE =      2    write-flag & timer
   PREC   = accura    normal or accurate (medium, high low for compatibility)
   ISTART =      0    job   : 0-new  1-cont  2-samecut
   ICHARG =     11    charge: 1-file 2-atom 10-const
   ISPIN  =      1    spin polarized calculation?
   LNONCOLLINEAR =      F non collinear calculations
   LSORBIT =      F    spin-orbit coupling
   INIWAV =      1    electr: 0-lowe 1-rand  2-diag
   LASPH  =      F    aspherical Exc in radial PAW
   METAGGA=      F    non-selfconsistent MetaGGA calc.

 Electronic Relaxation 1
   ENCUT  =  600.0 eV  44.10 Ry    6.64 a.u.   6.72 11.67 40.45*2*pi/ulx,y,z
   ENINI  =  600.0     initial cutoff
   ENAUG  =  368.8 eV  augmentation charge cutoff
   NELM   =     60;   NELMIN=  2; NELMDL=  0     # of ELM steps 
   EDIFF  = 0.1E-06   stopping-criterion for ELM
   LREAL  =      F    real-space projection
   NLSPLINE    = F    spline interpolate recip. space projectors
   LCOMPAT=      F    compatible to vasp.4.4
   GGA_COMPAT  = T    GGA compatible to vasp.4.4-vasp.4.6
   LMAXPAW     = -100 max onsite density
   LMAXMIX     =    2 max onsite mixed and CHGCAR
   VOSKOWN=      0    Vosko Wilk Nusair interpolation
   ROPT   =    0.00000   0.00000   0.00000
 Ionic relaxation
   EDIFFG = -.1E-02   stopping-criterion for IOM
   NSW    =      0    number of steps for IOM
   NBLOCK =      1;   KBLOCK =      1    inner block; outer block 
   IBRION =     -1    ionic relax: 0-MD 1-quasi-New 2-CG
   NFREE  =      0    steps in history (QN), initial steepest desc. (CG)
   ISIF   =      2    stress and relaxation
   IWAVPR =     10    prediction:  0-non 1-charg 2-wave 3-comb
   ISYM   =      0    0-nonsym 1-usesym 2-fastsym
   LCORR  =      T    Harris-Foulkes like correction to forces

   POTIM  = 0.5000    time-step for ionic-motion
   TEIN   =    0.0    initial temperature
   TEBEG  =    0.0;   TEEND  =   0.0 temperature during run
   SMASS  =  -3.00    Nose mass-parameter (am)
   estimated Nose-frequenzy (Omega)   =  0.10E-29 period in steps =****** mass=  -0.259E-27a.u.
   SCALEE = 1.0000    scale energy and forces
   NPACO  =    256;   APACO  = 16.0  distance and # of slots for P.C.
   PSTRESS=    0.0 pullay stress

  Mass of Ions in am
   POMASS =  95.94 32.07127.60
  Ionic Valenz
   ZVAL   =   6.00  6.00  6.00
  Atomic Wigner-Seitz radii
   RWIGS  =  -1.00 -1.00 -1.00
  virtual crystal weights 
   VCA    =   1.00  1.00  1.00
   NELECT =      36.0000    total number of electrons
   NUPDOWN=      -1.0000    fix difference up-down

 DOS related values:
   EMIN   =  10.00;   EMAX   =-10.00  energy-range for DOS
   EFERMI =   0.00
   ISMEAR =     0;   SIGMA  =   0.00  broadening in eV -4-tet -1-fermi 0-gaus

 Electronic relaxation 2 (details)
   IALGO  =     38    algorithm
   LDIAG  =      T    sub-space diagonalisation (order eigenvalues)
   LSUBROT=      F    optimize rotation matrix (better conditioning)
   TURBO    =      0    0=normal 1=particle mesh
   IRESTART =      0    0=no restart 2=restart with 2 vectors
   NREBOOT  =      0    no. of reboots
   NMIN     =      0    reboot dimension
   EREF     =   0.00    reference energy to select bands
   IMIX   =      4    mixing-type and parameters
     AMIX     =   0.40;   BMIX     =  1.00
     AMIX_MAG =   1.60;   BMIX_MAG =  1.00
     AMIN     =   0.10
     WC   =   100.;   INIMIX=   1;  MIXPRE=   1;  MAXMIX= -45

 Intra band minimization:
   WEIMIN = 0.0000     energy-eigenvalue tresh-hold
   EBREAK =  0.10E-08  absolut break condition
   DEPER  =   0.30     relativ break condition  

   TIME   =   0.40     timestep for ELM

  volume/ion in A,a.u.               =      66.34       447.71
  Fermi-wavevector in a.u.,A,eV,Ry     =   0.734839  1.388644  7.346984  0.539988
  Thomas-Fermi vector in A             =   1.827890
 
 Write flags
   LWAVE        =      F    write WAVECAR
   LDOWNSAMPLE  =      F    k-point downsampling of WAVECAR
   LCHARG       =      T    write CHGCAR
   LVTOT        =      F    write LOCPOT, total local potential
   LVHAR        =      F    write LOCPOT, Hartree potential only
   LELF         =      F    write electronic localiz. function (ELF)
   LORBIT       =      0    0 simple, 1 ext, 2 COOP (PROOUT), +10 PAW based schemes


 Dipole corrections
   LMONO  =      F    monopole corrections only (constant potential shift)
   LDIPOL =      T    correct potential (dipole corrections)
   IDIPOL =      3    1-x, 2-y, 3-z, 4-all directions 
   EPSILON=  1.0000000 bulk dielectric constant

 Exchange correlation treatment:
   GGA     =    PE    GGA type
   LEXCH   =     8    internal setting for exchange type
   VOSKOWN=      0    Vosko Wilk Nusair interpolation
   LHFCALC =     F    Hartree Fock is set to
   LHFONE  =     F    Hartree Fock one center treatment
   AEXX    =    0.0000 exact exchange contribution

 Parameters for Berry phase evaluation:
   LBERRY =      T    evaluation of Berry phase?
   IGPAR  =      2    parallel direction
   NPPSTR =      8    k-mesh size in direction IGPAR
 Linear response parameters
   LEPSILON=     F    determine dielectric tensor
   LRPA    =     F    only Hartree local field effects (RPA)
   LNABLA  =     F    use nabla operator in PAW spheres
   LVEL    =     F    velocity operator in full k-point grid
   LINTERFAST=   F  fast interpolation
   KINTER  =     0    interpolate to denser k-point grid
   CSHIFT  =0.1000    complex shift for real part using Kramers Kronig
   OMEGAMAX=  -1.0    maximum frequency
   DEG_THRESHOLD= 0.2000000E-02 threshold for treating states as degnerate
   RTIME   =   -0.100 relaxation time in fs
  (WPLASMAI=    0.000 imaginary part of plasma frequency in eV, 0.658/RTIME)
   DFIELD  = 0.0000000 0.0000000 0.0000000 field for delta impulse in time
 
 Orbital magnetization related:
   ORBITALMAG=     F  switch on orbital magnetization
   LCHIMAG   =     F  perturbation theory with respect to B field
   DQ        =  0.001000  dq finite difference perturbation B field
   LLRAUG    =     F  two centre corrections for induced B field



--------------------------------------------------------------------------------------------------------


 Static calculation
 charge density and potential remain constant during run
 non-spin polarized calculation
 Variant of blocked Davidson
 Davidson routine will perform the subspace rotation
 perform sub-space diagonalisation
    after iterative eigenvector-optimisation
 no mixing
 using additional bands            6
 reciprocal scheme for non local part
 use partial core corrections
 calculate Harris-corrections to forces 
   (improved forces if not selfconsistent)
 use gradient corrections 
 WARNING: stress and forces are not correct
  (second derivative of E(xc) not defined)
 use of overlap-Matrix (Vanderbilt PP)
 Gauss-broadening in eV      SIGMA  =   0.00


--------------------------------------------------------------------------------------------------------


  energy-cutoff  :      600.00
  volume of cell :      398.06
      direct lattice vectors                 reciprocal lattice vectors
     3.363599539  0.000000000  0.000000000     0.297300552  0.000000000  0.000000000
     0.000000000  5.843403604  0.000000000     0.000000000  0.171133139  0.000000000
     0.000000000  0.000000000 20.252588272     0.000000000  0.000000000  0.049376405

  length of vectors
     3.363599539  5.843403604 20.252588272     0.297300552  0.171133139  0.049376405


 
 k-points in units of 2pi/SCALE and weight: K-Spacing Value to Generate K-Mesh: 0.01
   0.00000000  0.00000000  0.00000000       0.007
   0.00000000  0.02139164  0.00000000       0.007
   0.00000000  0.04278328  0.00000000       0.007
   0.00000000  0.06417493  0.00000000       0.007
   0.00000000  0.08556657  0.00000000       0.007
   0.00000000  0.10695821  0.00000000       0.007
   0.00000000  0.12834985  0.00000000       0.007
   0.00000000  0.14974150  0.00000000       0.007
   0.01564740  0.00000000  0.00000000       0.013
   0.01564740  0.02139164  0.00000000       0.013
   0.01564740  0.04278328  0.00000000       0.013
   0.01564740  0.06417493  0.00000000       0.013
   0.01564740  0.08556657  0.00000000       0.013
   0.01564740  0.10695821  0.00000000       0.013
   0.01564740  0.12834985  0.00000000       0.013
   0.01564740  0.14974150  0.00000000       0.013
   0.03129479  0.00000000  0.00000000       0.013
   0.03129479  0.02139164  0.00000000       0.013
   0.03129479  0.04278328  0.00000000       0.013
   0.03129479  0.06417493  0.00000000       0.013
   0.03129479  0.08556657  0.00000000       0.013
   0.03129479  0.10695821  0.00000000       0.013
   0.03129479  0.12834985  0.00000000       0.013
   0.03129479  0.14974150  0.00000000       0.013
   0.04694219  0.00000000  0.00000000       0.013
   0.04694219  0.02139164  0.00000000       0.013
   0.04694219  0.04278328  0.00000000       0.013
   0.04694219  0.06417493  0.00000000       0.013
   0.04694219  0.08556657  0.00000000       0.013
   0.04694219  0.10695821  0.00000000       0.013
   0.04694219  0.12834985  0.00000000       0.013
   0.04694219  0.14974150  0.00000000       0.013
   0.06258959  0.00000000  0.00000000       0.013
   0.06258959  0.02139164  0.00000000       0.013
   0.06258959  0.04278328  0.00000000       0.013
   0.06258959  0.06417493  0.00000000       0.013
   0.06258959  0.08556657  0.00000000       0.013
   0.06258959  0.10695821  0.00000000       0.013
   0.06258959  0.12834985  0.00000000       0.013
   0.06258959  0.14974150  0.00000000       0.013
   0.07823699  0.00000000  0.00000000       0.013
   0.07823699  0.02139164  0.00000000       0.013
   0.07823699  0.04278328  0.00000000       0.013
   0.07823699  0.06417493  0.00000000       0.013
   0.07823699  0.08556657  0.00000000       0.013
   0.07823699  0.10695821  0.00000000       0.013
   0.07823699  0.12834985  0.00000000       0.013
   0.07823699  0.14974150  0.00000000       0.013
   0.09388438  0.00000000  0.00000000       0.013
   0.09388438  0.02139164  0.00000000       0.013
   0.09388438  0.04278328  0.00000000       0.013
   0.09388438  0.06417493  0.00000000       0.013
   0.09388438  0.08556657  0.00000000       0.013
   0.09388438  0.10695821  0.00000000       0.013
   0.09388438  0.12834985  0.00000000       0.013
   0.09388438  0.14974150  0.00000000       0.013
   0.10953178  0.00000000  0.00000000       0.013
   0.10953178  0.02139164  0.00000000       0.013
   0.10953178  0.04278328  0.00000000       0.013
   0.10953178  0.06417493  0.00000000       0.013
   0.10953178  0.08556657  0.00000000       0.013
   0.10953178  0.10695821  0.00000000       0.013
   0.10953178  0.12834985  0.00000000       0.013
   0.10953178  0.14974150  0.00000000       0.013
   0.12517918  0.00000000  0.00000000       0.013
   0.12517918  0.02139164  0.00000000       0.013
   0.12517918  0.04278328  0.00000000       0.013
   0.12517918  0.06417493  0.00000000       0.013
   0.12517918  0.08556657  0.00000000       0.013
   0.12517918  0.10695821  0.00000000       0.013
   0.12517918  0.12834985  0.00000000       0.013
   0.12517918  0.14974150  0.00000000       0.013
   0.14082658  0.00000000  0.00000000       0.013
   0.14082658  0.02139164  0.00000000       0.013
   0.14082658  0.04278328  0.00000000       0.013
   0.14082658  0.06417493  0.00000000       0.013
   0.14082658  0.08556657  0.00000000       0.013
   0.14082658  0.10695821  0.00000000       0.013
   0.14082658  0.12834985  0.00000000       0.013
   0.14082658  0.14974150  0.00000000       0.013
 
 k-points in reciprocal lattice and weights: K-Spacing Value to Generate K-Mesh: 0.01
   0.00000000  0.00000000  0.00000000       0.007
   0.00000000  0.12500000  0.00000000       0.007
   0.00000000  0.25000000  0.00000000       0.007
   0.00000000  0.37500000  0.00000000       0.007
   0.00000000  0.50000000  0.00000000       0.007
   0.00000000  0.62500000  0.00000000       0.007
   0.00000000  0.75000000  0.00000000       0.007
   0.00000000  0.87500000  0.00000000       0.007
   0.05263158  0.00000000  0.00000000       0.013
   0.05263158  0.12500000  0.00000000       0.013
   0.05263158  0.25000000  0.00000000       0.013
   0.05263158  0.37500000  0.00000000       0.013
   0.05263158  0.50000000  0.00000000       0.013
   0.05263158  0.62500000  0.00000000       0.013
   0.05263158  0.75000000  0.00000000       0.013
   0.05263158  0.87500000  0.00000000       0.013
   0.10526316  0.00000000  0.00000000       0.013
   0.10526316  0.12500000  0.00000000       0.013
   0.10526316  0.25000000  0.00000000       0.013
   0.10526316  0.37500000  0.00000000       0.013
   0.10526316  0.50000000  0.00000000       0.013
   0.10526316  0.62500000  0.00000000       0.013
   0.10526316  0.75000000  0.00000000       0.013
   0.10526316  0.87500000  0.00000000       0.013
   0.15789474  0.00000000  0.00000000       0.013
   0.15789474  0.12500000  0.00000000       0.013
   0.15789474  0.25000000  0.00000000       0.013
   0.15789474  0.37500000  0.00000000       0.013
   0.15789474  0.50000000  0.00000000       0.013
   0.15789474  0.62500000  0.00000000       0.013
   0.15789474  0.75000000  0.00000000       0.013
   0.15789474  0.87500000  0.00000000       0.013
   0.21052632  0.00000000  0.00000000       0.013
   0.21052632  0.12500000  0.00000000       0.013
   0.21052632  0.25000000  0.00000000       0.013
   0.21052632  0.37500000  0.00000000       0.013
   0.21052632  0.50000000  0.00000000       0.013
   0.21052632  0.62500000  0.00000000       0.013
   0.21052632  0.75000000  0.00000000       0.013
   0.21052632  0.87500000  0.00000000       0.013
   0.26315789  0.00000000  0.00000000       0.013
   0.26315789  0.12500000  0.00000000       0.013
   0.26315789  0.25000000  0.00000000       0.013
   0.26315789  0.37500000  0.00000000       0.013
   0.26315789  0.50000000  0.00000000       0.013
   0.26315789  0.62500000  0.00000000       0.013
   0.26315789  0.75000000  0.00000000       0.013
   0.26315789  0.87500000  0.00000000       0.013
   0.31578947  0.00000000  0.00000000       0.013
   0.31578947  0.12500000  0.00000000       0.013
   0.31578947  0.25000000  0.00000000       0.013
   0.31578947  0.37500000  0.00000000       0.013
   0.31578947  0.50000000  0.00000000       0.013
   0.31578947  0.62500000  0.00000000       0.013
   0.31578947  0.75000000  0.00000000       0.013
   0.31578947  0.87500000  0.00000000       0.013
   0.36842105  0.00000000  0.00000000       0.013
   0.36842105  0.12500000  0.00000000       0.013
   0.36842105  0.25000000  0.00000000       0.013
   0.36842105  0.37500000  0.00000000       0.013
   0.36842105  0.50000000  0.00000000       0.013
   0.36842105  0.62500000  0.00000000       0.013
   0.36842105  0.75000000  0.00000000       0.013
   0.36842105  0.87500000  0.00000000       0.013
   0.42105263  0.00000000  0.00000000       0.013
   0.42105263  0.12500000  0.00000000       0.013
   0.42105263  0.25000000  0.00000000       0.013
   0.42105263  0.37500000  0.00000000       0.013
   0.42105263  0.50000000  0.00000000       0.013
   0.42105263  0.62500000  0.00000000       0.013
   0.42105263  0.75000000  0.00000000       0.013
   0.42105263  0.87500000  0.00000000       0.013
   0.47368421  0.00000000  0.00000000       0.013
   0.47368421  0.12500000  0.00000000       0.013
   0.47368421  0.25000000  0.00000000       0.013
   0.47368421  0.37500000  0.00000000       0.013
   0.47368421  0.50000000  0.00000000       0.013
   0.47368421  0.62500000  0.00000000       0.013
   0.47368421  0.75000000  0.00000000       0.013
   0.47368421  0.87500000  0.00000000       0.013
 
 position of ions in fractional coordinates (direct lattice) 
   0.49999999  0.16653123  0.50703432
   0.99999999  0.66653124  0.50703436
   0.49999999  0.83340952  0.57968142
   0.99999999  0.33340944  0.57968140
   0.49999999  0.83339239  0.41328418
   0.99999999  0.33339222  0.41328420
 
 position of ions in cartesian coordinates  (Angst):
   1.68179974  0.97310917 10.26875735
   3.36359950  3.89481105 10.26875823
   1.68179972  4.86994817 11.74004915
   3.36359950  1.94824592 11.74004866
   1.68179975  4.86984810  8.37007427
   3.36359951  1.94814529  8.37007478
 


--------------------------------------------------------------------------------------------------------


 k-point  1 :   0.0000 0.0000 0.0000  plane waves:   13319
 k-point  2 :   0.0000 0.1250 0.0000  plane waves:   13315
 k-point  3 :   0.0000 0.2500 0.0000  plane waves:   13281
 k-point  4 :   0.0000 0.3750 0.0000  plane waves:   13278
 k-point  5 :   0.0000 0.5000 0.0000  plane waves:   13296
 k-point  6 :   0.0000 0.6250 0.0000  plane waves:   13278
 k-point  7 :   0.0000 0.7500 0.0000  plane waves:   13281
 k-point  8 :   0.0000 0.8750 0.0000  plane waves:   13315
 k-point  9 :   0.0526 0.0000 0.0000  plane waves:   13317
 k-point 10 :   0.0526 0.1250 0.0000  plane waves:   13320
 k-point 11 :   0.0526 0.2500 0.0000  plane waves:   13299
 k-point 12 :   0.0526 0.3750 0.0000  plane waves:   13290
 k-point 13 :   0.0526 0.5000 0.0000  plane waves:   13252
 k-point 14 :   0.0526 0.6250 0.0000  plane waves:   13290
 k-point 15 :   0.0526 0.7500 0.0000  plane waves:   13299
 k-point 16 :   0.0526 0.8750 0.0000  plane waves:   13320
 k-point 17 :   0.1053 0.0000 0.0000  plane waves:   13305
 k-point 18 :   0.1053 0.1250 0.0000  plane waves:   13313
 k-point 19 :   0.1053 0.2500 0.0000  plane waves:   13284
 k-point 20 :   0.1053 0.3750 0.0000  plane waves:   13282
 k-point 21 :   0.1053 0.5000 0.0000  plane waves:   13270
 k-point 22 :   0.1053 0.6250 0.0000  plane waves:   13282
 k-point 23 :   0.1053 0.7500 0.0000  plane waves:   13284
 k-point 24 :   0.1053 0.8750 0.0000  plane waves:   13313
 k-point 25 :   0.1579 0.0000 0.0000  plane waves:   13319
 k-point 26 :   0.1579 0.1250 0.0000  plane waves:   13297
 k-point 27 :   0.1579 0.2500 0.0000  plane waves:   13280
 k-point 28 :   0.1579 0.3750 0.0000  plane waves:   13283
 k-point 29 :   0.1579 0.5000 0.0000  plane waves:   13246
 k-point 30 :   0.1579 0.6250 0.0000  plane waves:   13283
 k-point 31 :   0.1579 0.7500 0.0000  plane waves:   13280
 k-point 32 :   0.1579 0.8750 0.0000  plane waves:   13297
 k-point 33 :   0.2105 0.0000 0.0000  plane waves:   13303
 k-point 34 :   0.2105 0.1250 0.0000  plane waves:   13292
 k-point 35 :   0.2105 0.2500 0.0000  plane waves:   13280
 k-point 36 :   0.2105 0.3750 0.0000  plane waves:   13268
 k-point 37 :   0.2105 0.5000 0.0000  plane waves:   13280
 k-point 38 :   0.2105 0.6250 0.0000  plane waves:   13268
 k-point 39 :   0.2105 0.7500 0.0000  plane waves:   13280
 k-point 40 :   0.2105 0.8750 0.0000  plane waves:   13292
 k-point 41 :   0.2632 0.0000 0.0000  plane waves:   13273
 k-point 42 :   0.2632 0.1250 0.0000  plane waves:   13282
 k-point 43 :   0.2632 0.2500 0.0000  plane waves:   13260
 k-point 44 :   0.2632 0.3750 0.0000  plane waves:   13262
 k-point 45 :   0.2632 0.5000 0.0000  plane waves:   13280
 k-point 46 :   0.2632 0.6250 0.0000  plane waves:   13262
 k-point 47 :   0.2632 0.7500 0.0000  plane waves:   13260
 k-point 48 :   0.2632 0.8750 0.0000  plane waves:   13282
 k-point 49 :   0.3158 0.0000 0.0000  plane waves:   13274
 k-point 50 :   0.3158 0.1250 0.0000  plane waves:   13287
 k-point 51 :   0.3158 0.2500 0.0000  plane waves:   13256
 k-point 52 :   0.3158 0.3750 0.0000  plane waves:   13276
 k-point 53 :   0.3158 0.5000 0.0000  plane waves:   13266
 k-point 54 :   0.3158 0.6250 0.0000  plane waves:   13276
 k-point 55 :   0.3158 0.7500 0.0000  plane waves:   13256
 k-point 56 :   0.3158 0.8750 0.0000  plane waves:   13287
 k-point 57 :   0.3684 0.0000 0.0000  plane waves:   13264
 k-point 58 :   0.3684 0.1250 0.0000  plane waves:   13275
 k-point 59 :   0.3684 0.2500 0.0000  plane waves:   13280
 k-point 60 :   0.3684 0.3750 0.0000  plane waves:   13287
 k-point 61 :   0.3684 0.5000 0.0000  plane waves:   13272
 k-point 62 :   0.3684 0.6250 0.0000  plane waves:   13287
 k-point 63 :   0.3684 0.7500 0.0000  plane waves:   13280
 k-point 64 :   0.3684 0.8750 0.0000  plane waves:   13275
 k-point 65 :   0.4211 0.0000 0.0000  plane waves:   13288
 k-point 66 :   0.4211 0.1250 0.0000  plane waves:   13262
 k-point 67 :   0.4211 0.2500 0.0000  plane waves:   13304
 k-point 68 :   0.4211 0.3750 0.0000  plane waves:   13288
 k-point 69 :   0.4211 0.5000 0.0000  plane waves:   13294
 k-point 70 :   0.4211 0.6250 0.0000  plane waves:   13288
 k-point 71 :   0.4211 0.7500 0.0000  plane waves:   13304
 k-point 72 :   0.4211 0.8750 0.0000  plane waves:   13262
 k-point 73 :   0.4737 0.0000 0.0000  plane waves:   13250
 k-point 74 :   0.4737 0.1250 0.0000  plane waves:   13275
 k-point 75 :   0.4737 0.2500 0.0000  plane waves:   13303
 k-point 76 :   0.4737 0.3750 0.0000  plane waves:   13314
 k-point 77 :   0.4737 0.5000 0.0000  plane waves:   13344
 k-point 78 :   0.4737 0.6250 0.0000  plane waves:   13314
 k-point 79 :   0.4737 0.7500 0.0000  plane waves:   13303
 k-point 80 :   0.4737 0.8750 0.0000  plane waves:   13275

 maximum and minimum number of plane-waves per node :       575      528

 maximum number of plane-waves:     13344
 maximum index in each direction: 
   IXMAX=    6   IYMAX=   11   IZMAX=   40
   IXMIN=   -7   IYMIN=  -12   IZMIN=  -40


 parallel 3D FFT for wavefunctions:
    minimum data exchange during FFTs selected (reduces bandwidth)
 parallel 3D FFT for charge:
    minimum data exchange during FFTs selected (reduces bandwidth)


 total amount of memory used by VASP MPI-rank0    55685. kBytes
=======================================================================

   base      :      30000. kBytes
   nonl-proj :      19407. kBytes
   fftplans  :       1398. kBytes
   grid      :       2623. kBytes
   one-center:         15. kBytes
   wavefun   :       2242. kBytes
 
     INWAV:  cpu time    0.0000: real time    0.0000
 initial charge density was supplied:
 number of electron      36.0000000 magnetization 
 keeping initial charge density in first step


--------------------------------------------------------------------------------------------------------


 Maximum index for augmentation-charges         1247 (set IRDMAX)


--------------------------------------------------------------------------------------------------------


 First call to EWALD:  gamma=   0.241
 Maximum number of real-space cells 5x 3x 1
 Maximum number of reciprocal cells 2x 2x 7

    FEWALD:  cpu time    0.0015: real time    0.0016


--------------------------------------- Iteration      1(   1)  ---------------------------------------


    POTLOK:  cpu time    0.0191: real time    0.0718
    SETDIJ:  cpu time    0.0057: real time    0.0057
     EDDAV:  cpu time    0.8842: real time    0.8848
       DOS:  cpu time    0.0011: real time    0.0011
    --------------------------------------------
      LOOP:  cpu time    0.9101: real time    0.9633

 eigenvalue-minimisations  :  3840
 total energy-change (2. order) : 0.2617207E+03  (-0.1293476E+04)
 number of electron      36.0000000 magnetization 
 augmentation part       36.0000000 magnetization 

 DIPCOR: dipole corrections for dipol
 direction  3 min pos     1,
 dipolmoment           0.000000      0.000000      0.159446 electrons x Angstroem
 Tr[quadrupol]      -126.402124

 energy correction for charged system         0.000000 eV
 dipol+quadrupol energy correction           -0.005778 eV
 added-field ion interaction          0.000001 eV  (added to PSCEN)


 Free energy of the ion-electron system (eV)
  ---------------------------------------------------
  alpha Z        PSCENC =        26.02042021
  Ewald energy   TEWEN  =      4167.52543479
  -Hartree energ DENC   =     -5511.23998774
  -exchange      EXHF   =         0.00000000
  -V(xc)+E(xc)   XCENC  =      -151.30164677
  PAW double counting   =      2972.01807628    -2749.26246928
  entropy T*S    EENTRO =        -0.00000074
  eigenvalues    EBANDS =        72.73910701
  atomic energy  EATOM  =      1435.22174307
  Solvation  Ediel_sol  =         0.00000000
  ---------------------------------------------------
  free energy    TOTEN  =       261.72067683 eV

  energy without entropy =      261.72067757  energy(sigma->0) =      261.72067720


--------------------------------------------------------------------------------------------------------




--------------------------------------- Iteration      1(   2)  ---------------------------------------


     EDDAV:  cpu time    1.0759: real time    1.0761
       DOS:  cpu time    0.0010: real time    0.0010
    --------------------------------------------
      LOOP:  cpu time    1.0769: real time    1.0771

 eigenvalue-minimisations  :  6080
 total energy-change (2. order) :-0.2672504E+03  (-0.2586095E+03)
 number of electron      36.0000000 magnetization 
 augmentation part       36.0000000 magnetization 

 DIPCOR: dipole corrections for dipol
 direction  3 min pos     1,
 dipolmoment           0.000000      0.000000      0.159446 electrons x Angstroem
 Tr[quadrupol]      -126.402124

 energy correction for charged system         0.000000 eV
 dipol+quadrupol energy correction           -0.005778 eV
 added-field ion interaction          0.000001 eV  (added to PSCEN)


 Free energy of the ion-electron system (eV)
  ---------------------------------------------------
  alpha Z        PSCENC =        26.02042021
  Ewald energy   TEWEN  =      4167.52543479
  -Hartree energ DENC   =     -5511.23998774
  -exchange      EXHF   =         0.00000000
  -V(xc)+E(xc)   XCENC  =      -151.30164677
  PAW double counting   =      2972.01807628    -2749.26246928
  entropy T*S    EENTRO =        -0.00000074
  eigenvalues    EBANDS =      -194.51127206
  atomic energy  EATOM  =      1435.22174307
  Solvation  Ediel_sol  =         0.00000000
  ---------------------------------------------------
  free energy    TOTEN  =        -5.52970224 eV

  energy without entropy =       -5.52970150  energy(sigma->0) =       -5.52970187


--------------------------------------------------------------------------------------------------------




--------------------------------------- Iteration      1(   3)  ---------------------------------------


     EDDAV:  cpu time    0.9616: real time    0.9621
       DOS:  cpu time    0.0006: real time    0.0006
    --------------------------------------------
      LOOP:  cpu time    0.9622: real time    0.9626

 eigenvalue-minimisations  :  5048
 total energy-change (2. order) :-0.3278751E+02  (-0.3240337E+02)
 number of electron      36.0000000 magnetization 
 augmentation part       36.0000000 magnetization 

 DIPCOR: dipole corrections for dipol
 direction  3 min pos     1,
 dipolmoment           0.000000      0.000000      0.159446 electrons x Angstroem
 Tr[quadrupol]      -126.402124

 energy correction for charged system         0.000000 eV
 dipol+quadrupol energy correction           -0.005778 eV
 added-field ion interaction          0.000001 eV  (added to PSCEN)


 Free energy of the ion-electron system (eV)
  ---------------------------------------------------
  alpha Z        PSCENC =        26.02042021
  Ewald energy   TEWEN  =      4167.52543479
  -Hartree energ DENC   =     -5511.23998774
  -exchange      EXHF   =         0.00000000
  -V(xc)+E(xc)   XCENC  =      -151.30164677
  PAW double counting   =      2972.01807628    -2749.26246928
  entropy T*S    EENTRO =         0.00000000
  eigenvalues    EBANDS =      -227.29878258
  atomic energy  EATOM  =      1435.22174307
  Solvation  Ediel_sol  =         0.00000000
  ---------------------------------------------------
  free energy    TOTEN  =       -38.31721202 eV

  energy without entropy =      -38.31721202  energy(sigma->0) =      -38.31721202


--------------------------------------------------------------------------------------------------------




--------------------------------------- Iteration      1(   4)  ---------------------------------------


     EDDAV:  cpu time    1.0323: real time    1.0326
       DOS:  cpu time    0.0005: real time    0.0005
    --------------------------------------------
      LOOP:  cpu time    1.0329: real time    1.0331

 eigenvalue-minimisations  :  5760
 total energy-change (2. order) :-0.1078434E+01  (-0.1072860E+01)
 number of electron      36.0000000 magnetization 
 augmentation part       36.0000000 magnetization 

 DIPCOR: dipole corrections for dipol
 direction  3 min pos     1,
 dipolmoment           0.000000      0.000000      0.159446 electrons x Angstroem
 Tr[quadrupol]      -126.402124

 energy correction for charged system         0.000000 eV
 dipol+quadrupol energy correction           -0.005778 eV
 added-field ion interaction          0.000001 eV  (added to PSCEN)


 Free energy of the ion-electron system (eV)
  ---------------------------------------------------
  alpha Z        PSCENC =        26.02042021
  Ewald energy   TEWEN  =      4167.52543479
  -Hartree energ DENC   =     -5511.23998774
  -exchange      EXHF   =         0.00000000
  -V(xc)+E(xc)   XCENC  =      -151.30164677
  PAW double counting   =      2972.01807628    -2749.26246928
  entropy T*S    EENTRO =         0.00000000
  eigenvalues    EBANDS =      -228.37721645
  atomic energy  EATOM  =      1435.22174307
  Solvation  Ediel_sol  =         0.00000000
  ---------------------------------------------------
  free energy    TOTEN  =       -39.39564589 eV

  energy without entropy =      -39.39564589  energy(sigma->0) =      -39.39564589


--------------------------------------------------------------------------------------------------------




--------------------------------------- Iteration      1(   5)  ---------------------------------------


     EDDAV:  cpu time    1.0306: real time    1.0309
       DOS:  cpu time    0.0006: real time    0.0006
    --------------------------------------------
      LOOP:  cpu time    1.0312: real time    1.0315

 eigenvalue-minimisations  :  5712
 total energy-change (2. order) :-0.2814068E-01  (-0.2812321E-01)
 number of electron      36.0000000 magnetization 
 augmentation part       36.0000000 magnetization 

 DIPCOR: dipole corrections for dipol
 direction  3 min pos     1,
 dipolmoment           0.000000      0.000000      0.159446 electrons x Angstroem
 Tr[quadrupol]      -126.402124

 energy correction for charged system         0.000000 eV
 dipol+quadrupol energy correction           -0.005778 eV
 added-field ion interaction          0.000001 eV  (added to PSCEN)


 Free energy of the ion-electron system (eV)
  ---------------------------------------------------
  alpha Z        PSCENC =        26.02042021
  Ewald energy   TEWEN  =      4167.52543479
  -Hartree energ DENC   =     -5511.23998774
  -exchange      EXHF   =         0.00000000
  -V(xc)+E(xc)   XCENC  =      -151.30164677
  PAW double counting   =      2972.01807628    -2749.26246928
  entropy T*S    EENTRO =         0.00000000
  eigenvalues    EBANDS =      -228.40535713
  atomic energy  EATOM  =      1435.22174307
  Solvation  Ediel_sol  =         0.00000000
  ---------------------------------------------------
  free energy    TOTEN  =       -39.42378657 eV

  energy without entropy =      -39.42378657  energy(sigma->0) =      -39.42378657


--------------------------------------------------------------------------------------------------------




--------------------------------------- Iteration      1(   6)  ---------------------------------------


     EDDAV:  cpu time    1.0346: real time    1.0349
       DOS:  cpu time    0.0005: real time    0.0005
    --------------------------------------------
      LOOP:  cpu time    1.0353: real time    1.0355

 eigenvalue-minimisations  :  5800
 total energy-change (2. order) :-0.4411676E-03  (-0.4409752E-03)
 number of electron      36.0000000 magnetization 
 augmentation part       36.0000000 magnetization 

 DIPCOR: dipole corrections for dipol
 direction  3 min pos     1,
 dipolmoment           0.000000      0.000000      0.159446 electrons x Angstroem
 Tr[quadrupol]      -126.402124

 energy correction for charged system         0.000000 eV
 dipol+quadrupol energy correction           -0.005778 eV
 added-field ion interaction          0.000001 eV  (added to PSCEN)


 Free energy of the ion-electron system (eV)
  ---------------------------------------------------
  alpha Z        PSCENC =        26.02042021
  Ewald energy   TEWEN  =      4167.52543479
  -Hartree energ DENC   =     -5511.23998774
  -exchange      EXHF   =         0.00000000
  -V(xc)+E(xc)   XCENC  =      -151.30164677
  PAW double counting   =      2972.01807628    -2749.26246928
  entropy T*S    EENTRO =         0.00000000
  eigenvalues    EBANDS =      -228.40579830
  atomic energy  EATOM  =      1435.22174307
  Solvation  Ediel_sol  =         0.00000000
  ---------------------------------------------------
  free energy    TOTEN  =       -39.42422774 eV

  energy without entropy =      -39.42422774  energy(sigma->0) =      -39.42422774


--------------------------------------------------------------------------------------------------------




--------------------------------------- Iteration      1(   7)  ---------------------------------------


     EDDAV:  cpu time    1.0212: real time    1.0215
       DOS:  cpu time    0.0006: real time    0.0006
    --------------------------------------------
      LOOP:  cpu time    1.0217: real time    1.0220

 eigenvalue-minimisations  :  5704
 total energy-change (2. order) :-0.1262899E-04  (-0.1262851E-04)
 number of electron      36.0000000 magnetization 
 augmentation part       36.0000000 magnetization 

 DIPCOR: dipole corrections for dipol
 direction  3 min pos     1,
 dipolmoment           0.000000      0.000000      0.159446 electrons x Angstroem
 Tr[quadrupol]      -126.402124

 energy correction for charged system         0.000000 eV
 dipol+quadrupol energy correction           -0.005778 eV
 added-field ion interaction          0.000001 eV  (added to PSCEN)


 Free energy of the ion-electron system (eV)
  ---------------------------------------------------
  alpha Z        PSCENC =        26.02042021
  Ewald energy   TEWEN  =      4167.52543479
  -Hartree energ DENC   =     -5511.23998774
  -exchange      EXHF   =         0.00000000
  -V(xc)+E(xc)   XCENC  =      -151.30164677
  PAW double counting   =      2972.01807628    -2749.26246928
  entropy T*S    EENTRO =         0.00000000
  eigenvalues    EBANDS =      -228.40581093
  atomic energy  EATOM  =      1435.22174307
  Solvation  Ediel_sol  =         0.00000000
  ---------------------------------------------------
  free energy    TOTEN  =       -39.42424037 eV

  energy without entropy =      -39.42424037  energy(sigma->0) =      -39.42424037


--------------------------------------------------------------------------------------------------------




--------------------------------------- Iteration      1(   8)  ---------------------------------------


     EDDAV:  cpu time    1.0420: real time    1.0422
       DOS:  cpu time    0.0005: real time    0.0005
    --------------------------------------------
      LOOP:  cpu time    1.0425: real time    1.0428

 eigenvalue-minimisations  :  5872
 total energy-change (2. order) :-0.3357345E-06  (-0.3357162E-06)
 number of electron      36.0000000 magnetization 
 augmentation part       36.0000000 magnetization 

 DIPCOR: dipole corrections for dipol
 direction  3 min pos     1,
 dipolmoment           0.000000      0.000000      0.159446 electrons x Angstroem
 Tr[quadrupol]      -126.402124

 energy correction for charged system         0.000000 eV
 dipol+quadrupol energy correction           -0.005778 eV
 added-field ion interaction          0.000001 eV  (added to PSCEN)


 Free energy of the ion-electron system (eV)
  ---------------------------------------------------
  alpha Z        PSCENC =        26.02042021
  Ewald energy   TEWEN  =      4167.52543479
  -Hartree energ DENC   =     -5511.23998774
  -exchange      EXHF   =         0.00000000
  -V(xc)+E(xc)   XCENC  =      -151.30164677
  PAW double counting   =      2972.01807628    -2749.26246928
  entropy T*S    EENTRO =         0.00000000
  eigenvalues    EBANDS =      -228.40581126
  atomic energy  EATOM  =      1435.22174307
  Solvation  Ediel_sol  =         0.00000000
  ---------------------------------------------------
  free energy    TOTEN  =       -39.42424070 eV

  energy without entropy =      -39.42424070  energy(sigma->0) =      -39.42424070


--------------------------------------------------------------------------------------------------------




--------------------------------------- Iteration      1(   9)  ---------------------------------------


     EDDAV:  cpu time    0.8410: real time    0.8414
       DOS:  cpu time    0.0005: real time    0.0005
    --------------------------------------------
      LOOP:  cpu time    0.8415: real time    0.8419

 eigenvalue-minimisations  :  3840
 total energy-change (2. order) :-0.8354618E-08  (-0.8345703E-08)
 number of electron      36.0000000 magnetization 
 augmentation part       36.0000000 magnetization 

 DIPCOR: dipole corrections for dipol
 direction  3 min pos     1,
 dipolmoment           0.000000      0.000000      0.159446 electrons x Angstroem
 Tr[quadrupol]      -126.402124

 energy correction for charged system         0.000000 eV
 dipol+quadrupol energy correction           -0.005778 eV
 added-field ion interaction          0.000001 eV  (added to PSCEN)


 Free energy of the ion-electron system (eV)
  ---------------------------------------------------
  alpha Z        PSCENC =        26.02042021
  Ewald energy   TEWEN  =      4167.52543479
  -Hartree energ DENC   =     -5511.23998774
  -exchange      EXHF   =         0.00000000
  -V(xc)+E(xc)   XCENC  =      -151.30164677
  PAW double counting   =      2972.01807628    -2749.26246928
  entropy T*S    EENTRO =         0.00000000
  eigenvalues    EBANDS =      -228.40581127
  atomic energy  EATOM  =      1435.22174307
  Solvation  Ediel_sol  =         0.00000000
  ---------------------------------------------------
  free energy    TOTEN  =       -39.42424071 eV

  energy without entropy =      -39.42424071  energy(sigma->0) =      -39.42424071


--------------------------------------------------------------------------------------------------------




 average (electrostatic) potential at core
  the test charge radii are     1.2296  0.9698  1.1897
  (the norm of the test charge is              1.0000)
       1 -45.0226       2 -45.0227       3 -92.8827       4 -92.8827       5 -95.9759
       6 -95.9759
 
 
 
 E-fermi :  -1.4011     XC(G=0):  -3.9296     alpha+bet : -3.9479


 k-point     1 :       0.0000    0.0000    0.0000
  band No.  band energies     occupation 
      1     -15.0700      2.00000
      2     -14.0608      2.00000
      3     -13.7315      2.00000
      4     -12.2655      2.00000
      5      -7.4700      2.00000
      6      -6.8967      2.00000
      7      -6.2697      2.00000
      8      -5.2568      2.00000
      9      -4.5018      2.00000
     10      -4.2178      2.00000
     11      -4.1945      2.00000
     12      -3.9375      2.00000
     13      -3.4958      2.00000
     14      -2.5194      2.00000
     15      -2.4980      2.00000
     16      -2.2394      2.00000
     17      -2.1173      2.00000
     18      -1.4263      2.00000
     19       0.0718      0.00000
     20       0.2387      0.00000
     21       1.0254      0.00000
     22       1.0414      0.00000
     23       1.6234      0.00000
     24       2.0607      0.00000

 k-point     2 :       0.0000    0.1250    0.0000
  band No.  band energies     occupation 
      1     -15.0193      2.00000
      2     -14.0248      2.00000
      3     -13.7785      2.00000
      4     -12.4043      2.00000
      5      -7.2611      2.00000
      6      -6.8375      2.00000
      7      -6.1951      2.00000
      8      -5.2523      2.00000
      9      -4.4693      2.00000
     10      -4.4028      2.00000
     11      -4.1692      2.00000
     12      -3.8580      2.00000
     13      -3.4956      2.00000
     14      -2.5950      2.00000
     15      -2.5482      2.00000
     16      -2.3028      2.00000
     17      -2.1672      2.00000
     18      -1.4439      2.00000
     19       0.0973      0.00000
     20       0.1479      0.00000
     21       0.9424      0.00000
     22       1.0749      0.00000
     23       1.6481      0.00000
     24       1.6700      0.00000

 k-point     3 :       0.0000    0.2500    0.0000
  band No.  band energies     occupation 
      1     -14.8728      2.00000
      2     -13.9164      2.00000
      3     -13.9145      2.00000
      4     -12.7393      2.00000
      5      -6.7671      2.00000
      6      -6.6694      2.00000
      7      -5.9548      2.00000
      8      -5.2621      2.00000
      9      -4.7391      2.00000
     10      -4.3780      2.00000
     11      -4.1124      2.00000
     12      -3.8471      2.00000
     13      -3.4794      2.00000
     14      -2.8020      2.00000
     15      -2.6573      2.00000
     16      -2.3922      2.00000
     17      -2.3078      2.00000
     18      -1.5420      2.00000
     19      -0.0241      0.00000
     20       0.1904      0.00000
     21       0.7495      0.00000
     22       0.9929      0.00000
     23       1.0910      0.00000
     24       1.5770      0.00000

 k-point     4 :       0.0000    0.3750    0.0000
  band No.  band energies     occupation 
      1     -14.6494      2.00000
      2     -14.1250      2.00000
      3     -13.7331      2.00000
      4     -13.1265      2.00000
      5      -6.4292      2.00000
      6      -6.3215      2.00000
      7      -5.5986      2.00000
      8      -5.1736      2.00000
      9      -5.1069      2.00000
     10      -4.2503      2.00000
     11      -4.0804      2.00000
     12      -4.0700      2.00000
     13      -3.4114      2.00000
     14      -3.0679      2.00000
     15      -2.7257      2.00000
     16      -2.5001      2.00000
     17      -2.3411      2.00000
     18      -1.7810      2.00000
     19      -0.1489      0.00000
     20       0.2049      0.00000
     21       0.3735      0.00000
     22       0.9130      0.00000
     23       0.9239      0.00000
     24       1.3579      0.00000

 k-point     5 :       0.0000    0.5000    0.0000
  band No.  band energies     occupation 
      1     -14.3842      2.00000
      2     -14.3842      2.00000
      3     -13.4695      2.00000
      4     -13.4695      2.00000
      5      -6.2258      2.00000
      6      -6.2258      2.00000
      7      -5.4198      2.00000
      8      -5.4198      2.00000
      9      -4.6008      2.00000
     10      -4.6008      2.00000
     11      -4.1310      2.00000
     12      -4.1310      2.00000
     13      -3.2780      2.00000
     14      -3.2779      2.00000
     15      -2.6680      2.00000
     16      -2.6680      2.00000
     17      -2.1018      2.00000
     18      -2.1018      2.00000
     19      -0.1154      0.00000
     20      -0.1154      0.00000
     21       0.6380      0.00000
     22       0.6381      0.00000
     23       1.0985      0.00000
     24       1.0986      0.00000

 k-point     6 :       0.0000    0.6250    0.0000
  band No.  band energies     occupation 
      1     -14.6494      2.00000
      2     -14.1250      2.00000
      3     -13.7331      2.00000
      4     -13.1265      2.00000
      5      -6.4292      2.00000
      6      -6.3215      2.00000
      7      -5.5986      2.00000
      8      -5.1736      2.00000
      9      -5.1069      2.00000
     10      -4.2503      2.00000
     11      -4.0804      2.00000
     12      -4.0700      2.00000
     13      -3.4114      2.00000
     14      -3.0679      2.00000
     15      -2.7257      2.00000
     16      -2.5001      2.00000
     17      -2.3411      2.00000
     18      -1.7810      2.00000
     19      -0.1489      0.00000
     20       0.2049      0.00000
     21       0.3735      0.00000
     22       0.9130      0.00000
     23       0.9239      0.00000
     24       1.3580      0.00000

 k-point     7 :       0.0000    0.7500    0.0000
  band No.  band energies     occupation 
      1     -14.8728      2.00000
      2     -13.9164      2.00000
      3     -13.9145      2.00000
      4     -12.7393      2.00000
      5      -6.7671      2.00000
      6      -6.6694      2.00000
      7      -5.9548      2.00000
      8      -5.2621      2.00000
      9      -4.7391      2.00000
     10      -4.3780      2.00000
     11      -4.1124      2.00000
     12      -3.8471      2.00000
     13      -3.4794      2.00000
     14      -2.8020      2.00000
     15      -2.6573      2.00000
     16      -2.3922      2.00000
     17      -2.3078      2.00000
     18      -1.5420      2.00000
     19      -0.0241      0.00000
     20       0.1904      0.00000
     21       0.7495      0.00000
     22       0.9928      0.00000
     23       1.0910      0.00000
     24       1.5783      0.00000

 k-point     8 :       0.0000    0.8750    0.0000
  band No.  band energies     occupation 
      1     -15.0193      2.00000
      2     -14.0248      2.00000
      3     -13.7785      2.00000
      4     -12.4043      2.00000
      5      -7.2611      2.00000
      6      -6.8375      2.00000
      7      -6.1951      2.00000
      8      -5.2523      2.00000
      9      -4.4693      2.00000
     10      -4.4028      2.00000
     11      -4.1692      2.00000
     12      -3.8580      2.00000
     13      -3.4956      2.00000
     14      -2.5950      2.00000
     15      -2.5482      2.00000
     16      -2.3028      2.00000
     17      -2.1672      2.00000
     18      -1.4439      2.00000
     19       0.0973      0.00000
     20       0.1479      0.00000
     21       0.9424      0.00000
     22       1.0752      0.00000
     23       1.6586      0.00000
     24       1.6764      0.00000

 k-point     9 :       0.0526    0.0000    0.0000
  band No.  band energies     occupation 
      1     -15.0427      2.00000
      2     -14.0414      2.00000
      3     -13.7238      2.00000
      4     -12.2476      2.00000
      5      -7.4355      2.00000
      6      -6.8648      2.00000
      7      -6.2642      2.00000
      8      -5.2544      2.00000
      9      -4.5245      2.00000
     10      -4.3090      2.00000
     11      -4.2037      2.00000
     12      -3.8793      2.00000
     13      -3.4876      2.00000
     14      -2.5719      2.00000
     15      -2.5498      2.00000
     16      -2.5370      2.00000
     17      -1.9586      2.00000
     18      -1.4336      2.00000
     19       0.0447      0.00000
     20       0.2959      0.00000
     21       0.9924      0.00000
     22       1.0453      0.00000
     23       1.6610      0.00000
     24       1.8657      0.00000

 k-point    10 :       0.0526    0.1250    0.0000
  band No.  band energies     occupation 
      1     -14.9925      2.00000
      2     -14.0054      2.00000
      3     -13.7701      2.00000
      4     -12.3853      2.00000
      5      -7.2298      2.00000
      6      -6.8064      2.00000
      7      -6.1890      2.00000
      8      -5.2482      2.00000
      9      -4.5035      2.00000
     10      -4.4689      2.00000
     11      -4.1676      2.00000
     12      -3.8376      2.00000
     13      -3.4752      2.00000
     14      -2.6307      2.00000
     15      -2.6150      2.00000
     16      -2.5767      2.00000
     17      -2.0173      2.00000
     18      -1.4553      2.00000
     19       0.0500      0.00000
     20       0.2111      0.00000
     21       0.9125      0.00000
     22       1.0770      0.00000
     23       1.5271      0.00000
     24       1.6558      0.00000

 k-point    11 :       0.0526    0.2500    0.0000
  band No.  band energies     occupation 
      1     -14.8476      2.00000
      2     -13.9039      2.00000
      3     -13.8968      2.00000
      4     -12.7184      2.00000
      5      -6.7447      2.00000
      6      -6.6404      2.00000
      7      -5.9453      2.00000
      8      -5.2569      2.00000
      9      -4.7791      2.00000
     10      -4.4393      2.00000
     11      -4.1303      2.00000
     12      -3.8363      2.00000
     13      -3.4302      2.00000
     14      -2.8580      2.00000
     15      -2.6949      2.00000
     16      -2.6584      2.00000
     17      -2.1347      2.00000
     18      -1.5535      2.00000
     19      -0.0548      0.00000
     20       0.2031      0.00000
     21       0.7391      0.00000
     22       0.8629      0.00000
     23       1.1214      0.00000
     24       1.5323      0.00000

 k-point    12 :       0.0526    0.3750    0.0000
  band No.  band energies     occupation 
      1     -14.6269      2.00000
      2     -14.1109      2.00000
      3     -13.7130      2.00000
      4     -13.1048      2.00000
      5      -6.4033      2.00000
      6      -6.3064      2.00000
      7      -5.5863      2.00000
      8      -5.1744      2.00000
      9      -5.1295      2.00000
     10      -4.3321      2.00000
     11      -4.1673      2.00000
     12      -4.0176      2.00000
     13      -3.3423      2.00000
     14      -3.1061      2.00000
     15      -2.7408      2.00000
     16      -2.7386      2.00000
     17      -2.1891      2.00000
     18      -1.7731      2.00000
     19      -0.1757      0.00000
     20       0.1778      0.00000
     21       0.3458      0.00000
     22       0.8309      0.00000
     23       0.9129      0.00000
     24       1.2976      0.00000

 k-point    13 :       0.0526    0.5000    0.0000
  band No.  band energies     occupation 
      1     -14.3657      2.00000
      2     -14.3657      2.00000
      3     -13.4485      2.00000
      4     -13.4484      2.00000
      5      -6.2045      2.00000
      6      -6.2045      2.00000
      7      -5.4273      2.00000
      8      -5.4272      2.00000
      9      -4.6022      2.00000
     10      -4.6022      2.00000
     11      -4.2034      2.00000
     12      -4.2034      2.00000
     13      -3.2377      2.00000
     14      -3.2376      2.00000
     15      -2.7683      2.00000
     16      -2.7682      2.00000
     17      -2.0464      2.00000
     18      -2.0464      2.00000
     19      -0.1380      0.00000
     20      -0.1380      0.00000
     21       0.5841      0.00000
     22       0.5842      0.00000
     23       1.0437      0.00000
     24       1.0437      0.00000

 k-point    14 :       0.0526    0.6250    0.0000
  band No.  band energies     occupation 
      1     -14.6269      2.00000
      2     -14.1109      2.00000
      3     -13.7130      2.00000
      4     -13.1048      2.00000
      5      -6.4033      2.00000
      6      -6.3064      2.00000
      7      -5.5863      2.00000
      8      -5.1744      2.00000
      9      -5.1295      2.00000
     10      -4.3321      2.00000
     11      -4.1673      2.00000
     12      -4.0176      2.00000
     13      -3.3423      2.00000
     14      -3.1061      2.00000
     15      -2.7408      2.00000
     16      -2.7386      2.00000
     17      -2.1891      2.00000
     18      -1.7731      2.00000
     19      -0.1757      0.00000
     20       0.1778      0.00000
     21       0.3458      0.00000
     22       0.8309      0.00000
     23       0.9129      0.00000
     24       1.2976      0.00000

 k-point    15 :       0.0526    0.7500    0.0000
  band No.  band energies     occupation 
      1     -14.8476      2.00000
      2     -13.9039      2.00000
      3     -13.8968      2.00000
      4     -12.7184      2.00000
      5      -6.7447      2.00000
      6      -6.6404      2.00000
      7      -5.9453      2.00000
      8      -5.2569      2.00000
      9      -4.7791      2.00000
     10      -4.4393      2.00000
     11      -4.1303      2.00000
     12      -3.8363      2.00000
     13      -3.4302      2.00000
     14      -2.8580      2.00000
     15      -2.6949      2.00000
     16      -2.6584      2.00000
     17      -2.1347      2.00000
     18      -1.5535      2.00000
     19      -0.0548      0.00000
     20       0.2031      0.00000
     21       0.7391      0.00000
     22       0.8629      0.00000
     23       1.1215      0.00000
     24       1.5377      0.00000

 k-point    16 :       0.0526    0.8750    0.0000
  band No.  band energies     occupation 
      1     -14.9925      2.00000
      2     -14.0054      2.00000
      3     -13.7701      2.00000
      4     -12.3853      2.00000
      5      -7.2298      2.00000
      6      -6.8064      2.00000
      7      -6.1890      2.00000
      8      -5.2482      2.00000
      9      -4.5035      2.00000
     10      -4.4689      2.00000
     11      -4.1676      2.00000
     12      -3.8376      2.00000
     13      -3.4752      2.00000
     14      -2.6307      2.00000
     15      -2.6150      2.00000
     16      -2.5767      2.00000
     17      -2.0173      2.00000
     18      -1.4553      2.00000
     19       0.0500      0.00000
     20       0.2111      0.00000
     21       0.9125      0.00000
     22       1.0770      0.00000
     23       1.5270      0.00000
     24       1.6567      0.00000

 k-point    17 :       0.1053    0.0000    0.0000
  band No.  band energies     occupation 
      1     -14.9624      2.00000
      2     -13.9833      2.00000
      3     -13.7022      2.00000
      4     -12.1962      2.00000
      5      -7.3335      2.00000
      6      -6.7717      2.00000
      7      -6.2538      2.00000
      8      -5.2489      2.00000
      9      -4.5749      2.00000
     10      -4.5315      2.00000
     11      -4.1705      2.00000
     12      -3.8231      2.00000
     13      -3.4769      2.00000
     14      -3.1080      2.00000
     15      -2.6759      2.00000
     16      -2.6017      2.00000
     17      -1.8801      2.00000
     18      -1.4691      2.00000
     19      -0.0186      0.00000
     20       0.4237      0.00000
     21       0.8842      0.00000
     22       1.0689      0.00000
     23       1.3894      0.00000
     24       1.6242      0.00000

 k-point    18 :       0.1053    0.1250    0.0000
  band No.  band energies     occupation 
      1     -14.9137      2.00000
      2     -13.9471      2.00000
      3     -13.7464      2.00000
      4     -12.3302      2.00000
      5      -7.1388      2.00000
      6      -6.7159      2.00000
      7      -6.1780      2.00000
      8      -5.2366      2.00000
      9      -4.6451      2.00000
     10      -4.5797      2.00000
     11      -4.1425      2.00000
     12      -3.8279      2.00000
     13      -3.4398      2.00000
     14      -3.1228      2.00000
     15      -2.7318      2.00000
     16      -2.6487      2.00000
     17      -1.9415      2.00000
     18      -1.5047      2.00000
     19      -0.0129      0.00000
     20       0.3130      0.00000
     21       0.8234      0.00000
     22       1.0784      0.00000
     23       1.1516      0.00000
     24       1.5486      0.00000

 k-point    19 :       0.1053    0.2500    0.0000
  band No.  band energies     occupation 
      1     -14.7736      2.00000
      2     -13.8738      2.00000
      3     -13.8378      2.00000
      4     -12.6570      2.00000
      5      -6.6832      2.00000
      6      -6.5576      2.00000
      7      -5.9280      2.00000
      8      -5.2405      2.00000
      9      -4.8989      2.00000
     10      -4.5667      2.00000
     11      -4.1499      2.00000
     12      -3.8554      2.00000
     13      -3.3460      2.00000
     14      -3.1354      2.00000
     15      -2.9678      2.00000
     16      -2.6909      2.00000
     17      -2.0455      2.00000
     18      -1.6096      2.00000
     19      -0.1155      0.00000
     20       0.2367      0.00000
     21       0.5601      0.00000
     22       0.7881      0.00000
     23       1.0521      0.00000
     24       1.3822      0.00000

 k-point    20 :       0.1053    0.3750    0.0000
  band No.  band energies     occupation 
      1     -14.5615      2.00000
      2     -14.0704      2.00000
      3     -13.6523      2.00000
      4     -13.0404      2.00000
      5      -6.3319      2.00000
      6      -6.2720      2.00000
      7      -5.5532      2.00000
      8      -5.2002      2.00000
      9      -5.1895      2.00000
     10      -4.4898      2.00000
     11      -4.2589      2.00000
     12      -4.0462      2.00000
     13      -3.2193      2.00000
     14      -3.1780      2.00000
     15      -3.1058      2.00000
     16      -2.7812      2.00000
     17      -2.0741      2.00000
     18      -1.7818      2.00000
     19      -0.2468      0.00000
     20       0.0815      0.00000
     21       0.3026      0.00000
     22       0.7564      0.00000
     23       0.7925      0.00000
     24       1.1562      0.00000

 k-point    21 :       0.1053    0.5000    0.0000
  band No.  band energies     occupation 
      1     -14.3123      2.00000
      2     -14.3123      2.00000
      3     -13.3852      2.00000
      4     -13.3852      2.00000
      5      -6.1523      2.00000
      6      -6.1522      2.00000
      7      -5.4481      2.00000
      8      -5.4481      2.00000
      9      -4.6299      2.00000
     10      -4.6299      2.00000
     11      -4.3548      2.00000
     12      -4.3548      2.00000
     13      -3.1859      2.00000
     14      -3.1859      2.00000
     15      -2.9590      2.00000
     16      -2.9590      2.00000
     17      -1.9705      2.00000
     18      -1.9705      2.00000
     19      -0.2069      0.00000
     20      -0.2069      0.00000
     21       0.4717      0.00000
     22       0.4718      0.00000
     23       0.9332      0.00000
     24       0.9332      0.00000

 k-point    22 :       0.1053    0.6250    0.0000
  band No.  band energies     occupation 
      1     -14.5615      2.00000
      2     -14.0704      2.00000
      3     -13.6523      2.00000
      4     -13.0404      2.00000
      5      -6.3319      2.00000
      6      -6.2720      2.00000
      7      -5.5532      2.00000
      8      -5.2002      2.00000
      9      -5.1895      2.00000
     10      -4.4898      2.00000
     11      -4.2589      2.00000
     12      -4.0462      2.00000
     13      -3.2193      2.00000
     14      -3.1780      2.00000
     15      -3.1058      2.00000
     16      -2.7812      2.00000
     17      -2.0741      2.00000
     18      -1.7818      2.00000
     19      -0.2468      0.00000
     20       0.0815      0.00000
     21       0.3026      0.00000
     22       0.7564      0.00000
     23       0.7925      0.00000
     24       1.1563      0.00000

 k-point    23 :       0.1053    0.7500    0.0000
  band No.  band energies     occupation 
      1     -14.7736      2.00000
      2     -13.8738      2.00000
      3     -13.8378      2.00000
      4     -12.6570      2.00000
      5      -6.6832      2.00000
      6      -6.5576      2.00000
      7      -5.9280      2.00000
      8      -5.2405      2.00000
      9      -4.8989      2.00000
     10      -4.5667      2.00000
     11      -4.1499      2.00000
     12      -3.8554      2.00000
     13      -3.3460      2.00000
     14      -3.1354      2.00000
     15      -2.9678      2.00000
     16      -2.6909      2.00000
     17      -2.0455      2.00000
     18      -1.6096      2.00000
     19      -0.1155      0.00000
     20       0.2367      0.00000
     21       0.5601      0.00000
     22       0.7881      0.00000
     23       1.0521      0.00000
     24       1.3822      0.00000

 k-point    24 :       0.1053    0.8750    0.0000
  band No.  band energies     occupation 
      1     -14.9137      2.00000
      2     -13.9471      2.00000
      3     -13.7464      2.00000
      4     -12.3302      2.00000
      5      -7.1388      2.00000
      6      -6.7159      2.00000
      7      -6.1780      2.00000
      8      -5.2366      2.00000
      9      -4.6451      2.00000
     10      -4.5797      2.00000
     11      -4.1425      2.00000
     12      -3.8279      2.00000
     13      -3.4398      2.00000
     14      -3.1228      2.00000
     15      -2.7318      2.00000
     16      -2.6487      2.00000
     17      -1.9415      2.00000
     18      -1.5047      2.00000
     19      -0.0129      0.00000
     20       0.3130      0.00000
     21       0.8234      0.00000
     22       1.0786      0.00000
     23       1.1517      0.00000
     24       1.5517      0.00000

 k-point    25 :       0.1579    0.0000    0.0000
  band No.  band energies     occupation 
      1     -14.8341      2.00000
      2     -13.8857      2.00000
      3     -13.6705      2.00000
      4     -12.1177      2.00000
      5      -7.1698      2.00000
      6      -6.6253      2.00000
      7      -6.2529      2.00000
      8      -5.2447      2.00000
      9      -4.7886      2.00000
     10      -4.6175      2.00000
     11      -4.1515      2.00000
     12      -3.8284      2.00000
     13      -3.7779      2.00000
     14      -3.4288      2.00000
     15      -2.8850      2.00000
     16      -2.6636      2.00000
     17      -1.8691      2.00000
     18      -1.5553      2.00000
     19      -0.1176      0.00000
     20       0.5655      0.00000
     21       0.7468      0.00000
     22       0.8109      0.00000
     23       1.1138      0.00000
     24       1.3189      0.00000

 k-point    26 :       0.1579    0.1250    0.0000
  band No.  band energies     occupation 
      1     -14.7881      2.00000
      2     -13.8492      2.00000
      3     -13.7113      2.00000
      4     -12.2451      2.00000
      5      -6.9970      2.00000
      6      -6.5754      2.00000
      7      -6.1815      2.00000
      8      -5.2163      2.00000
      9      -4.8770      2.00000
     10      -4.6489      2.00000
     11      -4.1140      2.00000
     12      -3.8896      2.00000
     13      -3.7686      2.00000
     14      -3.3625      2.00000
     15      -2.9023      2.00000
     16      -2.7123      2.00000
     17      -1.9380      2.00000
     18      -1.6149      2.00000
     19      -0.0901      0.00000
     20       0.4248      0.00000
     21       0.5578      0.00000
     22       0.8910      0.00000
     23       1.0373      0.00000
     24       1.3060      0.00000

 k-point    27 :       0.1579    0.2500    0.0000
  band No.  band energies     occupation 
      1     -14.6566      2.00000
[...]
     15      -3.3747      2.00000
     16      -3.2011      2.00000
     17      -1.9811      2.00000
     18      -1.9059      2.00000
     19      -0.0614      0.00000
     20      -0.0367      0.00000
     21       0.2939      0.00000
     22       0.4559      0.00000
     23       1.4000      0.00000
     24       1.4668      0.00000

 k-point    76 :       0.4737    0.3750    0.0000
  band No.  band energies     occupation 
      1     -13.7482      2.00000
      2     -13.7101      2.00000
      3     -12.3252      2.00000
      4     -12.2156      2.00000
      5      -7.3890      2.00000
      6      -7.2968      2.00000
      7      -6.2594      2.00000
      8      -6.2168      2.00000
      9      -5.2501      2.00000
     10      -5.2472      2.00000
     11      -4.5684      2.00000
     12      -4.5324      2.00000
     13      -3.4677      2.00000
     14      -3.4672      2.00000
     15      -2.8078      2.00000
     16      -2.5827      2.00000
     17      -2.0198      2.00000
     18      -1.9203      2.00000
     19       0.0226      0.00000
     20       0.0511      0.00000
     21       0.2363      0.00000
     22       0.3487      0.00000
     23       1.6591      0.00000
     24       1.7026      0.00000

 k-point    77 :       0.4737    0.5000    0.0000
  band No.  band energies     occupation 
      1     -13.7280      2.00000
      2     -13.7280      2.00000
      3     -12.2602      2.00000
      4     -12.2602      2.00000
      5      -7.4421      2.00000
      6      -7.4421      2.00000
      7      -6.2635      2.00000
      8      -6.2635      2.00000
      9      -5.2539      2.00000
     10      -5.2539      2.00000
     11      -4.5267      2.00000
     12      -4.5267      2.00000
     13      -3.4813      2.00000
     14      -3.4813      2.00000
     15      -2.2880      2.00000
     16      -2.2879      2.00000
     17      -2.1142      2.00000
     18      -2.1142      2.00000
     19       0.0702      0.00000
     20       0.0703      0.00000
     21       0.2374      0.00000
     22       0.2375      0.00000
     23       1.6323      0.00000
     24       1.6327      0.00000

 k-point    78 :       0.4737    0.6250    0.0000
  band No.  band energies     occupation 
      1     -13.7482      2.00000
      2     -13.7101      2.00000
      3     -12.3252      2.00000
      4     -12.2156      2.00000
      5      -7.3890      2.00000
      6      -7.2968      2.00000
      7      -6.2594      2.00000
      8      -6.2168      2.00000
      9      -5.2501      2.00000
     10      -5.2472      2.00000
     11      -4.5684      2.00000
     12      -4.5324      2.00000
     13      -3.4677      2.00000
     14      -3.4672      2.00000
     15      -2.8078      2.00000
     16      -2.5827      2.00000
     17      -2.0198      2.00000
     18      -1.9203      2.00000
     19       0.0226      0.00000
     20       0.0511      0.00000
     21       0.2363      0.00000
     22       0.3487      0.00000
     23       1.6617      0.00000
     24       1.6982      0.00000

 k-point    79 :       0.4737    0.7500    0.0000
  band No.  band energies     occupation 
      1     -13.7670      2.00000
      2     -13.6965      2.00000
      3     -12.3933      2.00000
      4     -12.1958      2.00000
      5      -7.1499      2.00000
      6      -6.9967      2.00000
      7      -6.2212      2.00000
      8      -6.1228      2.00000
      9      -5.2326      2.00000
     10      -5.2261      2.00000
     11      -4.6333      2.00000
     12      -4.6112      2.00000
     13      -3.5682      2.00000
     14      -3.4058      2.00000
     15      -3.3747      2.00000
     16      -3.2011      2.00000
     17      -1.9811      2.00000
     18      -1.9059      2.00000
     19      -0.0614      0.00000
     20      -0.0367      0.00000
     21       0.2939      0.00000
     22       0.4559      0.00000
     23       1.3992      0.00000
     24       1.4650      0.00000

 k-point    80 :       0.4737    0.8750    0.0000
  band No.  band energies     occupation 
      1     -13.7807      2.00000
      2     -13.6882      2.00000
      3     -12.4438      2.00000
      4     -12.1922      2.00000
      5      -6.8135      2.00000
      6      -6.6542      2.00000
      7      -6.1887      2.00000
      8      -6.0191      2.00000
      9      -5.1745      2.00000
     10      -5.1690      2.00000
     11      -4.7072      2.00000
     12      -4.7071      2.00000
     13      -4.2448      2.00000
     14      -3.9027      2.00000
     15      -3.3239      2.00000
     16      -3.2230      2.00000
     17      -2.0437      2.00000
     18      -1.9776      2.00000
     19      -0.1501      0.00000
     20      -0.1439      0.00000
     21       0.3298      0.00000
     22       0.4757      0.00000
     23       1.1736      0.00000
     24       1.1831      0.00000


--------------------------------------------------------------------------------------------------------


 soft charge-density along one line, spin component           1
         0         1         2         3         4         5         6         7         8         9
 total charge-density along one line
 
 pseudopotential strength for first ion, spin component:           1
 -9.508   0.000  -0.000   0.001  -0.000  -9.699   0.000  -0.000
  0.000  -9.513   0.000   0.000   0.001   0.000  -9.703   0.000
 -0.000   0.000  -9.508   0.000  -0.001  -0.000   0.000  -9.699
  0.001   0.000   0.000  -9.512   0.000   0.001   0.000   0.000
 -0.000   0.001  -0.001   0.000  -9.508  -0.000   0.001  -0.000
 -9.699   0.000  -0.000   0.001  -0.000  -9.879   0.000  -0.000
  0.000  -9.703   0.000   0.000   0.001   0.000  -9.883   0.000
 -0.000   0.000  -9.699   0.000  -0.000  -0.000   0.000  -9.879
  0.001   0.000   0.000  -9.702   0.000   0.001   0.000   0.000
 -0.000   0.001  -0.000   0.000  -9.699  -0.000   0.001  -0.000
 -0.000   0.000   0.000  -0.000  -0.000  -0.000   0.000   0.000
 -0.000   0.000   0.001  -0.000  -0.001  -0.000   0.000   0.001
  0.000  -0.029  -0.000  -0.000   0.003   0.000  -0.029  -0.000
 -0.000   0.000  -0.030   0.000   0.000  -0.000   0.000  -0.030
  0.003  -0.000  -0.000  -0.029   0.000   0.003  -0.000  -0.000
  0.000  -0.036  -0.000  -0.000   0.004   0.000  -0.036  -0.000
 -0.000   0.000  -0.037   0.000   0.000  -0.000   0.000  -0.038
  0.004  -0.000  -0.000  -0.036   0.000   0.004  -0.000  -0.000
 total augmentation occupancy for first ion, spin component:           1
  1.000   0.000   0.000   0.000   0.000   0.000   0.000   0.000   0.000   0.000   0.000   0.000   0.000   0.000   0.000   0.000
  0.000   1.000   0.000   0.000   0.000   0.000   0.000   0.000   0.000   0.000   0.000   0.000   0.000   0.000   0.000   0.000
  0.000   0.000   1.000   0.000   0.000   0.000   0.000   0.000   0.000   0.000   0.000   0.000   0.000   0.000   0.000   0.000
  0.000   0.000   0.000   1.000   0.000   0.000   0.000   0.000   0.000   0.000   0.000   0.000   0.000   0.000   0.000   0.000
  0.000   0.000   0.000   0.000   1.000   0.000   0.000   0.000   0.000   0.000   0.000   0.000   0.000   0.000   0.000   0.000
  0.000   0.000   0.000   0.000   0.000   0.000   0.000   0.000   0.000   0.000   0.000   0.000   0.000   0.000   0.000   0.000
  0.000   0.000   0.000   0.000   0.000   0.000   0.000   0.000   0.000   0.000   0.000   0.000   0.000   0.000   0.000   0.000
  0.000   0.000   0.000   0.000   0.000   0.000   0.000   0.000   0.000   0.000   0.000   0.000   0.000   0.000   0.000   0.000
  0.000   0.000   0.000   0.000   0.000   0.000   0.000   0.000   0.000   0.000   0.000   0.000   0.000   0.000   0.000   0.000
  0.000   0.000   0.000   0.000   0.000   0.000   0.000   0.000   0.000   0.000   0.000   0.000   0.000   0.000   0.000   0.000
  0.000   0.000   0.000   0.000   0.000   0.000   0.000   0.000   0.000   0.000   1.000   0.000   0.000   0.000   0.000   0.000
  0.000   0.000   0.000   0.000   0.000   0.000   0.000   0.000   0.000   0.000   0.000   0.000   0.000   0.000   0.000   0.000
  0.000   0.000   0.000   0.000   0.000   0.000   0.000   0.000   0.000   0.000   0.000   0.000   0.000   0.000   0.000   0.000
  0.000   0.000   0.000   0.000   0.000   0.000   0.000   0.000   0.000   0.000   0.000   0.000   0.000   0.000   0.000   0.000
  0.000   0.000   0.000   0.000   0.000   0.000   0.000   0.000   0.000   0.000   0.000   0.000   0.000   0.000   0.000   0.000
  0.000   0.000   0.000   0.000   0.000   0.000   0.000   0.000   0.000   0.000   0.000   0.000   0.000   0.000   0.000   0.000
  0.000   0.000   0.000   0.000   0.000   0.000   0.000   0.000   0.000   0.000   0.000   0.000   0.000   0.000   0.000   0.000
  0.000   0.000   0.000   0.000   0.000   0.000   0.000   0.000   0.000   0.000   0.000   0.000   0.000   0.000   0.000   0.000


------------------------ aborting loop because EDIFF is reached ----------------------------------------


    CHARGE:  cpu time    0.0327: real time    0.0327
    FORLOC:  cpu time    0.0003: real time    0.0003
    FORNL :  cpu time    0.0487: real time    0.0487
    STRESS:  cpu time    0.2412: real time    0.2413
    FORCOR:  cpu time    0.0143: real time    0.0143
    FORHAR:  cpu time    0.0025: real time    0.0025
    OFIELD:  cpu time    0.0000: real time    0.0000

  FORCE on cell =-STRESS in cart. coord.  units (eV):
  Direction    XX          YY          ZZ          XY          YZ          ZX
  --------------------------------------------------------------------------------------
  Alpha Z    26.02620    26.02620    26.02620
  Ewald    5241.62181  5240.85915 -6314.95655     0.00000     0.16137     0.00000
  Hartree  5449.94616  5449.66479 -5388.32053    -0.00000     0.06403     0.00000
  E(xc)    -145.36684  -145.34838  -147.15660     0.00000     0.00118    -0.00000
  Local  -11247.54312-11246.51016 11134.89962    -0.00000    -0.23297    -0.00000
  n-local   323.72027   323.78015   338.80273     0.00001     0.01319    -0.00000
  augment   -67.60331   -67.62947   -71.24534    -0.00000    -0.00435     0.00000
  Kinetic   419.16037   418.82127   421.94071     0.00000    -0.00276     0.00000
  Fock        0.00000     0.00000     0.00000     0.00000     0.00000     0.00000
  -------------------------------------------------------------------------------------
  Total      -0.03845    -0.33645    -0.00975     0.00000    -0.00032     0.00000
  in kB      -0.15477    -1.35419    -0.03926     0.00002    -0.00129     0.00000
  external pressure =       -0.52 kB  Pullay stress =        0.00 kB


 VOLUME and BASIS-vectors are now :
 -----------------------------------------------------------------------------
  energy-cutoff  :      600.00
  volume of cell :      398.06
      direct lattice vectors                 reciprocal lattice vectors
     3.363599539  0.000000000  0.000000000     0.297300552  0.000000000  0.000000000
     0.000000000  5.843403604  0.000000000     0.000000000  0.171133139  0.000000000
     0.000000000  0.000000000 20.252588272     0.000000000  0.000000000  0.049376405

  length of vectors
     3.363599539  5.843403604 20.252588272     0.297300552  0.171133139  0.049376405


 FORCES acting on ions
    electron-ion (+dipol)            ewald-force                    non-local-force                 convergence-correction
 -----------------------------------------------------------------------------------------------
   0.135E-05 0.260E+00 -.402E+01   0.625E-07 -.259E+00 0.637E+01   0.117E-06 -.147E-02 -.233E+01   -.223E-05 0.544E-03 -.230E-01
   0.269E-05 0.261E+00 -.402E+01   -.214E-06 -.259E+00 0.637E+01   0.245E-07 -.143E-02 -.233E+01   -.254E-05 -.312E-03 -.217E-01
   0.184E-04 -.173E+00 -.465E+03   0.387E-06 0.170E+00 0.470E+03   -.121E-04 0.375E-02 -.558E+01   -.649E-05 -.502E-03 -.382E-02
   0.142E-04 -.176E+00 -.465E+03   0.519E-08 0.170E+00 0.470E+03   -.741E-05 0.545E-02 -.558E+01   -.521E-05 0.313E-03 -.477E-02
   -.332E-06 -.908E-01 0.472E+03   -.285E-06 0.891E-01 -.477E+03   0.741E-06 0.832E-03 0.460E+01   -.105E-06 0.960E-03 -.135E-01
   0.171E-05 -.890E-01 0.472E+03   0.445E-07 0.894E-01 -.477E+03   0.289E-06 0.711E-03 0.460E+01   -.105E-05 -.878E-03 -.127E-01
 -----------------------------------------------------------------------------------------------
   0.380E-04 -.745E-02 0.669E+01   0.971E-14 -.222E-15 0.000E+00   -.183E-04 0.786E-02 -.661E+01   -.176E-04 0.124E-03 -.795E-01
 
 
 POSITION                                       TOTAL-FORCE (eV/Angst)
 -----------------------------------------------------------------------------------
      1.68180      0.97311     10.26876        -0.000001     -0.000032     -0.001406
      3.36360      3.89481     10.26876        -0.000000      0.000034     -0.001522
      1.68180      4.86995     11.74005        -0.000000     -0.000083     -0.000954
      3.36360      1.94825     11.74005         0.000001     -0.000034     -0.000904
      1.68180      4.86985      8.37007        -0.000000     -0.000004      0.002427
      3.36360      1.94815      8.37007         0.000001      0.000119      0.002360
 -----------------------------------------------------------------------------------
    total drift:                                0.000002      0.000533      0.000852


--------------------------------------------------------------------------------------------------------



  FREE ENERGIE OF THE ION-ELECTRON SYSTEM (eV)
  ---------------------------------------------------
  free  energy   TOTEN  =       -39.42424071 eV

  energy  without entropy=      -39.42424071  energy(sigma->0) =      -39.42424071
 


--------------------------------------------------------------------------------------------------------


    POTLOK:  cpu time    0.0148: real time    0.0148

 Berry-Phase calculation of electronic polarization

   IGPAR = 2   NPPSTR =    8


k-mesh defined as follows:

IGPAR =    2
NKPTS =   80  NSTR =   10  NPPSTR =    8
 

Average Det|M_k|=  (   0.37682   0.65473 )
 
K-point string #    1 weight=  0.05263158
  0.000000  0.000000  0.000000
  0.000000  0.125000  0.000000
  0.000000  0.250000  0.000000
  0.000000  0.375000  0.000000
  0.000000  0.500000  0.000000
  0.000000  0.625000  0.000000
  0.000000  0.750000  0.000000
  0.000000  0.875000  0.000000
                     Det|M_k|=  (   0.99913   0.04162 )
              Im ln[Det|M_k|]=     -0.00663 electrons
Im ln[Det|M_k|/<Det|M_k|>_av]=      1.00693
 
K-point string #    2 weight=  0.10526316
  0.052632  0.000000  0.000000
  0.052632  0.125000  0.000000
  0.052632  0.250000  0.000000
  0.052632  0.375000  0.000000
  0.052632  0.500000  0.000000
  0.052632  0.625000  0.000000
  0.052632  0.750000  0.000000
  0.052632  0.875000  0.000000
                     Det|M_k|=  (   0.99389   0.11036 )
              Im ln[Det|M_k|]=     -0.01760 electrons
Im ln[Det|M_k|/<Det|M_k|>_av]=      0.93798
 
K-point string #    3 weight=  0.10526316
  0.105263  0.000000  0.000000
  0.105263  0.125000  0.000000
  0.105263  0.250000  0.000000
  0.105263  0.375000  0.000000
  0.105263  0.500000  0.000000
  0.105263  0.625000  0.000000
  0.105263  0.750000  0.000000
  0.105263  0.875000  0.000000
                     Det|M_k|=  (   0.95630   0.29240 )
              Im ln[Det|M_k|]=     -0.04723 electrons
Im ln[Det|M_k|/<Det|M_k|>_av]=      0.75183
 
K-point string #    4 weight=  0.10526316
  0.157895  0.000000  0.000000
  0.157895  0.125000  0.000000
  0.157895  0.250000  0.000000
  0.157895  0.375000  0.000000
  0.157895  0.500000  0.000000
  0.157895  0.625000  0.000000
  0.157895  0.750000  0.000000
  0.157895  0.875000  0.000000
                     Det|M_k|=  (   0.85620   0.51665 )
              Im ln[Det|M_k|]=     -0.08641 electrons
Im ln[Det|M_k|/<Det|M_k|>_av]=      0.50563
 
K-point string #    5 weight=  0.10526316
  0.210526  0.000000  0.000000
  0.210526  0.125000  0.000000
  0.210526  0.250000  0.000000
  0.210526  0.375000  0.000000
  0.210526  0.500000  0.000000
  0.210526  0.625000  0.000000
  0.210526  0.750000  0.000000
  0.210526  0.875000  0.000000
                     Det|M_k|=  (   0.69884   0.71527 )
              Im ln[Det|M_k|]=     -0.12685 electrons
Im ln[Det|M_k|/<Det|M_k|>_av]=      0.25155
 
K-point string #    6 weight=  0.10526316
  0.263158  0.000000  0.000000
  0.263158  0.125000  0.000000
  0.263158  0.250000  0.000000
  0.263158  0.375000  0.000000
  0.263158  0.500000  0.000000
  0.263158  0.625000  0.000000
  0.263158  0.750000  0.000000
  0.263158  0.875000  0.000000
                     Det|M_k|=  (   0.49172   0.87075 )
              Im ln[Det|M_k|]=     -0.16818 electrons
Im ln[Det|M_k|/<Det|M_k|>_av]=      0.00816
 
K-point string #    7 weight=  0.10526316
  0.315789  0.000000  0.000000
  0.315789  0.125000  0.000000
  0.315789  0.250000  0.000000
  0.315789  0.375000  0.000000
  0.315789  0.500000  0.000000
  0.315789  0.625000  0.000000
  0.315789  0.750000  0.000000
  0.315789  0.875000  0.000000
                     Det|M_k|=  (   0.21244   0.97717 )
              Im ln[Det|M_k|]=     -0.21593 electrons
Im ln[Det|M_k|/<Det|M_k|>_av]=      0.30816
 
K-point string #    8 weight=  0.10526316
  0.368421  0.000000  0.000000
  0.368421  0.125000  0.000000
  0.368421  0.250000  0.000000
  0.368421  0.375000  0.000000
  0.368421  0.500000  0.000000
  0.368421  0.625000  0.000000
  0.368421  0.750000  0.000000
  0.368421  0.875000  0.000000
                     Det|M_k|=  (  -0.13229   0.99121 )
              Im ln[Det|M_k|]=     -0.27112 electrons
Im ln[Det|M_k|/<Det|M_k|>_av]=      0.65491
 
K-point string #    9 weight=  0.10526316
  0.421053  0.000000  0.000000
  0.421053  0.125000  0.000000
  0.421053  0.250000  0.000000
  0.421053  0.375000  0.000000
  0.421053  0.500000  0.000000
  0.421053  0.625000  0.000000
  0.421053  0.750000  0.000000
  0.421053  0.875000  0.000000
                     Det|M_k|=  (  -0.42413   0.90560 )
              Im ln[Det|M_k|]=     -0.31971 electrons
Im ln[Det|M_k|/<Det|M_k|>_av]=      0.96023
 
K-point string #   10 weight=  0.10526316
  0.473684  0.000000  0.000000
  0.473684  0.125000  0.000000
  0.473684  0.250000  0.000000
  0.473684  0.375000  0.000000
  0.473684  0.500000  0.000000
  0.473684  0.625000  0.000000
  0.473684  0.750000  0.000000
  0.473684  0.875000  0.000000
                     Det|M_k|=  (  -0.57280   0.81970 )
              Im ln[Det|M_k|]=     -0.34707 electrons
Im ln[Det|M_k|/<Det|M_k|>_av]=      1.13214
 
 
                                e<r>_ev=(     0.00000    -0.00047    -0.00698 ) e*Angst
                                e<r>_bp=(     0.00000    -1.97250     0.00000 ) e*Angst
 
 Total electronic dipole moment: p[elc]=(     0.00000    -1.97296    -0.00698 ) e*Angst
 
            ionic dipole moment: p[ion]=(   -30.27239    -5.84338     0.00001 ) e*Angst
 


--------------------------------------------------------------------------------------------------------


     LOOP+:  cpu time   10.5043: real time   10.5755
    4ORBIT:  cpu time    0.0000: real time    0.0000

 total amount of memory used by VASP MPI-rank0    55685. kBytes
=======================================================================

   base      :      30000. kBytes
   nonl-proj :      19407. kBytes
   fftplans  :       1398. kBytes
   grid      :       2623. kBytes
   one-center:         15. kBytes
   wavefun   :       2242. kBytes
 
  
  
 General timing and accounting informations for this job:
 ========================================================
  
                  Total CPU time used (sec):       16.323
                            User time (sec):       13.923
                          System time (sec):        2.400
                         Elapsed time (sec):       16.502
  
                   Maximum memory used (kb):      156204.
                   Average memory used (kb):           0.
  
                          Minor page faults:        21824
                          Major page faults:          302
                 Voluntary context switches:         1049
