 vasp.5.4.4.18Apr17-6-g9f103f2a35 (build Oct 01 2024 10:11:53) complex          
  
 executed on              Shaheen date 2024.10.27  10:27:38
 running on  192 total cores
 distrk:  each k-point on  192 cores,    1 groups
 distr:  one band on NCORES_PER_BAND=  32 cores,    6 groups


--------------------------------------------------------------------------------------------------------


 INCAR:
 POTCAR:    PAW_PBE Se 06Sep2000                  
 POTCAR:    PAW_PBE Sn 08Apr2002                  

 ----------------------------------------------------------------------------- 
|                                                                             |
|           W    W    AA    RRRRR   N    N  II  N    N   GGGG   !!!           |
|           W    W   A  A   R    R  NN   N  II  NN   N  G    G  !!!           |
|           W    W  A    A  R    R  N N  N  II  N N  N  G       !!!           |
|           W WW W  AAAAAA  RRRRR   N  N N  II  N  N N  G  GGG   !            |
|           WW  WW  A    A  R   R   N   NN  II  N   NN  G    G                |
|           W    W  A    A  R    R  N    N  II  N    N   GGGG   !!!           |
|                                                                             |
|      For optimal performance we recommend to set                            |
|        NCORE= 4 - approx SQRT( number of cores)                             |
|      NCORE specifies how many cores store one orbital (NPAR=cpu/NCORE).     |
|      This setting can  greatly improve the performance of VASP for DFT.     |
|      The default,   NCORE=1            might be grossly inefficient         |
|      on modern multi-core architectures or massively parallel machines.     |
|      Do your own testing !!!!                                               |
|      Unfortunately you need to use the default for GW and RPA calculations. |
|      (for HF NCORE is supported but not extensively tested yet)             |
|                                                                             |
 ----------------------------------------------------------------------------- 

 POTCAR:    PAW_PBE Se 06Sep2000                  
   VRHFIN =Se: s2p4                                                             
   LEXCH  = PE                                                                  
   EATOM  =   257.1286 eV,   18.8984 Ry                                         
                                                                                
   TITEL  = PAW_PBE Se 06Sep2000                                                
   LULTRA =        F    use ultrasoft PP ?                                      
   IUNSCR =        1    unscreen: 0-lin 1-nonlin 2-no                           
   RPACOR =    1.900    partial core radius                                     
   POMASS =   78.960; ZVAL   =    6.000    mass and valenz                      
   RCORE  =    2.100    outmost cutoff radius                                   
   RWIGS  =    2.200; RWIGS  =    1.164    wigner-seitz radius (au A)           
   ENMAX  =  211.555; ENMIN  =  158.666 eV                                      
   ICORE  =        3    local potential                                         
   LCOR   =        T    correct aug charges                                     
   LPAW   =        T    paw PP                                                  
   EAUG   =  446.842                                                            
   DEXC   =    0.000                                                            
   RMAX   =    2.147    core radius for proj-oper                               
   RAUG   =    1.300    factor for augmentation sphere                          
   RDEP   =    2.177    radius for radial grids                                 
   RDEPT  =    1.928    core radius for aug-charge                              
                                                                                
   Atomic configuration                                                         
   10 entries                                                                   
     n  l   j            E        occ.                                          
     1  0  0.50    -12503.4787   2.0000                                         
     2  0  0.50     -1606.9547   2.0000                                         
     2  1  1.50     -1413.3140   6.0000                                         
     3  0  0.50      -213.4885   2.0000                                         
     3  1  1.50      -152.9538   6.0000                                         
     3  2  2.50       -53.1221  10.0000                                         
     4  0  0.50       -17.2865   2.0000                                         
     4  1  0.50        -6.5110   4.0000                                         
     4  2  2.50        -6.8029   0.0000                                         
     4  3  2.50        -6.8029   0.0000                                         
   Description                                                                  
     l       E           TYP  RCUT    TYP  RCUT                                 
     0    -17.2865377     23  2.100                                             
     0    -15.3094411     23  2.100                                             
     1     -6.5110275     23  2.100                                             
     1     -0.0695192     23  2.100                                             
     2     -6.8029130     23  2.100                                             
     3     -1.3605826      7  2.100                                             
  local pseudopotential read in
  partial core-charges read in
  partial kinetic energy density read in
  atomic valenz-charges read in
  non local Contribution for L=           0  read in
    real space projection operators read in
  non local Contribution for L=           0  read in
    real space projection operators read in
  non local Contribution for L=           1  read in
    real space projection operators read in
  non local Contribution for L=           1  read in
    real space projection operators read in
  non local Contribution for L=           2  read in
    real space projection operators read in
    PAW grid and wavefunctions read in
 
   number of l-projection  operators is LMAX  =           5
   number of lm-projection operators is LMMAX =          13
 
 POTCAR:    PAW_PBE Sn 08Apr2002                  
   VRHFIN =Sn: s2p2                                                             
   LEXCH  = PE                                                                  
   EATOM  =    94.0860 eV,    6.9151 Ry                                         
                                                                                
   TITEL  = PAW_PBE Sn 08Apr2002                                                
   LULTRA =        F    use ultrasoft PP ?                                      
   IUNSCR =        1    unscreen: 0-lin 1-nonlin 2-no                           
   RPACOR =    2.000    partial core radius                                     
   POMASS =  118.710; ZVAL   =    4.000    mass and valenz                      
   RCORE  =    3.000    outmost cutoff radius                                   
   RWIGS  =    2.960; RWIGS  =    1.566    wigner-seitz radius (au A)           
   ENMAX  =  103.236; ENMIN  =   77.427 eV                                      
   ICORE  =        3    local potential                                         
   LCOR   =        T    correct aug charges                                     
   LPAW   =        T    paw PP                                                  
   EAUG   =  263.585                                                            
   DEXC   =    0.000                                                            
   RMAX   =    3.078    core radius for proj-oper                               
   RAUG   =    1.300    factor for augmentation sphere                          
   RDEP   =    3.022    radius for radial grids                                 
   RDEPT  =    2.655    core radius for aug-charge                              
                                                                                
   Atomic configuration                                                         
   13 entries                                                                   
     n  l   j            E        occ.                                          
     1  0  0.50    -29007.2859   2.0000                                         
     2  0  0.50     -4378.8056   2.0000                                         
     2  1  1.50     -3930.4293   6.0000                                         
     3  0  0.50      -845.0264   2.0000                                         
     3  1  1.50      -698.5725   6.0000                                         
     3  2  2.50      -473.2839  10.0000                                         
     4  0  0.50      -133.9036   2.0000                                         
     4  1  1.50       -89.6752   6.0000                                         
     4  2  2.50       -25.8375  10.0000                                         
     5  0  0.50       -10.5484   2.0000                                         
     5  1  0.50        -3.6940   2.0000                                         
     5  2  1.50        -1.3606   0.0000                                         
     4  3  2.50        -4.0817   0.0000                                         
   Description                                                                  
     l       E           TYP  RCUT    TYP  RCUT                                 
     0    -10.5483727     23  3.000                                             
     0     27.2116520     23  3.000                                             
     1     -3.6939829     23  3.000                                             
     1      1.9821976     23  3.000                                             
     2     -1.3605826     23  3.000                                             
     3     -2.7211652     23  3.000                                             
  local pseudopotential read in
  partial core-charges read in
  partial kinetic energy density read in
  atomic valenz-charges read in
  non local Contribution for L=           0  read in
    real space projection operators read in
  non local Contribution for L=           0  read in
    real space projection operators read in
  non local Contribution for L=           1  read in
    real space projection operators read in
  non local Contribution for L=           1  read in
    real space projection operators read in
  non local Contribution for L=           2  read in
    real space projection operators read in
    PAW grid and wavefunctions read in
 
   number of l-projection  operators is LMAX  =           5
   number of lm-projection operators is LMMAX =          13
 
 WARNING: PSMAXN for non-local potential too small
          PSMAXN should be >   12.5490833729506       NTYP=           2
  PAW_PBE Se 06Sep2000                  :
 energy of atom  1       EATOM= -257.1286
 kinetic energy error for atom=    0.0006 (will be added to EATOM!!)
  PAW_PBE Sn 08Apr2002                  :
 energy of atom  2       EATOM=  -94.0860
 kinetic energy error for atom=    0.0000 (will be added to EATOM!!)
 
 
 POSCAR: Se Sn                                   
  positions in direct lattice
  velocities in cartesian coordinates
 exchange correlation table for  LEXCH =        8
   RHO(1)=    0.500       N(1)  =     2000
   RHO(2)=  100.500       N(2)  =     4000
 


--------------------------------------------------------------------------------------------------------


 ion  position               nearest neighbor table
   1  0.073  1.000  0.446-   3 2.72   4 2.92   4 2.92   4 3.22   4 3.22
   2  0.573  0.500  0.554-   4 2.72   3 2.92   3 2.92   3 3.22   3 3.22
   3  0.120  1.000  0.556-   1 2.72   2 2.92   2 2.92   2 3.22   2 3.22
   4  0.620  0.500  0.444-   2 2.72   1 2.92   1 2.92   1 3.22   1 3.22
 

IMPORTANT INFORMATION: All symmetrisations will be switched off!
NOSYMM: (Re-)initialisation of all symmetry stuff for point group C_1.

 
 
 KPOINTS: K-Spacing Value to Generate K-Mesh: 0.02

Automatic generation of k-mesh.
Space group operators:
 irot       det(A)        alpha          n_x          n_y          n_z        tau_x        tau_y        tau_z
    1     1.000000     0.000001     1.000000     0.000000     0.000000     0.000000     0.000000     0.000000
 
 Subroutine IBZKPT returns following result:
 ===========================================
 
 Found     41 irreducible k-points:
 
 Following reciprocal coordinates:
            Coordinates               Weight
  0.000000  0.000000  0.000000      1.000000
  0.111111 -0.000000  0.000000      2.000000
  0.222222 -0.000000  0.000000      2.000000
  0.333333 -0.000000  0.000000      2.000000
  0.444444 -0.000000  0.000000      2.000000
  0.000000  0.111111  0.000000      2.000000
  0.111111  0.111111  0.000000      2.000000
  0.222222  0.111111  0.000000      2.000000
  0.333333  0.111111  0.000000      2.000000
  0.444444  0.111111  0.000000      2.000000
 -0.444444  0.111111  0.000000      2.000000
 -0.333333  0.111111  0.000000      2.000000
 -0.222222  0.111111  0.000000      2.000000
 -0.111111  0.111111  0.000000      2.000000
  0.000000  0.222222  0.000000      2.000000
  0.111111  0.222222  0.000000      2.000000
  0.222222  0.222222  0.000000      2.000000
  0.333333  0.222222  0.000000      2.000000
  0.444444  0.222222  0.000000      2.000000
 -0.444444  0.222222  0.000000      2.000000
 -0.333333  0.222222  0.000000      2.000000
 -0.222222  0.222222  0.000000      2.000000
 -0.111111  0.222222  0.000000      2.000000
 -0.000000  0.333333  0.000000      2.000000
  0.111111  0.333333  0.000000      2.000000
  0.222222  0.333333  0.000000      2.000000
  0.333333  0.333333  0.000000      2.000000
  0.444444  0.333333  0.000000      2.000000
 -0.444444  0.333333  0.000000      2.000000
 -0.333333  0.333333  0.000000      2.000000
 -0.222222  0.333333  0.000000      2.000000
 -0.111111  0.333333  0.000000      2.000000
  0.000000  0.444444  0.000000      2.000000
  0.111111  0.444444  0.000000      2.000000
  0.222222  0.444444  0.000000      2.000000
  0.333333  0.444444  0.000000      2.000000
  0.444444  0.444444  0.000000      2.000000
 -0.444444  0.444444  0.000000      2.000000
 -0.333333  0.444444  0.000000      2.000000
 -0.222222  0.444444  0.000000      2.000000
 -0.111111  0.444444  0.000000      2.000000
 
 Following cartesian coordinates:
            Coordinates               Weight
  0.000000  0.000000  0.000000      1.000000
  0.025381 -0.000000  0.000000      2.000000
  0.050762 -0.000000  0.000000      2.000000
  0.076143 -0.000000  0.000000      2.000000
  0.101524 -0.000000  0.000000      2.000000
 -0.000000  0.025876  0.000000      2.000000
  0.025381  0.025876  0.000000      2.000000
  0.050762  0.025876  0.000000      2.000000
  0.076143  0.025876  0.000000      2.000000
  0.101524  0.025876  0.000000      2.000000
 -0.101524  0.025877  0.000000      2.000000
 -0.076143  0.025877  0.000000      2.000000
 -0.050762  0.025877  0.000000      2.000000
 -0.025381  0.025876  0.000000      2.000000
 -0.000000  0.051753  0.000000      2.000000
  0.025381  0.051753  0.000000      2.000000
  0.050762  0.051753  0.000000      2.000000
  0.076143  0.051753  0.000000      2.000000
  0.101524  0.051753  0.000000      2.000000
 -0.101524  0.051753  0.000000      2.000000
 -0.076143  0.051753  0.000000      2.000000
 -0.050762  0.051753  0.000000      2.000000
 -0.025381  0.051753  0.000000      2.000000
 -0.000000  0.077629  0.000000      2.000000
  0.025381  0.077629  0.000000      2.000000
  0.050762  0.077629  0.000000      2.000000
  0.076143  0.077629  0.000000      2.000000
  0.101524  0.077629  0.000000      2.000000
 -0.101524  0.077629  0.000000      2.000000
 -0.076143  0.077629  0.000000      2.000000
 -0.050762  0.077629  0.000000      2.000000
 -0.025381  0.077629  0.000000      2.000000
 -0.000000  0.103506  0.000000      2.000000
  0.025381  0.103506  0.000000      2.000000
  0.050762  0.103506  0.000000      2.000000
  0.076143  0.103506  0.000000      2.000000
  0.101524  0.103506  0.000000      2.000000
 -0.101524  0.103506  0.000000      2.000000
 -0.076143  0.103506  0.000000      2.000000
 -0.050762  0.103506  0.000000      2.000000
 -0.025381  0.103506  0.000000      2.000000
 
 
 Subroutine IBZKPT_HF returns following result:
 ==============================================
 
 Found     81 k-points in 1st BZ
 the following     81 k-points will be used (e.g. in the exchange kernel)
 Following reciprocal coordinates:   # in IRBZ
  0.000000  0.000000  0.000000    0.01234568   1 t-inv F
  0.111111 -0.000000  0.000000    0.01234568   2 t-inv F
  0.222222 -0.000000  0.000000    0.01234568   3 t-inv F
  0.333333 -0.000000  0.000000    0.01234568   4 t-inv F
  0.444444 -0.000000  0.000000    0.01234568   5 t-inv F
  0.000000  0.111111  0.000000    0.01234568   6 t-inv F
  0.111111  0.111111  0.000000    0.01234568   7 t-inv F
  0.222222  0.111111  0.000000    0.01234568   8 t-inv F
  0.333333  0.111111  0.000000    0.01234568   9 t-inv F
  0.444444  0.111111  0.000000    0.01234568  10 t-inv F
 -0.444444  0.111111  0.000000    0.01234568  11 t-inv F
 -0.333333  0.111111  0.000000    0.01234568  12 t-inv F
 -0.222222  0.111111  0.000000    0.01234568  13 t-inv F
 -0.111111  0.111111  0.000000    0.01234568  14 t-inv F
  0.000000  0.222222  0.000000    0.01234568  15 t-inv F
  0.111111  0.222222  0.000000    0.01234568  16 t-inv F
  0.222222  0.222222  0.000000    0.01234568  17 t-inv F
  0.333333  0.222222  0.000000    0.01234568  18 t-inv F
  0.444444  0.222222  0.000000    0.01234568  19 t-inv F
 -0.444444  0.222222  0.000000    0.01234568  20 t-inv F
 -0.333333  0.222222  0.000000    0.01234568  21 t-inv F
 -0.222222  0.222222  0.000000    0.01234568  22 t-inv F
 -0.111111  0.222222  0.000000    0.01234568  23 t-inv F
 -0.000000  0.333333  0.000000    0.01234568  24 t-inv F
  0.111111  0.333333  0.000000    0.01234568  25 t-inv F
  0.222222  0.333333  0.000000    0.01234568  26 t-inv F
  0.333333  0.333333  0.000000    0.01234568  27 t-inv F
  0.444444  0.333333  0.000000    0.01234568  28 t-inv F
 -0.444444  0.333333  0.000000    0.01234568  29 t-inv F
 -0.333333  0.333333  0.000000    0.01234568  30 t-inv F
 -0.222222  0.333333  0.000000    0.01234568  31 t-inv F
 -0.111111  0.333333  0.000000    0.01234568  32 t-inv F
  0.000000  0.444444  0.000000    0.01234568  33 t-inv F
  0.111111  0.444444  0.000000    0.01234568  34 t-inv F
  0.222222  0.444444  0.000000    0.01234568  35 t-inv F
  0.333333  0.444444  0.000000    0.01234568  36 t-inv F
  0.444444  0.444444  0.000000    0.01234568  37 t-inv F
 -0.444444  0.444444  0.000000    0.01234568  38 t-inv F
 -0.333333  0.444444  0.000000    0.01234568  39 t-inv F
 -0.222222  0.444444  0.000000    0.01234568  40 t-inv F
 -0.111111  0.444444  0.000000    0.01234568  41 t-inv F
 -0.111111  0.000000  0.000000    0.01234568   2 t-inv T
 -0.222222  0.000000  0.000000    0.01234568   3 t-inv T
 -0.333333  0.000000  0.000000    0.01234568   4 t-inv T
 -0.444444  0.000000  0.000000    0.01234568   5 t-inv T
 -0.000000 -0.111111  0.000000    0.01234568   6 t-inv T
 -0.111111 -0.111111  0.000000    0.01234568   7 t-inv T
 -0.222222 -0.111111  0.000000    0.01234568   8 t-inv T
 -0.333333 -0.111111  0.000000    0.01234568   9 t-inv T
 -0.444444 -0.111111  0.000000    0.01234568  10 t-inv T
  0.444444 -0.111111  0.000000    0.01234568  11 t-inv T
  0.333333 -0.111111  0.000000    0.01234568  12 t-inv T
  0.222222 -0.111111  0.000000    0.01234568  13 t-inv T
  0.111111 -0.111111  0.000000    0.01234568  14 t-inv T
 -0.000000 -0.222222  0.000000    0.01234568  15 t-inv T
 -0.111111 -0.222222  0.000000    0.01234568  16 t-inv T
 -0.222222 -0.222222  0.000000    0.01234568  17 t-inv T
 -0.333333 -0.222222  0.000000    0.01234568  18 t-inv T
 -0.444444 -0.222222  0.000000    0.01234568  19 t-inv T
  0.444444 -0.222222  0.000000    0.01234568  20 t-inv T
  0.333333 -0.222222  0.000000    0.01234568  21 t-inv T
  0.222222 -0.222222  0.000000    0.01234568  22 t-inv T
  0.111111 -0.222222  0.000000    0.01234568  23 t-inv T
  0.000000 -0.333333  0.000000    0.01234568  24 t-inv T
 -0.111111 -0.333333  0.000000    0.01234568  25 t-inv T
 -0.222222 -0.333333  0.000000    0.01234568  26 t-inv T
 -0.333333 -0.333333  0.000000    0.01234568  27 t-inv T
 -0.444444 -0.333333  0.000000    0.01234568  28 t-inv T
  0.444444 -0.333333  0.000000    0.01234568  29 t-inv T
  0.333333 -0.333333  0.000000    0.01234568  30 t-inv T
  0.222222 -0.333333  0.000000    0.01234568  31 t-inv T
  0.111111 -0.333333  0.000000    0.01234568  32 t-inv T
 -0.000000 -0.444444  0.000000    0.01234568  33 t-inv T
 -0.111111 -0.444444  0.000000    0.01234568  34 t-inv T
 -0.222222 -0.444444  0.000000    0.01234568  35 t-inv T
 -0.333333 -0.444444  0.000000    0.01234568  36 t-inv T
 -0.444444 -0.444444  0.000000    0.01234568  37 t-inv T
  0.444444 -0.444444  0.000000    0.01234568  38 t-inv T
  0.333333 -0.444444  0.000000    0.01234568  39 t-inv T
  0.222222 -0.444444  0.000000    0.01234568  40 t-inv T
  0.111111 -0.444444  0.000000    0.01234568  41 t-inv T


--------------------------------------------------------------------------------------------------------




 Dimension of arrays:
   k-points           NKPTS =     41   k-points in BZ     NKDIM =     41   number of bands    NBANDS=     18
   number of dos      NEDOS =    301   number of ions     NIONS =      4
   non local maximal  LDIM  =      5   non local SUM 2l+1 LMDIM =     13
   total plane-waves  NPLWV = 259200
   max r-space proj   IRMAX =      1   max aug-charges    IRDMAX=  53803
   dimension x,y,z NGX =    36 NGY =   36 NGZ =  200
   dimension x,y,z NGXF=    72 NGYF=   72 NGZF=  400
   support grid    NGXF=    72 NGYF=   72 NGZF=  400
   ions per type =               2   2
   NGX,Y,Z   is equivalent  to a cutoff of  13.67, 13.94, 13.43 a.u.
   NGXF,Y,Z  is equivalent  to a cutoff of  27.34, 27.88, 26.86 a.u.

 SYSTEM =  unknown system                          
 POSCAR =  Se Sn                                   

 Startparameter for this run:
   NWRITE =      2    write-flag & timer
   PREC   = accura    normal or accurate (medium, high low for compatibility)
   ISTART =      0    job   : 0-new  1-cont  2-samecut
   ICHARG =      2    charge: 1-file 2-atom 10-const
   ISPIN  =      1    spin polarized calculation?
   LNONCOLLINEAR =      F non collinear calculations
   LSORBIT =      F    spin-orbit coupling
   INIWAV =      1    electr: 0-lowe 1-rand  2-diag
   LASPH  =      F    aspherical Exc in radial PAW
   METAGGA=      F    non-selfconsistent MetaGGA calc.

 Electronic Relaxation 1
   ENCUT  =  600.0 eV  44.10 Ry    6.64 a.u.   8.74  8.58 49.45*2*pi/ulx,y,z
   ENINI  =  600.0     initial cutoff
   ENAUG  =  446.8 eV  augmentation charge cutoff
   NELM   =     60;   NELMIN=  2; NELMDL= -5     # of ELM steps 
   EDIFF  = 0.1E-07   stopping-criterion for ELM
   LREAL  =      F    real-space projection
   NLSPLINE    = F    spline interpolate recip. space projectors
   LCOMPAT=      F    compatible to vasp.4.4
   GGA_COMPAT  = T    GGA compatible to vasp.4.4-vasp.4.6
   LMAXPAW     = -100 max onsite density
   LMAXMIX     =    2 max onsite mixed and CHGCAR
   VOSKOWN=      0    Vosko Wilk Nusair interpolation
   ROPT   =    0.00000   0.00000
 Ionic relaxation
   EDIFFG = -.1E-02   stopping-criterion for IOM
   NSW    =      1    number of steps for IOM
   NBLOCK =      1;   KBLOCK =      1    inner block; outer block 
   IBRION =      7    ionic relax: 0-MD 1-quasi-New 2-CG
   NFREE  =      0    steps in history (QN), initial steepest desc. (CG)
   ISIF   =      2    stress and relaxation
   IWAVPR =     11    prediction:  0-non 1-charg 2-wave 3-comb
   ISYM   =      0    0-nonsym 1-usesym 2-fastsym
   LCORR  =      T    Harris-Foulkes like correction to forces

   POTIM  = 0.5000    time-step for ionic-motion
   TEIN   =    0.0    initial temperature
   TEBEG  =    0.0;   TEEND  =   0.0 temperature during run
   SMASS  =  -3.00    Nose mass-parameter (am)
   estimated Nose-frequenzy (Omega)   =  0.10E-29 period in steps =****** mass=  -0.438E-27a.u.
   SCALEE = 1.0000    scale energy and forces
   NPACO  =    256;   APACO  = 16.0  distance and # of slots for P.C.
   PSTRESS=    0.0 pullay stress

  Mass of Ions in am
   POMASS =  78.96118.71
  Ionic Valenz
   ZVAL   =   6.00  4.00
  Atomic Wigner-Seitz radii
   RWIGS  =  -1.00 -1.00
  virtual crystal weights 
   VCA    =   1.00  1.00
   NELECT =      20.0000    total number of electrons
   NUPDOWN=      -1.0000    fix difference up-down

 DOS related values:
   EMIN   =  10.00;   EMAX   =-10.00  energy-range for DOS
   EFERMI =   0.00
   ISMEAR =     0;   SIGMA  =   0.10  broadening in eV -4-tet -1-fermi 0-gaus

 Electronic relaxation 2 (details)
   IALGO  =     38    algorithm
   LDIAG  =      T    sub-space diagonalisation (order eigenvalues)
   LSUBROT=      F    optimize rotation matrix (better conditioning)
   TURBO    =      0    0=normal 1=particle mesh
   IRESTART =      0    0=no restart 2=restart with 2 vectors
   NREBOOT  =      0    no. of reboots
   NMIN     =      0    reboot dimension
   EREF     =   0.00    reference energy to select bands
   IMIX   =      4    mixing-type and parameters
     AMIX     =   0.40;   BMIX     =  1.00
     AMIX_MAG =   1.60;   BMIX_MAG =  1.00
     AMIN     =   0.10
     WC   =   100.;   INIMIX=   1;  MIXPRE=   1;  MAXMIX= -45

 Intra band minimization:
   WEIMIN = 0.0010     energy-eigenvalue tresh-hold
   EBREAK =  0.14E-09  absolut break condition
   DEPER  =   0.30     relativ break condition  

   TIME   =   0.40     timestep for ELM

  volume/ion in A,a.u.               =     116.35       785.17
  Fermi-wavevector in a.u.,A,eV,Ry     =   0.573425  1.083616  4.473813  0.328816
  Thomas-Fermi vector in A             =   1.614701
 
 Write flags
   LWAVE        =      T    write WAVECAR
   LDOWNSAMPLE  =      F    k-point downsampling of WAVECAR
   LCHARG       =      T    write CHGCAR
   LVTOT        =      F    write LOCPOT, total local potential
   LVHAR        =      F    write LOCPOT, Hartree potential only
   LELF         =      F    write electronic localiz. function (ELF)
   LORBIT       =      0    0 simple, 1 ext, 2 COOP (PROOUT), +10 PAW based schemes


 Dipole corrections
   LMONO  =      F    monopole corrections only (constant potential shift)
   LDIPOL =      T    correct potential (dipole corrections)
   IDIPOL =      3    1-x, 2-y, 3-z, 4-all directions 
   EPSILON=  1.0000000 bulk dielectric constant

 Exchange correlation treatment:
   GGA     =    PE    GGA type
   LEXCH   =     8    internal setting for exchange type
   VOSKOWN=      0    Vosko Wilk Nusair interpolation
   LHFCALC =     F    Hartree Fock is set to
   LHFONE  =     F    Hartree Fock one center treatment
   AEXX    =    0.0000 exact exchange contribution

 Linear response parameters
   LEPSILON=     T    determine dielectric tensor
   LRPA    =     F    only Hartree local field effects (RPA)
   LNABLA  =     F    use nabla operator in PAW spheres
   LVEL    =     F    velocity operator in full k-point grid
   LINTERFAST=   F  fast interpolation
   KINTER  =     0    interpolate to denser k-point grid
   CSHIFT  =0.1000    complex shift for real part using Kramers Kronig
   OMEGAMAX=  -1.0    maximum frequency
   DEG_THRESHOLD= 0.2000000E-02 threshold for treating states as degnerate
   RTIME   =   -0.100 relaxation time in fs
  (WPLASMAI=    0.000 imaginary part of plasma frequency in eV, 0.658/RTIME)
   DFIELD  = 0.0000000 0.0000000 0.0000000 field for delta impulse in time
 
 Orbital magnetization related:
   ORBITALMAG=     F  switch on orbital magnetization
   LCHIMAG   =     F  perturbation theory with respect to B field
   DQ        =  0.001000  dq finite difference perturbation B field
   LLRAUG    =     F  two centre corrections for induced B field



--------------------------------------------------------------------------------------------------------


 linear response
 charge density and potential will be updated during run
 non-spin polarized calculation
 Variant of blocked Davidson
 Davidson routine will perform the subspace rotation
 perform sub-space diagonalisation
    after iterative eigenvector-optimisation
 modified Broyden-mixing scheme, WC =      100.0
 initial mixing is a Kerker type mixing with AMIX =  0.4000 and BMIX =      1.0000
 Hartree-type preconditioning will be used
 using additional bands            8
 reciprocal scheme for non local part
 use partial core corrections
 calculate Harris-corrections to forces 
   (improved forces if not selfconsistent)
 use gradient corrections 
 use of overlap-Matrix (Vanderbilt PP)
 Gauss-broadening in eV      SIGMA  =   0.10


--------------------------------------------------------------------------------------------------------


  energy-cutoff  :      600.00
  volume of cell :      465.40
      direct lattice vectors                 reciprocal lattice vectors
     4.377713403  0.000006214  0.000000000     0.228429755 -0.000000323  0.000000000
     0.000006063  4.293910384  0.000000000    -0.000000331  0.232887953  0.000000000
     0.000000000  0.000000000 24.758526890     0.000000000  0.000000000  0.040390125

  length of vectors
     4.377713403  4.293910384 24.758526890     0.228429755  0.232887953  0.040390125


 
 k-points in units of 2pi/SCALE and weight: K-Spacing Value to Generate K-Mesh: 0.02
   0.00000000  0.00000000  0.00000000       0.012
   0.02538108 -0.00000004  0.00000000       0.025
   0.05076217 -0.00000007  0.00000000       0.025
   0.07614325 -0.00000011  0.00000000       0.025
   0.10152434 -0.00000014  0.00000000       0.025
  -0.00000004  0.02587644  0.00000000       0.025
   0.02538105  0.02587640  0.00000000       0.025
   0.05076213  0.02587637  0.00000000       0.025
   0.07614321  0.02587633  0.00000000       0.025
   0.10152430  0.02587630  0.00000000       0.025
  -0.10152437  0.02587658  0.00000000       0.025
  -0.07614329  0.02587655  0.00000000       0.025
  -0.05076220  0.02587651  0.00000000       0.025
  -0.02538112  0.02587648  0.00000000       0.025
  -0.00000007  0.05175288  0.00000000       0.025
   0.02538101  0.05175284  0.00000000       0.025
   0.05076209  0.05175281  0.00000000       0.025
   0.07614318  0.05175277  0.00000000       0.025
   0.10152426  0.05175274  0.00000000       0.025
  -0.10152441  0.05175302  0.00000000       0.025
  -0.07614333  0.05175299  0.00000000       0.025
  -0.05076224  0.05175295  0.00000000       0.025
  -0.02538116  0.05175291  0.00000000       0.025
  -0.00000011  0.07762932  0.00000000       0.025
   0.02538097  0.07762928  0.00000000       0.025
   0.05076206  0.07762925  0.00000000       0.025
   0.07614314  0.07762921  0.00000000       0.025
   0.10152423  0.07762917  0.00000000       0.025
  -0.10152445  0.07762946  0.00000000       0.025
  -0.07614336  0.07762943  0.00000000       0.025
  -0.05076228  0.07762939  0.00000000       0.025
  -0.02538119  0.07762935  0.00000000       0.025
  -0.00000015  0.10350576  0.00000000       0.025
   0.02538094  0.10350572  0.00000000       0.025
   0.05076202  0.10350569  0.00000000       0.025
   0.07614310  0.10350565  0.00000000       0.025
   0.10152419  0.10350561  0.00000000       0.025
  -0.10152448  0.10350590  0.00000000       0.025
  -0.07614340  0.10350586  0.00000000       0.025
  -0.05076231  0.10350583  0.00000000       0.025
  -0.02538123  0.10350579  0.00000000       0.025
 
 k-points in reciprocal lattice and weights: K-Spacing Value to Generate K-Mesh: 0.02
   0.00000000  0.00000000  0.00000000       0.012
   0.11111111 -0.00000000  0.00000000       0.025
   0.22222222 -0.00000000  0.00000000       0.025
   0.33333333 -0.00000000  0.00000000       0.025
   0.44444444 -0.00000000  0.00000000       0.025
   0.00000000  0.11111111  0.00000000       0.025
   0.11111111  0.11111111  0.00000000       0.025
   0.22222222  0.11111111  0.00000000       0.025
   0.33333333  0.11111111  0.00000000       0.025
   0.44444444  0.11111111  0.00000000       0.025
  -0.44444444  0.11111111  0.00000000       0.025
  -0.33333333  0.11111111  0.00000000       0.025
  -0.22222222  0.11111111  0.00000000       0.025
  -0.11111111  0.11111111  0.00000000       0.025
   0.00000000  0.22222222  0.00000000       0.025
   0.11111111  0.22222222  0.00000000       0.025
   0.22222222  0.22222222  0.00000000       0.025
   0.33333333  0.22222222  0.00000000       0.025
   0.44444444  0.22222222  0.00000000       0.025
  -0.44444444  0.22222222  0.00000000       0.025
  -0.33333333  0.22222222  0.00000000       0.025
  -0.22222222  0.22222222  0.00000000       0.025
  -0.11111111  0.22222222  0.00000000       0.025
  -0.00000000  0.33333333  0.00000000       0.025
   0.11111111  0.33333333  0.00000000       0.025
   0.22222222  0.33333333  0.00000000       0.025
   0.33333333  0.33333333  0.00000000       0.025
   0.44444444  0.33333333  0.00000000       0.025
  -0.44444444  0.33333333  0.00000000       0.025
  -0.33333333  0.33333333  0.00000000       0.025
  -0.22222222  0.33333333  0.00000000       0.025
  -0.11111111  0.33333333  0.00000000       0.025
   0.00000000  0.44444444  0.00000000       0.025
   0.11111111  0.44444444  0.00000000       0.025
   0.22222222  0.44444444  0.00000000       0.025
   0.33333333  0.44444444  0.00000000       0.025
   0.44444444  0.44444444  0.00000000       0.025
  -0.44444444  0.44444444  0.00000000       0.025
  -0.33333333  0.44444444  0.00000000       0.025
  -0.22222222  0.44444444  0.00000000       0.025
  -0.11111111  0.44444444  0.00000000       0.025
 
 position of ions in fractional coordinates (direct lattice) 
   0.07251480  0.99991649  0.44580745
   0.57255208  0.49990576  0.55419324
   0.11977271  0.99991495  0.55551035
   0.61979064  0.49991157  0.44449474
 
 position of ions in cartesian coordinates  (Angst):
   0.31745509  4.29355227 11.03753572
   2.50647196  2.14655411 13.72100826
   0.52433664  4.29354595 13.75361805
   2.71326884  2.14657935 11.00503500
 


--------------------------------------------------------------------------------------------------------


 k-point  1 :   0.0000 0.0000 0.0000  plane waves:   15591
 k-point  2 :   0.1111-0.0000 0.0000  plane waves:   15551
 k-point  3 :   0.2222-0.0000 0.0000  plane waves:   15529
 k-point  4 :   0.3333-0.0000 0.0000  plane waves:   15560
 k-point  5 :   0.4444-0.0000 0.0000  plane waves:   15594
 k-point  6 :   0.0000 0.1111 0.0000  plane waves:   15569
 k-point  7 :   0.1111 0.1111 0.0000  plane waves:   15556
 k-point  8 :   0.2222 0.1111 0.0000  plane waves:   15519
 k-point  9 :   0.3333 0.1111 0.0000  plane waves:   15562
 k-point 10 :   0.4444 0.1111 0.0000  plane waves:   15556
 k-point 11 :  -0.4444 0.1111 0.0000  plane waves:   15556
 k-point 12 :  -0.3333 0.1111 0.0000  plane waves:   15562
 k-point 13 :  -0.2222 0.1111 0.0000  plane waves:   15519
 k-point 14 :  -0.1111 0.1111 0.0000  plane waves:   15556
 k-point 15 :   0.0000 0.2222 0.0000  plane waves:   15561
 k-point 16 :   0.1111 0.2222 0.0000  plane waves:   15538
 k-point 17 :   0.2222 0.2222 0.0000  plane waves:   15543
 k-point 18 :   0.3333 0.2222 0.0000  plane waves:   15513
 k-point 19 :   0.4444 0.2222 0.0000  plane waves:   15526
 k-point 20 :  -0.4444 0.2222 0.0000  plane waves:   15526
 k-point 21 :  -0.3333 0.2222 0.0000  plane waves:   15513
 k-point 22 :  -0.2222 0.2222 0.0000  plane waves:   15543
 k-point 23 :  -0.1111 0.2222 0.0000  plane waves:   15538
 k-point 24 :  -0.0000 0.3333 0.0000  plane waves:   15525
 k-point 25 :   0.1111 0.3333 0.0000  plane waves:   15524
 k-point 26 :   0.2222 0.3333 0.0000  plane waves:   15523
 k-point 27 :   0.3333 0.3333 0.0000  plane waves:   15512
 k-point 28 :   0.4444 0.3333 0.0000  plane waves:   15519
 k-point 29 :  -0.4444 0.3333 0.0000  plane waves:   15519
 k-point 30 :  -0.3333 0.3333 0.0000  plane waves:   15512
 k-point 31 :  -0.2222 0.3333 0.0000  plane waves:   15523
 k-point 32 :  -0.1111 0.3333 0.0000  plane waves:   15524
 k-point 33 :   0.0000 0.4444 0.0000  plane waves:   15486
 k-point 34 :   0.1111 0.4444 0.0000  plane waves:   15516
 k-point 35 :   0.2222 0.4444 0.0000  plane waves:   15499
 k-point 36 :   0.3333 0.4444 0.0000  plane waves:   15493
 k-point 37 :   0.4444 0.4444 0.0000  plane waves:   15504
 k-point 38 :  -0.4444 0.4444 0.0000  plane waves:   15504
 k-point 39 :  -0.3333 0.4444 0.0000  plane waves:   15493
 k-point 40 :  -0.2222 0.4444 0.0000  plane waves:   15499
 k-point 41 :  -0.1111 0.4444 0.0000  plane waves:   15516

 maximum and minimum number of plane-waves per node :       511      448

 maximum number of plane-waves:     15594
 maximum index in each direction: 
   IXMAX=    9   IYMAX=    8   IZMAX=   49
   IXMIN=   -9   IYMIN=   -9   IZMIN=  -49


 parallel 3D FFT for wavefunctions:
    minimum data exchange during FFTs selected (reduces bandwidth)
 parallel 3D FFT for charge:
    minimum data exchange during FFTs selected (reduces bandwidth)


 total amount of memory used by VASP MPI-rank0    38806. kBytes
=======================================================================

   base      :      30000. kBytes
   nonl-proj :       4278. kBytes
   fftplans  :       1310. kBytes
   grid      :       2195. kBytes
   one-center:          8. kBytes
   wavefun   :       1015. kBytes
 
     INWAV:  cpu time    0.0000: real time    0.0000
 Broyden mixing: mesh for mixing (old mesh)
   NGX = 17   NGY = 17   NGZ = 99
  (NGX  = 72   NGY  = 72   NGZ  =400)
  gives a total of  28611 points

 initial charge density was supplied:
 charge density of overlapping atoms calculated
 number of electron      20.0000000 magnetization 
 keeping initial charge density in first step


--------------------------------------------------------------------------------------------------------


 Maximum index for augmentation-charges         1450 (set IRDMAX)


--------------------------------------------------------------------------------------------------------


 First call to EWALD:  gamma=   0.229
 Maximum number of real-space cells 4x 5x 1
 Maximum number of reciprocal cells 2x 2x 8

    FEWALD:  cpu time    0.0017: real time    0.0017


--------------------------------------- Iteration      1(   1)  ---------------------------------------


    POTLOK:  cpu time    0.0327: real time    0.0862
    SETDIJ:  cpu time    0.0091: real time    0.0091
     EDDAV:  cpu time    0.5156: real time    0.5313
       DOS:  cpu time    0.0011: real time    0.0011
    --------------------------------------------
      LOOP:  cpu time    0.5585: real time    0.6277

 eigenvalue-minimisations  :  1476
 total energy-change (2. order) : 0.1353896E+03  (-0.5909763E+03)
 number of electron      20.0000000 magnetization 
 augmentation part       20.0000000 magnetization 

 DIPCOR: dipole corrections for dipol
 direction  3 min pos     1,
 dipolmoment           0.000000      0.000000     -0.000000 electrons x Angstroem
 Tr[quadrupol]       -72.598084

 energy correction for charged system         0.000000 eV
 dipol+quadrupol energy correction           -0.000000 eV
 added-field ion interaction          0.000000 eV  (added to PSCEN)


 Free energy of the ion-electron system (eV)
  ---------------------------------------------------
  alpha Z        PSCENC =         7.68311006
  Ewald energy   TEWEN  =      1883.38858620
  -Hartree energ DENC   =     -2473.09863609
  -exchange      EXHF   =         0.00000000
  -V(xc)+E(xc)   XCENC  =      -238.58343000
  PAW double counting   =       799.43158084     -524.17639913
  entropy T*S    EENTRO =        -0.01901830
  eigenvalues    EBANDS =       -21.66408025
  atomic energy  EATOM  =       702.42789710
  Solvation  Ediel_sol  =         0.00000000
  ---------------------------------------------------
  free energy    TOTEN  =       135.38961044 eV

  energy without entropy =      135.40862874  energy(sigma->0) =      135.39911959


--------------------------------------------------------------------------------------------------------




--------------------------------------- Iteration      1(   2)  ---------------------------------------


     EDDAV:  cpu time    0.5888: real time    0.5897
       DOS:  cpu time    0.0007: real time    0.0007
    --------------------------------------------
      LOOP:  cpu time    0.5895: real time    0.5905

 eigenvalue-minimisations  :  2670
 total energy-change (2. order) :-0.1350641E+03  (-0.1290330E+03)
 number of electron      20.0000000 magnetization 
 augmentation part       20.0000000 magnetization 

 DIPCOR: dipole corrections for dipol
 direction  3 min pos     1,
 dipolmoment           0.000000      0.000000     -0.000000 electrons x Angstroem
 Tr[quadrupol]       -72.598084

 energy correction for charged system         0.000000 eV
 dipol+quadrupol energy correction           -0.000000 eV
 added-field ion interaction          0.000000 eV  (added to PSCEN)


 Free energy of the ion-electron system (eV)
  ---------------------------------------------------
  alpha Z        PSCENC =         7.68311006
  Ewald energy   TEWEN  =      1883.38858620
  -Hartree energ DENC   =     -2473.09863609
  -exchange      EXHF   =         0.00000000
  -V(xc)+E(xc)   XCENC  =      -238.58343000
  PAW double counting   =       799.43158084     -524.17639913
  entropy T*S    EENTRO =        -0.00293631
  eigenvalues    EBANDS =      -156.74429287
  atomic energy  EATOM  =       702.42789710
  Solvation  Ediel_sol  =         0.00000000
  ---------------------------------------------------
  free energy    TOTEN  =         0.32547981 eV

  energy without entropy =        0.32841612  energy(sigma->0) =        0.32694797


--------------------------------------------------------------------------------------------------------




--------------------------------------- Iteration      1(   3)  ---------------------------------------


     EDDAV:  cpu time    0.4594: real time    0.4600
       DOS:  cpu time    0.0005: real time    0.0005
    --------------------------------------------
      LOOP:  cpu time    0.4599: real time    0.4605

 eigenvalue-minimisations  :  1878
 total energy-change (2. order) :-0.1661193E+02  (-0.1634072E+02)
 number of electron      20.0000000 magnetization 
 augmentation part       20.0000000 magnetization 

 DIPCOR: dipole corrections for dipol
 direction  3 min pos     1,
 dipolmoment           0.000000      0.000000     -0.000000 electrons x Angstroem
 Tr[quadrupol]       -72.598084

 energy correction for charged system         0.000000 eV
 dipol+quadrupol energy correction           -0.000000 eV
 added-field ion interaction          0.000000 eV  (added to PSCEN)


 Free energy of the ion-electron system (eV)
  ---------------------------------------------------
  alpha Z        PSCENC =         7.68311006
  Ewald energy   TEWEN  =      1883.38858620
  -Hartree energ DENC   =     -2473.09863609
  -exchange      EXHF   =         0.00000000
  -V(xc)+E(xc)   XCENC  =      -238.58343000
  PAW double counting   =       799.43158084     -524.17639913
  entropy T*S    EENTRO =        -0.00000000
  eigenvalues    EBANDS =      -173.35916308
  atomic energy  EATOM  =       702.42789710
  Solvation  Ediel_sol  =         0.00000000
  ---------------------------------------------------
  free energy    TOTEN  =       -16.28645409 eV

  energy without entropy =      -16.28645409  energy(sigma->0) =      -16.28645409


--------------------------------------------------------------------------------------------------------




--------------------------------------- Iteration      1(   4)  ---------------------------------------


     EDDAV:  cpu time    0.4579: real time    0.4583
       DOS:  cpu time    0.0005: real time    0.0005
    --------------------------------------------
      LOOP:  cpu time    0.4584: real time    0.4588

 eigenvalue-minimisations  :  1884
 total energy-change (2. order) :-0.5032766E+00  (-0.5015348E+00)
 number of electron      20.0000000 magnetization 
 augmentation part       20.0000000 magnetization 

 DIPCOR: dipole corrections for dipol
 direction  3 min pos     1,
 dipolmoment           0.000000      0.000000     -0.000000 electrons x Angstroem
 Tr[quadrupol]       -72.598084

 energy correction for charged system         0.000000 eV
 dipol+quadrupol energy correction           -0.000000 eV
 added-field ion interaction          0.000000 eV  (added to PSCEN)


 Free energy of the ion-electron system (eV)
  ---------------------------------------------------
  alpha Z        PSCENC =         7.68311006
  Ewald energy   TEWEN  =      1883.38858620
  -Hartree energ DENC   =     -2473.09863609
  -exchange      EXHF   =         0.00000000
  -V(xc)+E(xc)   XCENC  =      -238.58343000
  PAW double counting   =       799.43158084     -524.17639913
  entropy T*S    EENTRO =        -0.00000000
  eigenvalues    EBANDS =      -173.86243965
  atomic energy  EATOM  =       702.42789710
  Solvation  Ediel_sol  =         0.00000000
  ---------------------------------------------------
  free energy    TOTEN  =       -16.78973066 eV

  energy without entropy =      -16.78973066  energy(sigma->0) =      -16.78973066


--------------------------------------------------------------------------------------------------------




--------------------------------------- Iteration      1(   5)  ---------------------------------------


     EDDAV:  cpu time    0.4677: real time    0.4684
       DOS:  cpu time    0.0005: real time    0.0005
    CHARGE:  cpu time    0.0134: real time    0.0134
    MIXING:  cpu time    0.0004: real time    0.0004
    --------------------------------------------
      LOOP:  cpu time    0.4820: real time    0.4828

 eigenvalue-minimisations  :  1914
 total energy-change (2. order) :-0.7742278E-02  (-0.7741275E-02)
 number of electron      20.0000000 magnetization 
 augmentation part       -4.5230172 magnetization 

 DIPCOR: dipole corrections for dipol
 direction  3 min pos     1,
 dipolmoment           0.000000      0.000000     -0.000000 electrons x Angstroem
 Tr[quadrupol]       -72.598084

 energy correction for charged system         0.000000 eV
 dipol+quadrupol energy correction           -0.000000 eV
 added-field ion interaction          0.000000 eV  (added to PSCEN)


 Broyden mixing:
  rms(total) = 0.45146E+00    rms(broyden)= 0.45146E+00
  rms(prec ) = 0.47857E+00
  weight for this iteration     100.00

 Free energy of the ion-electron system (eV)
  ---------------------------------------------------
  alpha Z        PSCENC =         7.68311006
  Ewald energy   TEWEN  =      1883.38858620
  -Hartree energ DENC   =     -2473.09863609
  -exchange      EXHF   =         0.00000000
  -V(xc)+E(xc)   XCENC  =      -238.58343000
  PAW double counting   =       799.43158084     -524.17639913
  entropy T*S    EENTRO =        -0.00000000
  eigenvalues    EBANDS =      -173.87018192
  atomic energy  EATOM  =       702.42789710
  Solvation  Ediel_sol  =         0.00000000
  ---------------------------------------------------
  free energy    TOTEN  =       -16.79747293 eV

  energy without entropy =      -16.79747293  energy(sigma->0) =      -16.79747293


--------------------------------------------------------------------------------------------------------




--------------------------------------- Iteration      1(   6)  ---------------------------------------


    POTLOK:  cpu time    0.0127: real time    0.0127
    SETDIJ:  cpu time    0.0024: real time    0.0024
     EDDAV:  cpu time    0.4545: real time    0.4549
       DOS:  cpu time    0.0005: real time    0.0005
    CHARGE:  cpu time    0.0130: real time    0.0130
    MIXING:  cpu time    0.0003: real time    0.0003
    --------------------------------------------
      LOOP:  cpu time    0.4835: real time    0.4839

 eigenvalue-minimisations  :  1830
 total energy-change (2. order) : 0.4906824E+00  (-0.9718457E-01)
 number of electron      20.0000000 magnetization 
 augmentation part       -4.4899762 magnetization 

 DIPCOR: dipole corrections for dipol
 direction  3 min pos     1,
 dipolmoment           0.000000      0.000000     -0.000036 electrons x Angstroem
 Tr[quadrupol]       -72.838243

 energy correction for charged system         0.000000 eV
 dipol+quadrupol energy correction           -0.000000 eV
 added-field ion interaction          0.000000 eV  (added to PSCEN)


 Broyden mixing:
  rms(total) = 0.27368E+00    rms(broyden)= 0.27368E+00
  rms(prec ) = 0.27955E+00
  weight for this iteration     100.00

 eigenvalues of (default mixing * dielectric matrix)
  average eigenvalue GAMMA=   1.7719
  1.7719

 Free energy of the ion-electron system (eV)
  ---------------------------------------------------
  alpha Z        PSCENC =         7.68311007
  Ewald energy   TEWEN  =      1883.38858620
  -Hartree energ DENC   =     -2481.21130862
  -exchange      EXHF   =         0.00000000
  -V(xc)+E(xc)   XCENC  =      -238.09863229
  PAW double counting   =       923.83859457     -648.76553935
  entropy T*S    EENTRO =        -0.00000000
  eigenvalues    EBANDS =      -165.56949824
  atomic energy  EATOM  =       702.42789710
  Solvation  Ediel_sol  =         0.00000000
  ---------------------------------------------------
  free energy    TOTEN  =       -16.30679056 eV

  energy without entropy =      -16.30679056  energy(sigma->0) =      -16.30679056


--------------------------------------------------------------------------------------------------------




--------------------------------------- Iteration      1(   7)  ---------------------------------------


    POTLOK:  cpu time    0.0125: real time    0.0125
    SETDIJ:  cpu time    0.0024: real time    0.0024
     EDDAV:  cpu time    0.4603: real time    0.4609
       DOS:  cpu time    0.0005: real time    0.0005
    CHARGE:  cpu time    0.0128: real time    0.0129
    MIXING:  cpu time    0.0004: real time    0.0004
    --------------------------------------------
      LOOP:  cpu time    0.4889: real time    0.4895

 eigenvalue-minimisations  :  1896
 total energy-change (2. order) : 0.2786370E-01  (-0.2470894E-01)
 number of electron      20.0000000 magnetization 
 augmentation part       -4.4821000 magnetization 

 DIPCOR: dipole corrections for dipol
 direction  3 min pos     1,
 dipolmoment           0.000000      0.000000     -0.000023 electrons x Angstroem
 Tr[quadrupol]       -73.117905

 energy correction for charged system         0.000000 eV
 dipol+quadrupol energy correction           -0.000000 eV
 added-field ion interaction          0.000000 eV  (added to PSCEN)


 Broyden mixing:
  rms(total) = 0.10729E+00    rms(broyden)= 0.10729E+00
  rms(prec ) = 0.11072E+00
  weight for this iteration     100.00

 eigenvalues of (default mixing * dielectric matrix)
  average eigenvalue GAMMA=   1.7593
  1.3117  2.2069

 Free energy of the ion-electron system (eV)
  ---------------------------------------------------
  alpha Z        PSCENC =         7.68311007
  Ewald energy   TEWEN  =      1883.38858620
  -Hartree energ DENC   =     -2486.39564674
  -exchange      EXHF   =         0.00000000
  -V(xc)+E(xc)   XCENC  =      -237.78162481
  PAW double counting   =      1064.16002012     -789.22447857
  entropy T*S    EENTRO =        -0.00000000
  eigenvalues    EBANDS =      -160.53679022
  atomic energy  EATOM  =       702.42789710
  Solvation  Ediel_sol  =         0.00000000
  ---------------------------------------------------
  free energy    TOTEN  =       -16.27892686 eV

  energy without entropy =      -16.27892686  energy(sigma->0) =      -16.27892686


--------------------------------------------------------------------------------------------------------




--------------------------------------- Iteration      1(   8)  ---------------------------------------


    POTLOK:  cpu time    0.0123: real time    0.0123
    SETDIJ:  cpu time    0.0024: real time    0.0024
     EDDAV:  cpu time    0.4774: real time    0.4778
       DOS:  cpu time    0.0006: real time    0.0006
    CHARGE:  cpu time    0.0127: real time    0.0127
    MIXING:  cpu time    0.0004: real time    0.0004
    --------------------------------------------
      LOOP:  cpu time    0.5057: real time    0.5062

 eigenvalue-minimisations  :  2028
 total energy-change (2. order) : 0.9669165E-02  (-0.2514999E-02)
 number of electron      20.0000000 magnetization 
 augmentation part       -4.4859971 magnetization 

 DIPCOR: dipole corrections for dipol
 direction  3 min pos     1,
 dipolmoment           0.000000      0.000000     -0.000032 electrons x Angstroem
 Tr[quadrupol]       -73.345971

 energy correction for charged system         0.000000 eV
 dipol+quadrupol energy correction           -0.000000 eV
 added-field ion interaction          0.000000 eV  (added to PSCEN)


 Broyden mixing:
  rms(total) = 0.18586E-01    rms(broyden)= 0.18586E-01
  rms(prec ) = 0.23652E-01
  weight for this iteration     100.00

 eigenvalues of (default mixing * dielectric matrix)
  average eigenvalue GAMMA=   1.6529
  2.4475  1.2556  1.2556

 Free energy of the ion-electron system (eV)
  ---------------------------------------------------
  alpha Z        PSCENC =         7.68311007
  Ewald energy   TEWEN  =      1883.38858620
  -Hartree energ DENC   =     -2488.48350369
  -exchange      EXHF   =         0.00000000
  -V(xc)+E(xc)   XCENC  =      -237.69078109
  PAW double counting   =      1134.98475903     -860.09143742
  entropy T*S    EENTRO =        -0.00000000
  eigenvalues    EBANDS =      -158.48788789
  atomic energy  EATOM  =       702.42789710
  Solvation  Ediel_sol  =         0.00000000
  ---------------------------------------------------
  free energy    TOTEN  =       -16.26925769 eV

  energy without entropy =      -16.26925769  energy(sigma->0) =      -16.26925769


--------------------------------------------------------------------------------------------------------




--------------------------------------- Iteration      1(   9)  ---------------------------------------


    POTLOK:  cpu time    0.0123: real time    0.0123
    SETDIJ:  cpu time    0.0024: real time    0.0024
     EDDAV:  cpu time    0.4923: real time    0.4929
       DOS:  cpu time    0.0005: real time    0.0005
    CHARGE:  cpu time    0.0127: real time    0.0127
    MIXING:  cpu time    0.0004: real time    0.0004
    --------------------------------------------
      LOOP:  cpu time    0.5206: real time    0.5212

 eigenvalue-minimisations  :  2130
 total energy-change (2. order) : 0.2928094E-02  (-0.3422034E-03)
 number of electron      20.0000000 magnetization 
 augmentation part       -4.4847744 magnetization 

 DIPCOR: dipole corrections for dipol
 direction  3 min pos     1,
 dipolmoment           0.000000      0.000000     -0.000029 electrons x Angstroem
 Tr[quadrupol]       -73.472856

 energy correction for charged system         0.000000 eV
 dipol+quadrupol energy correction           -0.000000 eV
 added-field ion interaction          0.000000 eV  (added to PSCEN)


 Broyden mixing:
  rms(total) = 0.93317E-02    rms(broyden)= 0.93317E-02
  rms(prec ) = 0.13758E-01
  weight for this iteration     100.00

 eigenvalues of (default mixing * dielectric matrix)
  average eigenvalue GAMMA=   1.7518
  2.3281  2.3281  1.1754  1.1754

 Free energy of the ion-electron system (eV)
  ---------------------------------------------------
  alpha Z        PSCENC =         7.68311007
  Ewald energy   TEWEN  =      1883.38858620
  -Hartree energ DENC   =     -2490.17887476
  -exchange      EXHF   =         0.00000000
  -V(xc)+E(xc)   XCENC  =      -237.63554852
  PAW double counting   =      1146.55181989     -871.66522616
  entropy T*S    EENTRO =        -0.00000000
  eigenvalues    EBANDS =      -156.83809342
  atomic energy  EATOM  =       702.42789710
  Solvation  Ediel_sol  =         0.00000000
  ---------------------------------------------------
  free energy    TOTEN  =       -16.26632960 eV

  energy without entropy =      -16.26632960  energy(sigma->0) =      -16.26632960


--------------------------------------------------------------------------------------------------------




--------------------------------------- Iteration      1(  10)  ---------------------------------------


    POTLOK:  cpu time    0.0124: real time    0.0124
    SETDIJ:  cpu time    0.0023: real time    0.0023
     EDDAV:  cpu time    0.4714: real time    0.4718
       DOS:  cpu time    0.0005: real time    0.0005
    CHARGE:  cpu time    0.0127: real time    0.0127
    MIXING:  cpu time    0.0004: real time    0.0004
    --------------------------------------------
      LOOP:  cpu time    0.4998: real time    0.5002

 eigenvalue-minimisations  :  1980
 total energy-change (2. order) : 0.1837210E-02  (-0.1302503E-03)
 number of electron      20.0000000 magnetization 
 augmentation part       -4.4830849 magnetization 

 DIPCOR: dipole corrections for dipol
 direction  3 min pos     1,
 dipolmoment           0.000000      0.000000     -0.000029 electrons x Angstroem
 Tr[quadrupol]       -73.627450

 energy correction for charged system         0.000000 eV
 dipol+quadrupol energy correction           -0.000000 eV
 added-field ion interaction          0.000000 eV  (added to PSCEN)


 Broyden mixing:
  rms(total) = 0.44382E-02    rms(broyden)= 0.44382E-02
  rms(prec ) = 0.77479E-02
  weight for this iteration     100.00

 eigenvalues of (default mixing * dielectric matrix)
  average eigenvalue GAMMA=   1.8407
  3.2722  2.5658  1.2155  1.2155  0.9343

 Free energy of the ion-electron system (eV)
  ---------------------------------------------------
  alpha Z        PSCENC =         7.68311007
  Ewald energy   TEWEN  =      1883.38858620
  -Hartree energ DENC   =     -2491.86985772
  -exchange      EXHF   =         0.00000000
  -V(xc)+E(xc)   XCENC  =      -237.61116252
  PAW double counting   =      1139.98766242     -865.09400073
  entropy T*S    EENTRO =        -0.00000000
  eigenvalues    EBANDS =      -155.17672721
  atomic energy  EATOM  =       702.42789710
  Solvation  Ediel_sol  =         0.00000000
  ---------------------------------------------------
  free energy    TOTEN  =       -16.26449239 eV

  energy without entropy =      -16.26449239  energy(sigma->0) =      -16.26449239


--------------------------------------------------------------------------------------------------------




--------------------------------------- Iteration      1(  11)  ---------------------------------------


    POTLOK:  cpu time    0.0126: real time    0.0127
    SETDIJ:  cpu time    0.0020: real time    0.0188
     EDDAV:  cpu time    0.4756: real time    0.4762
       DOS:  cpu time    0.0006: real time    0.0006
    CHARGE:  cpu time    0.0126: real time    0.0126
    MIXING:  cpu time    0.0004: real time    0.0004
    --------------------------------------------
      LOOP:  cpu time    0.5038: real time    0.5212

 eigenvalue-minimisations  :  2010
 total energy-change (2. order) : 0.8141365E-03  (-0.7647417E-04)
 number of electron      20.0000000 magnetization 
 augmentation part       -4.4819371 magnetization 

 DIPCOR: dipole corrections for dipol
 direction  3 min pos     1,
 dipolmoment           0.000000      0.000000     -0.000030 electrons x Angstroem
 Tr[quadrupol]       -73.764735

 energy correction for charged system         0.000000 eV
 dipol+quadrupol energy correction           -0.000000 eV
 added-field ion interaction          0.000000 eV  (added to PSCEN)


 Broyden mixing:
  rms(total) = 0.29199E-02    rms(broyden)= 0.29199E-02
  rms(prec ) = 0.45736E-02
  weight for this iteration     100.00

 eigenvalues of (default mixing * dielectric matrix)
  average eigenvalue GAMMA=   1.9425
  2.9585  2.9585  2.4252  1.1743  1.1743  0.9642

 Free energy of the ion-electron system (eV)
  ---------------------------------------------------
  alpha Z        PSCENC =         7.68311007
  Ewald energy   TEWEN  =      1883.38858620
  -Hartree energ DENC   =     -2493.38986842
  -exchange      EXHF   =         0.00000000
  -V(xc)+E(xc)   XCENC  =      -237.58384326
  PAW double counting   =      1141.30496306     -866.41063489
  entropy T*S    EENTRO =        -0.00000000
  eigenvalues    EBANDS =      -153.68388812
  atomic energy  EATOM  =       702.42789710
  Solvation  Ediel_sol  =         0.00000000
  ---------------------------------------------------
  free energy    TOTEN  =       -16.26367825 eV

  energy without entropy =      -16.26367825  energy(sigma->0) =      -16.26367825


--------------------------------------------------------------------------------------------------------




--------------------------------------- Iteration      1(  12)  ---------------------------------------


    POTLOK:  cpu time    0.0125: real time    0.0125
    SETDIJ:  cpu time    0.0024: real time    0.0024
     EDDAV:  cpu time    0.4081: real time    0.4085
       DOS:  cpu time    0.0005: real time    0.0005
    CHARGE:  cpu time    0.0127: real time    0.0127
    MIXING:  cpu time    0.0004: real time    0.0004
    --------------------------------------------
      LOOP:  cpu time    0.4368: real time    0.4372

 eigenvalue-minimisations  :  1512
 total energy-change (2. order) :-0.8066785E-03  (-0.2334972E-04)
 number of electron      20.0000000 magnetization 
 augmentation part       -4.4811926 magnetization 

 DIPCOR: dipole corrections for dipol
 direction  3 min pos     1,
 dipolmoment           0.000000      0.000000     -0.000030 electrons x Angstroem
 Tr[quadrupol]       -73.854553

 energy correction for charged system         0.000000 eV
 dipol+quadrupol energy correction           -0.000000 eV
 added-field ion interaction          0.000000 eV  (added to PSCEN)


 Broyden mixing:
  rms(total) = 0.13038E-02    rms(broyden)= 0.13038E-02
  rms(prec ) = 0.20719E-02
  weight for this iteration     100.00

 eigenvalues of (default mixing * dielectric matrix)
  average eigenvalue GAMMA=   2.0450
  4.4973  3.0030  2.5076  1.1957  1.1957  0.9820  0.9335

 Free energy of the ion-electron system (eV)
  ---------------------------------------------------
  alpha Z        PSCENC =         7.68311007
  Ewald energy   TEWEN  =      1883.38858620
  -Hartree energ DENC   =     -2494.39104547
  -exchange      EXHF   =         0.00000000
  -V(xc)+E(xc)   XCENC  =      -237.57436354
  PAW double counting   =      1141.30318491     -866.40975572
  entropy T*S    EENTRO =        -0.00000000
  eigenvalues    EBANDS =      -152.69209847
  atomic energy  EATOM  =       702.42789710
  Solvation  Ediel_sol  =         0.00000000
  ---------------------------------------------------
  free energy    TOTEN  =       -16.26448493 eV

  energy without entropy =      -16.26448493  energy(sigma->0) =      -16.26448493


--------------------------------------------------------------------------------------------------------




--------------------------------------- Iteration      1(  13)  ---------------------------------------


    POTLOK:  cpu time    0.0124: real time    0.0124
    SETDIJ:  cpu time    0.0024: real time    0.0024
     EDDAV:  cpu time    0.4333: real time    0.4338
       DOS:  cpu time    0.0005: real time    0.0005
    CHARGE:  cpu time    0.0128: real time    0.0128
    MIXING:  cpu time    0.0004: real time    0.0004
    --------------------------------------------
      LOOP:  cpu time    0.4618: real time    0.4622

 eigenvalue-minimisations  :  1692
 total energy-change (2. order) :-0.2417354E-03  (-0.4583047E-05)
 number of electron      20.0000000 magnetization 
 augmentation part       -4.4809928 magnetization 

 DIPCOR: dipole corrections for dipol
 direction  3 min pos     1,
 dipolmoment           0.000000      0.000000     -0.000030 electrons x Angstroem
 Tr[quadrupol]       -73.886802

 energy correction for charged system         0.000000 eV
 dipol+quadrupol energy correction           -0.000000 eV
 added-field ion interaction          0.000000 eV  (added to PSCEN)


 Broyden mixing:
  rms(total) = 0.10913E-02    rms(broyden)= 0.10913E-02
  rms(prec ) = 0.14996E-02
  weight for this iteration     100.00

 eigenvalues of (default mixing * dielectric matrix)
  average eigenvalue GAMMA=   2.3285
  5.9411  3.4484  2.6481  2.1746  1.1523  1.1523  0.9647  1.1464

 Free energy of the ion-electron system (eV)
  ---------------------------------------------------
  alpha Z        PSCENC =         7.68311007
  Ewald energy   TEWEN  =      1883.38858620
  -Hartree energ DENC   =     -2494.75557277
  -exchange      EXHF   =         0.00000000
  -V(xc)+E(xc)   XCENC  =      -237.57167280
  PAW double counting   =      1140.99003115     -866.09608986
  entropy T*S    EENTRO =        -0.00000000
  eigenvalues    EBANDS =      -152.33101577
  atomic energy  EATOM  =       702.42789710
  Solvation  Ediel_sol  =         0.00000000
  ---------------------------------------------------
  free energy    TOTEN  =       -16.26472666 eV

  energy without entropy =      -16.26472666  energy(sigma->0) =      -16.26472666


--------------------------------------------------------------------------------------------------------




--------------------------------------- Iteration      1(  14)  ---------------------------------------


    POTLOK:  cpu time    0.0126: real time    0.0126
    SETDIJ:  cpu time    0.0023: real time    0.0023
     EDDAV:  cpu time    0.4331: real time    0.4335
       DOS:  cpu time    0.0005: real time    0.0005
    CHARGE:  cpu time    0.0127: real time    0.0127
    MIXING:  cpu time    0.0005: real time    0.0005
    --------------------------------------------
      LOOP:  cpu time    0.4617: real time    0.4620

 eigenvalue-minimisations  :  1692
 total energy-change (2. order) :-0.4716903E-03  (-0.3918360E-05)
 number of electron      20.0000000 magnetization 
 augmentation part       -4.4809650 magnetization 

 DIPCOR: dipole corrections for dipol
 direction  3 min pos     1,
 dipolmoment           0.000000      0.000000     -0.000029 electrons x Angstroem
 Tr[quadrupol]       -73.911828

 energy correction for charged system         0.000000 eV
 dipol+quadrupol energy correction           -0.000000 eV
 added-field ion interaction          0.000000 eV  (added to PSCEN)


 Broyden mixing:
  rms(total) = 0.67293E-03    rms(broyden)= 0.67293E-03
  rms(prec ) = 0.77686E-03
  weight for this iteration     100.00

 eigenvalues of (default mixing * dielectric matrix)
  average eigenvalue GAMMA=   2.2199
  6.5552  3.2201  2.4221  2.4221  1.1562  1.1562  1.1538  0.9196  0.9734

 Free energy of the ion-electron system (eV)
  ---------------------------------------------------
  alpha Z        PSCENC =         7.68311007
  Ewald energy   TEWEN  =      1883.38858620
  -Hartree energ DENC   =     -2495.08754994
  -exchange      EXHF   =         0.00000000
  -V(xc)+E(xc)   XCENC  =      -237.57082736
  PAW double counting   =      1141.51735149     -866.62311476
  entropy T*S    EENTRO =        -0.00000000
  eigenvalues    EBANDS =      -152.00065115
  atomic energy  EATOM  =       702.42789710
  Solvation  Ediel_sol  =         0.00000000
  ---------------------------------------------------
  free energy    TOTEN  =       -16.26519835 eV

  energy without entropy =      -16.26519835  energy(sigma->0) =      -16.26519835


--------------------------------------------------------------------------------------------------------




--------------------------------------- Iteration      1(  15)  ---------------------------------------


    POTLOK:  cpu time    0.0124: real time    0.0124
    SETDIJ:  cpu time    0.0024: real time    0.0024
     EDDAV:  cpu time    0.4607: real time    0.4613
       DOS:  cpu time    0.0005: real time    0.0005
    CHARGE:  cpu time    0.0128: real time    0.0128
    MIXING:  cpu time    0.0005: real time    0.0005
    --------------------------------------------
      LOOP:  cpu time    0.4894: real time    0.4900

 eigenvalue-minimisations  :  1872
 total energy-change (2. order) :-0.7284977E-04  (-0.2142008E-06)
 number of electron      20.0000000 magnetization 
 augmentation part       -4.4809318 magnetization 

 DIPCOR: dipole corrections for dipol
 direction  3 min pos     1,
 dipolmoment           0.000000      0.000000     -0.000029 electrons x Angstroem
 Tr[quadrupol]       -73.911737

 energy correction for charged system         0.000000 eV
 dipol+quadrupol energy correction           -0.000000 eV
 added-field ion interaction          0.000000 eV  (added to PSCEN)


 Broyden mixing:
  rms(total) = 0.32480E-03    rms(broyden)= 0.32480E-03
  rms(prec ) = 0.46710E-03
  weight for this iteration     100.00

 eigenvalues of (default mixing * dielectric matrix)
  average eigenvalue GAMMA=   2.4667
  7.4569  4.2694  2.9607  2.4604  1.8122  1.4590  1.1574  1.1574  0.9667  0.9667

 Free energy of the ion-electron system (eV)
  ---------------------------------------------------
  alpha Z        PSCENC =         7.68311007
  Ewald energy   TEWEN  =      1883.38858620
  -Hartree energ DENC   =     -2495.09772022
  -exchange      EXHF   =         0.00000000
  -V(xc)+E(xc)   XCENC  =      -237.57119928
  PAW double counting   =      1141.05603582     -866.16150633
  entropy T*S    EENTRO =        -0.00000000
  eigenvalues    EBANDS =      -151.99047457
  atomic energy  EATOM  =       702.42789710
  Solvation  Ediel_sol  =         0.00000000
  ---------------------------------------------------
  free energy    TOTEN  =       -16.26527120 eV

  energy without entropy =      -16.26527120  energy(sigma->0) =      -16.26527120


--------------------------------------------------------------------------------------------------------




--------------------------------------- Iteration      1(  16)  ---------------------------------------


    POTLOK:  cpu time    0.0132: real time    0.0132
    SETDIJ:  cpu time    0.0024: real time    0.0024
     EDDAV:  cpu time    0.4426: real time    0.4430
       DOS:  cpu time    0.0005: real time    0.0005
    CHARGE:  cpu time    0.0126: real time    0.0126
    MIXING:  cpu time    0.0005: real time    0.0005
    --------------------------------------------
      LOOP:  cpu time    0.4718: real time    0.4723

 eigenvalue-minimisations  :  1728
 total energy-change (2. order) :-0.1738688E-03  (-0.9896736E-06)
 number of electron      20.0000000 magnetization 
 augmentation part       -4.4809432 magnetization 

 DIPCOR: dipole corrections for dipol
 direction  3 min pos     1,
 dipolmoment           0.000000      0.000000     -0.000029 electrons x Angstroem
 Tr[quadrupol]       -73.912831

 energy correction for charged system         0.000000 eV
 dipol+quadrupol energy correction           -0.000000 eV
 added-field ion interaction          0.000000 eV  (added to PSCEN)


 Broyden mixing:
  rms(total) = 0.10434E-03    rms(broyden)= 0.10434E-03
  rms(prec ) = 0.13913E-03
  weight for this iteration     100.00

 eigenvalues of (default mixing * dielectric matrix)
  average eigenvalue GAMMA=   2.4097
  7.7961  4.5921  2.9373  2.5172  2.0062  1.3725  1.1626  1.1626  0.9544  1.0027
  1.0027

 Free energy of the ion-electron system (eV)
  ---------------------------------------------------
  alpha Z        PSCENC =         7.68311007
  Ewald energy   TEWEN  =      1883.38858620
  -Hartree energ DENC   =     -2495.15646877
  -exchange      EXHF   =         0.00000000
  -V(xc)+E(xc)   XCENC  =      -237.57148549
  PAW double counting   =      1141.04138707     -866.14691967
  entropy T*S    EENTRO =        -0.00000000
  eigenvalues    EBANDS =      -151.93155158
  atomic energy  EATOM  =       702.42789710
  Solvation  Ediel_sol  =         0.00000000
  ---------------------------------------------------
  free energy    TOTEN  =       -16.26544507 eV

  energy without entropy =      -16.26544507  energy(sigma->0) =      -16.26544507


--------------------------------------------------------------------------------------------------------




--------------------------------------- Iteration      1(  17)  ---------------------------------------


    POTLOK:  cpu time    0.0125: real time    0.0125
    SETDIJ:  cpu time    0.0024: real time    0.0024
     EDDAV:  cpu time    0.4651: real time    0.4656
       DOS:  cpu time    0.0005: real time    0.0005
    CHARGE:  cpu time    0.0127: real time    0.0127
    MIXING:  cpu time    0.0005: real time    0.0005
    --------------------------------------------
      LOOP:  cpu time    0.4938: real time    0.4943

 eigenvalue-minimisations  :  1938
 total energy-change (2. order) :-0.3042662E-04  (-0.9240017E-07)
 number of electron      20.0000000 magnetization 
 augmentation part       -4.4809363 magnetization 

 DIPCOR: dipole corrections for dipol
 direction  3 min pos     1,
 dipolmoment           0.000000      0.000000     -0.000029 electrons x Angstroem
 Tr[quadrupol]       -73.912513

 energy correction for charged system         0.000000 eV
 dipol+quadrupol energy correction           -0.000000 eV
 added-field ion interaction          0.000000 eV  (added to PSCEN)


 Broyden mixing:
  rms(total) = 0.96757E-04    rms(broyden)= 0.96757E-04
  rms(prec ) = 0.11246E-03
  weight for this iteration     100.00

 eigenvalues of (default mixing * dielectric matrix)
  average eigenvalue GAMMA=   2.5882
  8.3740  5.3820  3.0785  3.0785  2.5748  1.6620  1.6620  1.1590  1.1590  0.9777
  0.9777  0.9734

 Free energy of the ion-electron system (eV)
  ---------------------------------------------------
  alpha Z        PSCENC =         7.68311007
  Ewald energy   TEWEN  =      1883.38858620
  -Hartree energ DENC   =     -2495.15899619
  -exchange      EXHF   =         0.00000000
  -V(xc)+E(xc)   XCENC  =      -237.57158983
  PAW double counting   =      1140.99288258     -866.09840582
  entropy T*S    EENTRO =        -0.00000000
  eigenvalues    EBANDS =      -151.92895961
  atomic energy  EATOM  =       702.42789710
  Solvation  Ediel_sol  =         0.00000000
  ---------------------------------------------------
  free energy    TOTEN  =       -16.26547550 eV

  energy without entropy =      -16.26547550  energy(sigma->0) =      -16.26547550


--------------------------------------------------------------------------------------------------------




--------------------------------------- Iteration      1(  18)  ---------------------------------------


    POTLOK:  cpu time    0.0123: real time    0.0123
    SETDIJ:  cpu time    0.0024: real time    0.0024
     EDDAV:  cpu time    0.4206: real time    0.4209
       DOS:  cpu time    0.0005: real time    0.0005
    CHARGE:  cpu time    0.0126: real time    0.0126
    MIXING:  cpu time    0.0006: real time    0.0006
    --------------------------------------------
      LOOP:  cpu time    0.4490: real time    0.4494

 eigenvalue-minimisations  :  1608
 total energy-change (2. order) :-0.3211077E-04  (-0.2242283E-06)
 number of electron      20.0000000 magnetization 
 augmentation part       -4.4809336 magnetization 

 DIPCOR: dipole corrections for dipol
 direction  3 min pos     1,
 dipolmoment           0.000000      0.000000     -0.000029 electrons x Angstroem
 Tr[quadrupol]       -73.912491

 energy correction for charged system         0.000000 eV
 dipol+quadrupol energy correction           -0.000000 eV
 added-field ion interaction          0.000000 eV  (added to PSCEN)


 Broyden mixing:
  rms(total) = 0.40412E-04    rms(broyden)= 0.40412E-04
  rms(prec ) = 0.43586E-04
  weight for this iteration     100.00

 eigenvalues of (default mixing * dielectric matrix)
  average eigenvalue GAMMA=   2.4934
  8.3433  5.7102  3.3071  2.8634  2.3953  1.6444  1.6444  1.1602  1.1602  0.9908
  0.9908  1.1017  1.1017

 Free energy of the ion-electron system (eV)
  ---------------------------------------------------
  alpha Z        PSCENC =         7.68311007
  Ewald energy   TEWEN  =      1883.38858620
  -Hartree energ DENC   =     -2495.16285402
  -exchange      EXHF   =         0.00000000
  -V(xc)+E(xc)   XCENC  =      -237.57154542
  PAW double counting   =      1141.05315223     -866.15872054
  entropy T*S    EENTRO =        -0.00000000
  eigenvalues    EBANDS =      -151.92513322
  atomic energy  EATOM  =       702.42789710
  Solvation  Ediel_sol  =         0.00000000
  ---------------------------------------------------
  free energy    TOTEN  =       -16.26550761 eV

  energy without entropy =      -16.26550761  energy(sigma->0) =      -16.26550761


--------------------------------------------------------------------------------------------------------




--------------------------------------- Iteration      1(  19)  ---------------------------------------


    POTLOK:  cpu time    0.0122: real time    0.0122
    SETDIJ:  cpu time    0.0023: real time    0.0022
     EDDAV:  cpu time    0.5197: real time    0.5203
       DOS:  cpu time    0.0005: real time    0.0005
    CHARGE:  cpu time    0.0126: real time    0.0126
    MIXING:  cpu time    0.0005: real time    0.0005
    --------------------------------------------
      LOOP:  cpu time    0.5478: real time    0.5484

 eigenvalue-minimisations  :  2310
 total energy-change (2. order) :-0.1671232E-05  (-0.3100276E-08)
 number of electron      20.0000000 magnetization 
 augmentation part       -4.4809317 magnetization 

 DIPCOR: dipole corrections for dipol
 direction  3 min pos     1,
 dipolmoment           0.000000      0.000000     -0.000029 electrons x Angstroem
 Tr[quadrupol]       -73.912784

 energy correction for charged system         0.000000 eV
 dipol+quadrupol energy correction           -0.000000 eV
 added-field ion interaction          0.000000 eV  (added to PSCEN)


 Broyden mixing:
  rms(total) = 0.23119E-04    rms(broyden)= 0.23119E-04
  rms(prec ) = 0.25679E-04
  weight for this iteration     100.00

 eigenvalues of (default mixing * dielectric matrix)
  average eigenvalue GAMMA=   2.5312
  8.3559  6.0047  3.3843  3.0863  2.6441  2.3934  1.6759  1.6759  1.1537  1.1537
  0.9918  0.9758  0.9711  0.9711

 Free energy of the ion-electron system (eV)
  ---------------------------------------------------
  alpha Z        PSCENC =         7.68311007
  Ewald energy   TEWEN  =      1883.38858620
  -Hartree energ DENC   =     -2495.16515759
  -exchange      EXHF   =         0.00000000
  -V(xc)+E(xc)   XCENC  =      -237.57154143
  PAW double counting   =      1141.02407775     -866.12961924
  entropy T*S    EENTRO =        -0.00000000
  eigenvalues    EBANDS =      -151.92286215
  atomic energy  EATOM  =       702.42789710
  Solvation  Ediel_sol  =         0.00000000
  ---------------------------------------------------
  free energy    TOTEN  =       -16.26550928 eV

  energy without entropy =      -16.26550928  energy(sigma->0) =      -16.26550928


--------------------------------------------------------------------------------------------------------




--------------------------------------- Iteration      1(  20)  ---------------------------------------


    POTLOK:  cpu time    0.0125: real time    0.0125
    SETDIJ:  cpu time    0.0023: real time    0.0023
     EDDAV:  cpu time    0.4134: real time    0.4137
       DOS:  cpu time    0.0005: real time    0.0005
    CHARGE:  cpu time    0.0126: real time    0.0126
    MIXING:  cpu time    0.0006: real time    0.0006
    --------------------------------------------
      LOOP:  cpu time    0.4419: real time    0.4423

 eigenvalue-minimisations  :  1548
 total energy-change (2. order) :-0.3381326E-05  (-0.1227603E-07)
 number of electron      20.0000000 magnetization 
 augmentation part       -4.4809340 magnetization 

[...]
     14      -0.4286      0.00000
     15      -0.2148      0.00000
     16      -0.3567      0.00000
     17       0.0240      0.00000
     18      -0.0422      0.00000

 k-point  38 :      -0.4444    0.4444    0.0000
  band No.  band energies     occupation 
      1      -1.2019      0.00000
      2      -1.1771      0.00000
      3      -0.6038      0.00000
      4      -0.6364      0.00000
      5      -1.1361      0.00000
      6      -1.1345      0.00000
      7      -0.3688      0.00000
      8      -0.4548      0.00000
      9      -0.4514      0.00000
     10      -0.4284      0.00000
     11       1.1226      0.00000
     12       1.0996      0.00000
     13      -0.3651      0.00000
     14      -0.4271      0.00000
     15      -0.2157      0.00000
     16      -0.3571      0.00000
     17       0.0241      0.00000
     18      -0.0422      0.00000

 k-point  39 :      -0.3333    0.4444    0.0000
  band No.  band energies     occupation 
      1      -1.2165      0.00000
      2      -1.1610      0.00000
      3      -0.5729      0.00000
      4      -0.6014      0.00000
      5      -1.1414      0.00000
      6      -1.1448      0.00000
      7      -0.5346      0.00000
      8      -0.7679      0.00000
      9      -0.2718      0.00000
     10      -0.1740      0.00000
     11       0.9177      0.00000
     12       0.9557      0.00000
     13      -0.4442      0.00000
     14      -0.2727      0.00000
     15      -0.7634      0.00000
     16      -0.8532      0.00000
     17       0.1990      0.00000
     18       0.3024      0.00000

 k-point  40 :      -0.2222    0.4444    0.0000
  band No.  band energies     occupation 
      1      -1.2280      0.00000
      2      -1.1474      0.00000
      3      -0.5544      0.00000
      4      -0.5506      0.00000
      5      -1.1406      0.00000
      6      -1.1239      0.00000
      7      -0.9113      0.00000
      8      -1.1180      0.00000
      9       0.0569      0.00000
     10       0.1093      0.00000
     11       0.0207      0.00000
     12      -0.0333      0.00000
     13       0.2846      0.00000
     14       0.5580      0.00000
     15      -0.5513      0.00000
     16      -0.5509      0.00000
     17       0.0140      0.00000
     18      -0.0578      0.00000

 k-point  41 :      -0.1111    0.4444    0.0000
  band No.  band energies     occupation 
      1      -1.2348      0.00000
      2      -1.1391      0.00000
      3      -0.5437      0.00000
      4      -0.5169      0.00000
      5      -1.1633      0.00000
      6      -1.0880      0.00000
      7      -0.8906      0.00000
      8      -1.0807      0.00000
      9      -0.0472      0.00000
     10      -0.1541      0.00000
     11      -0.3614      0.00000
     12      -0.4766      0.00000
     13      -0.0559      0.00000
     14       0.8282      0.00000
     15      -0.3264      0.00000
     16       0.4539      0.00000
     17       0.1419      0.00000
     18       0.1095      0.00000


------------------------ aborting loop because EDIFF is reached ----------------------------------------


    FORLOC:  cpu time    0.0518: real time    0.0546
    FORNL :  cpu time    0.0210: real time    0.0210
    STRESS:  cpu time    0.0769: real time    0.0770
    FORCOR:  cpu time    0.0117: real time    0.0117
    OFIELD:  cpu time    0.0001: real time    0.0001
    FORLOC:  cpu time    0.0029: real time    0.0029
    FORNL :  cpu time    0.0210: real time    0.0211
    STRESS:  cpu time    0.0777: real time    0.0778
    FORCOR:  cpu time    0.0119: real time    0.0119
    OFIELD:  cpu time    0.0001: real time    0.0001
    FORLOC:  cpu time    0.0082: real time    0.0085
    FORNL :  cpu time    0.0200: real time    0.0200
    STRESS:  cpu time    0.0738: real time    0.0739
    FORCOR:  cpu time    0.0114: real time    0.0114
    OFIELD:  cpu time    0.0001: real time    0.0001
    FORLOC:  cpu time    0.0214: real time    0.0227
    FORNL :  cpu time    0.0204: real time    0.0204
    STRESS:  cpu time    0.0733: real time    0.0734
    FORCOR:  cpu time    0.0117: real time    0.0117
    OFIELD:  cpu time    0.0001: real time    0.0001

 INTERNAL STRAIN TENSOR  FOR ION    4  DIRECTION 3   (eV/Angst):
 -----------------------------------------------------------------------------
     2.51843 -0.00027 -0.25480
    -0.00027  2.69229 -0.00010
    -0.25481 -0.00011 13.03085


 POSITION                   FORCE-CONSTANT FOR ION    4 DIRECTION 3 (eV/Angst/Angst)
 -----------------------------------------------------------------------------------
      0.31746      4.29355     11.03754         0.283508     -0.000351     -0.662575
      2.50647      2.14655     13.72101         0.072941     -0.000262      3.307217
      0.52434      4.29355     13.75362        -0.141460      0.000564      1.481673
      2.71327      2.14658     11.00504        -0.214990      0.000049     -4.126315
 -----------------------------------------------------------------------------------
    total drift:                                0.000000     -0.000000      0.000000


 BORN EFFECTIVE CHARGE FOR ION    4 DIRECTION 3 :  -0.436  -0.000   1.113
                   rigid augmentation           :   0.000   0.000   1.114
                   ionic contribution           :   0.000   0.000   4.000
                   Berry contribution           :  -0.436  -0.000  -4.001


--------------------------------------------------------------------------------------------------------




--------------------------------------------------------------------------------------------------------




 MACROSCOPIC STATIC DIELECTRIC TENSOR (including local field effects in DFT)
 ------------------------------------------------------
           6.391080     0.000098     0.000003
          -0.000488     6.464094    -0.000001
           0.000003    -0.000001     1.220930
 ------------------------------------------------------


 PIEZOELECTRIC TENSOR (including local field effects)  for field in x, y, z        (e  Angst)
          XX          YY          ZZ          XY          YZ          ZX
  --------------------------------------------------------------------------------
  x     0.71342    -5.20809     2.42495     0.02048    -0.00002     0.00142
  y    -0.00481    -0.00820     0.00075    -4.91256     0.00101    -0.00005
  z     0.00004     0.00004    -0.00004     0.00000     0.00004     0.08149

 PIEZOELECTRIC TENSOR (including local field effects)  for field in x, y, z        (C/m^2)
          XX          YY          ZZ          XY          YZ          ZX
  --------------------------------------------------------------------------------
  x     0.02456    -0.17929     0.08348     0.00071    -0.00000     0.00005
  y    -0.00017    -0.00028     0.00003    -0.16912     0.00003    -0.00000
  z     0.00000     0.00000    -0.00000     0.00000     0.00000     0.00281
 
 BORN EFFECTIVE CHARGES (including local field effects) (in e, cummulative output)
 ---------------------------------------------------------------------------------
 ion    1
    1    -4.51988     0.00152    -0.42919
    2     0.00198    -4.86413     0.00006
    3    -0.02603     0.00074    -0.22992
 ion    2
    1    -4.52109     0.00160     0.42929
    2     0.00201    -4.86416    -0.00005
    3     0.02601    -0.00073    -0.22994
 ion    3
    1     4.52142    -0.00161     0.43425
    2    -0.00202     4.86435     0.00039
    3    -0.00206    -0.00007     0.22993
 ion    4
    1     4.51955    -0.00151    -0.43435
    2    -0.00196     4.86393    -0.00040
    3     0.00208     0.00006     0.22992

 INTERNAL STRAIN TENSOR FOR ION    1 for displacements in x,y,z  (eV/Angst):
          X           Y           Z          XY          YZ          ZX
  --------------------------------------------------------------------------------
  x    -3.37212    -1.39581    -0.45275    -0.00391     0.00017     2.75800
  y     0.00188     0.00440    -0.00041    -1.73206     2.80510     0.00013
  z     1.63126     1.60262    11.93733    -0.00006    -0.00235     0.45894

 INTERNAL STRAIN TENSOR FOR ION    2 for displacements in x,y,z  (eV/Angst):
          X           Y           Z          XY          YZ          ZX
  --------------------------------------------------------------------------------
  x    -3.36971    -1.39133    -0.45048    -0.00485    -0.00012    -2.75847
  y     0.00093     0.00356    -0.00101    -1.72855    -2.80503    -0.00009
  z    -1.63034    -1.60179   -11.94188     0.00010    -0.00234     0.45943

 INTERNAL STRAIN TENSOR FOR ION    3 for displacements in x,y,z  (eV/Angst):
          X           Y           Z          XY          YZ          ZX
  --------------------------------------------------------------------------------
  x     3.35886     1.38846     0.46287     0.00246     0.00003    -0.97990
  y     0.00023     0.00048     0.00057     1.88074    -0.69980     0.00032
  z    -2.51868    -2.69251   -13.02578     0.00030    -0.00004    -0.25428

 INTERNAL STRAIN TENSOR FOR ION    4 for displacements in x,y,z  (eV/Angst):
          X           Y           Z          XY          YZ          ZX
  --------------------------------------------------------------------------------
  x     3.36234     1.39254     0.46392     0.00170    -0.00009     0.98039
  y    -0.00052    -0.00071     0.00003     1.88406     0.69968    -0.00035
  z     2.51843     2.69229    13.03085    -0.00027    -0.00011    -0.25480


--------------------------------------------------------------------------------------------------------


 
 SECOND DERIVATIVES (NOT SYMMETRIZED)
 ------------------------------------
               1X          1Y          1Z          2X          2Y          2Z          3X          3Y          3Z          4X          4Y          4Z 
  1X    -1.949211    0.000477   -0.131594    1.112881   -0.000207   -0.111781   -0.084588   -0.000004   -0.056479    0.920918   -0.000266    0.299854
  1Y     0.000207   -1.549242   -0.000756   -0.000392    1.128382   -0.000075   -0.000511   -0.077389    0.000060    0.000696    0.498249    0.000771
  1Z    -0.158332    0.000039   -8.759000    0.135534    0.000477   -3.925993    0.071579   -0.000656    8.326113   -0.048781    0.000141    4.358880
  2X     1.112872   -0.000231    0.111184   -1.947126    0.000188    0.132063    0.918661    0.000046   -0.299487   -0.084407   -0.000003    0.056240
  2Y    -0.000378    1.128402    0.000250   -0.000086   -1.547878    0.000608    0.001001    0.496894   -0.000842   -0.000536   -0.077418   -0.000016
  2Z    -0.136136   -0.000300   -3.925941    0.158803   -0.000167   -8.761416    0.048672   -0.000077    4.358869   -0.071339    0.000544    8.328489
  3X    -0.084372    0.000197    0.014963    0.918894   -0.000095   -0.010710   -1.273898   -0.000260    0.176121    0.439376    0.000158   -0.180374
  3Y    -0.000035   -0.076087    0.000342    0.000340    0.498822   -0.000063   -0.000094   -0.752776    0.000161   -0.000210    0.330041   -0.000440
  3Z    -0.073194    0.000308    3.304873   -0.283154    0.000260   -0.662610    0.214705    0.000082   -4.123915    0.141643   -0.000650    1.481652
  4X     0.921149   -0.000404    0.010607   -0.084181    0.000169   -0.014742    0.439381    0.000172    0.180548   -1.276349    0.000063   -0.176413
  4Y     0.000020    0.500197    0.000129   -0.000025   -0.076126   -0.000458   -0.000224    0.330038    0.000355    0.000229   -0.754109   -0.000026
  4Z     0.283508   -0.000351   -0.662575    0.072941   -0.000262    3.307217   -0.141460    0.000564    1.481673   -0.214990    0.000049   -4.126315
 
 
 Eigenvectors and eigenvalues of the dynamical matrix
 ----------------------------------------------------
 
 
   1 f  =    6.933866 THz    43.566767 2PiTHz  231.288879 cm-1    28.676177 meV
             X         Y         Z           dx          dy          dz
      0.317455  4.293552 11.037536     0.018166    0.000034    0.643467  
      2.506472  2.146554 13.721008    -0.018151   -0.000037    0.643732  
      0.524337  4.293546 13.753618    -0.000774    0.000012   -0.292207  
      2.713269  2.146579 11.005035     0.000762   -0.000009   -0.292427  
 
   2 f  =    4.841522 THz    30.420182 2PiTHz  161.495795 cm-1    20.022934 meV
             X         Y         Z           dx          dy          dz
      0.317455  4.293552 11.037536    -0.019655    0.000020    0.539508  
      2.506472  2.146554 13.721008    -0.019472   -0.000028   -0.539156  
      0.524337  4.293546 13.753618     0.015780    0.000011   -0.456640  
      2.713269  2.146579 11.005035     0.015861   -0.000015    0.456570  
 
   3 f  =    3.223513 THz    20.253929 2PiTHz  107.524816 cm-1    13.331383 meV
             X         Y         Z           dx          dy          dz
      0.317455  4.293552 11.037536     0.663323   -0.000459   -0.019635  
      2.506472  2.146554 13.721008    -0.662386    0.000356   -0.019877  
      0.524337  4.293546 13.753618     0.245026   -0.000021   -0.003019  
      2.713269  2.146579 11.005035    -0.245788    0.000107   -0.002913  
 
   4 f  =    2.935320 THz    18.443161 2PiTHz   97.911740 cm-1    12.139513 meV
             X         Y         Z           dx          dy          dz
      0.317455  4.293552 11.037536    -0.000242   -0.689766    0.000069  
      2.506472  2.146554 13.721008     0.000395    0.689232    0.000031  
      0.524337  4.293546 13.753618    -0.000384   -0.156594   -0.000022  
      2.713269  2.146579 11.005035     0.000257    0.157037    0.000026  
 
   5 f  =    2.191573 THz    13.770061 2PiTHz   73.103012 cm-1     9.063622 meV
             X         Y         Z           dx          dy          dz
      0.317455  4.293552 11.037536     0.478529    0.000214    0.237522  
      2.506472  2.146554 13.721008     0.480035    0.000010   -0.237483  
      0.524337  4.293546 13.753618    -0.390893   -0.000103    0.246439  
      2.713269  2.146579 11.005035    -0.391789    0.000026   -0.246440  
 
   6 f  =    1.609867 THz    10.115092 2PiTHz   53.699376 cm-1     6.657877 meV
             X         Y         Z           dx          dy          dz
      0.317455  4.293552 11.037536     0.235319    0.000467    0.012115  
      2.506472  2.146554 13.721008    -0.255176    0.000298   -0.018982  
      0.524337  4.293546 13.753618    -0.654498    0.000161    0.028494  
      2.713269  2.146579 11.005035     0.670619   -0.000785   -0.009663  
 
   7 f  =    1.602830 THz    10.070878 2PiTHz   53.464652 cm-1     6.628774 meV
             X         Y         Z           dx          dy          dz
      0.317455  4.293552 11.037536    -0.274212   -0.000233    0.390602  
      2.506472  2.146554 13.721008    -0.255452   -0.000067   -0.390349  
      0.524337  4.293546 13.753618     0.241052    0.000231    0.479636  
      2.713269  2.146579 11.005035     0.188870    0.000055   -0.480396  
 
   8 f  =    1.473851 THz     9.260477 2PiTHz   49.162363 cm-1     6.095358 meV
             X         Y         Z           dx          dy          dz
      0.317455  4.293552 11.037536     0.000269   -0.545915   -0.000070  
      2.506472  2.146554 13.721008     0.000045   -0.548329    0.000064  
      0.524337  4.293546 13.753618    -0.000599    0.444190   -0.000080  
      2.713269  2.146579 11.005035     0.000392    0.451671    0.000093  
 
   9 f  =    1.378539 THz     8.661618 2PiTHz   45.983119 cm-1     5.701182 meV
             X         Y         Z           dx          dy          dz
      0.317455  4.293552 11.037536    -0.000075   -0.159838   -0.000046  
      2.506472  2.146554 13.721008     0.000282    0.153784    0.000043  
      0.524337  4.293546 13.753618     0.000312    0.691971   -0.000058  
      2.713269  2.146579 11.005035    -0.000483   -0.687006    0.000040  
 
  10 f/i=    0.002228 THz     0.014002 2PiTHz    0.074333 cm-1     0.009216 meV
             X         Y         Z           dx          dy          dz
      0.317455  4.293552 11.037536    -0.446689   -0.011767   -0.000638  
      2.506472  2.146554 13.721008    -0.446693   -0.011768    0.000638  
      0.524337  4.293546 13.753618    -0.547837   -0.014344   -0.000595  
      2.713269  2.146579 11.005035    -0.547831   -0.014342    0.000596  
 
  11 f/i=    0.002774 THz     0.017432 2PiTHz    0.092543 cm-1     0.011474 meV
             X         Y         Z           dx          dy          dz
      0.317455  4.293552 11.037536    -0.011747    0.447786   -0.000036  
      2.506472  2.146554 13.721008    -0.011745    0.447780    0.000036  
      0.524337  4.293546 13.753618    -0.014360    0.546940   -0.000044  
      2.713269  2.146579 11.005035    -0.014361    0.546945    0.000042  
 
  12 f/i=    1.829643 THz    11.495988 2PiTHz   61.030328 cm-1     7.566799 meV
             X         Y         Z           dx          dy          dz
      0.317455  4.293552 11.037536     0.007701    0.000012    0.292167  
      2.506472  2.146554 13.721008    -0.007713   -0.000013    0.292221  
      0.524337  4.293546 13.753618     0.010493    0.000009    0.643810  
      2.713269  2.146579 11.005035    -0.010482   -0.000006    0.643751  
 


--------------------------------------------------------------------------------------------------------




 MACROSCOPIC STATIC DIELECTRIC TENSOR IONIC CONTRIBUTION
 ------------------------------------------------------
          20.623042    -0.026351     0.000020
          -0.026351    43.620348    -0.000023
           0.000020    -0.000023     0.004601
 ------------------------------------------------------


 ELASTIC MODULI CONTR FROM IONIC RELAXATION (kBar)
 Direction    XX          YY          ZZ          XY          YZ          ZX
 --------------------------------------------------------------------------------
 XX         -97.9346    -41.8425    -38.8500     -0.0597     -0.0005     -0.0053
 YY         -41.8425    -21.5704    -40.2559      0.0307      0.0017      0.0023
 ZZ         -38.8500    -40.2559   -233.5544     -0.0111      0.0004      0.0049
 XY          -0.0597      0.0307     -0.0111    -53.2716      0.0015     -0.0007
 YZ          -0.0005      0.0017      0.0004      0.0015    -32.4084     -0.0115
 ZX          -0.0053      0.0023      0.0049     -0.0007     -0.0115    -34.7785
 --------------------------------------------------------------------------------


 PIEZOELECTRIC TENSOR IONIC CONTR  for field in x, y, z        (C/m^2)
          XX          YY          ZZ          XY          YZ          ZX
  --------------------------------------------------------------------------------
  x     1.26863     0.46151    -0.08132     0.00073    -0.00001    -0.00002
  y    -0.00141    -0.00193     0.00036     1.43438    -0.00004    -0.00000
  z     0.00000    -0.00000    -0.00000    -0.00000     0.00008    -0.00221


--------------------------------------------------------------------------------------------------------


 writing wavefunctions
     LOOP+:  cpu time  114.5379: real time  116.5462
    4ORBIT:  cpu time    0.0000: real time    0.0000

 total amount of memory used by VASP MPI-rank0    38806. kBytes
=======================================================================

   base      :      30000. kBytes
   nonl-proj :       4278. kBytes
   fftplans  :       1310. kBytes
   grid      :       2195. kBytes
   one-center:          8. kBytes
   wavefun   :       1015. kBytes
 
  
  
 General timing and accounting informations for this job:
 ========================================================
  
                  Total CPU time used (sec):      120.709
                            User time (sec):      115.980
                          System time (sec):        4.729
                         Elapsed time (sec):      122.922
  
                   Maximum memory used (kb):      157316.
                   Average memory used (kb):           0.
  
                          Minor page faults:        23788
                          Major page faults:         1080
                 Voluntary context switches:         4028
