LAMMPS (29 Sep 2021)
Processor partition = 4
# System Setup
    units    real
    dimension   3
    boundary    p p s
    atom_style  charge
    neigh_modify  delay 5
    atom_modify map array sort 0 0.0
    newton      on

# Read Data
    read_data ./image-0.lmp
Reading data file ...
  orthogonal box = (0.0000000 0.0000000 0.0000000) to (253.84801 95.581365 20.000000)
  8 by 2 by 1 MPI processor grid
  reading atoms ...
  8280 atoms
  read_data CPU = 0.055 seconds

# Force field setup
    pair_style reaxff NULL
    pair_coeff * * ./H-S-Mo.reaxff Mo S
    mass 1 95.75
    mass 2 32.06

# Molecular Static run setup
timestep 0.25  # metal 1=1ps; real 1=1fs

# Charge equllibrium step
    fix 0 all qeq/reaxff 1 0.0 10.0 1.0e-6 reaxff  # Charge equillibrium at each step

# Minimization
    thermo 10
    fix 1 all box/relax x 0.0 y 0.0 vmax 0.01
    thermo_style custom step pe lx ly lz pxx pyy pzz press
    min_style cg
    minimize 1e-10 1e-10 5000 10000

CITE-CITE-CITE-CITE-CITE-CITE-CITE-CITE-CITE-CITE-CITE-CITE-CITE

Your simulation uses code contributions which should be cited:

- pair reaxff command:

@Article{Aktulga12,
 author = {H. M. Aktulga, J. C. Fogarty, S. A. Pandit, A. Y. Grama},
 title = {Parallel reactive molecular dynamics: Numerical methods and algorithmic techniques},
 journal = {Parallel Computing},
 year =    2012,
 volume =  38,
 pages =   {245--259}
}

- fix qeq/reaxff command:

@Article{Aktulga12,
 author = {H. M. Aktulga, J. C. Fogarty, S. A. Pandit, A. Y. Grama},
 title = {Parallel reactive molecular dynamics: Numerical methods and algorithmic techniques},
 journal = {Parallel Computing},
 year =    2012,
 volume =  38,
 pages =   {245--259}
}

CITE-CITE-CITE-CITE-CITE-CITE-CITE-CITE-CITE-CITE-CITE-CITE-CITE

WARNING: Using 'neigh_modify every 1 delay 0 check yes' setting during minimization (../min.cpp:188)
Neighbor list info ...
  update every 1 steps, delay 0 steps, check yes
  max neighbors/atom: 2000, page size: 100000
  master list distance cutoff = 12
  ghost atom cutoff = 12
  binsize = 6, bins = 43 16 1
  2 neighbor lists, perpetual/occasional/extra = 2 0 0
  (1) pair reaxff, perpetual
      attributes: half, newton off, ghost
      pair build: half/bin/newtoff/ghost
      stencil: full/ghost/bin/3d
      bin: standard
  (2) fix qeq/reaxff, perpetual, copy from (1)
      attributes: half, newton off, ghost
      pair build: copy
      stencil: none
      bin: none
Per MPI rank memory allocation (min/avg/max) = 28.83 | 29.17 | 29.50 Mbytes
Step PotEng Lx Ly Lz Pxx Pyy Pzz Press 
       0    -963236.9    253.84801    95.581365     3.191507    16794.306   -11625.094   -3075.8427    697.78964 
      10   -963347.45    254.04634    95.614913    3.1887875   -2254.5022   -12797.206    4731.8188   -3439.9632 
      20   -963379.87    253.95465    95.549377    3.1896444     976.1835   -242.24437   -1414.5988   -226.88657 
      30   -963393.32    253.92703    95.559564     3.189457   -11.186399    170.31794   -955.85544   -265.57463 
      40   -963399.62    253.89098    95.572466    3.1892959    211.31636   -369.31195   -620.31079   -259.43546 
      50   -963403.67    253.93958    95.554191    3.1890773   -3368.2577    2743.2152   -166.52574   -263.85605 
      59   -963406.55    253.83825    95.585517     3.188815    9.2237543    10.105001   -121.64787   -34.106371 
Loop time of 4.20874 on 16 procs for 59 steps with 8280 atoms

99.5% CPU use with 16 MPI tasks x no OpenMP threads

Minimization stats:
  Stopping criterion = energy tolerance
  Energy initial, next-to-last, final = 
     -963236.898696757  -963406.545661106  -963406.545737087
  Force two-norm initial, final = 23080.639 40.668383
  Force max component initial, final = 18966.218 11.411384
  Final line search alpha, max atom move = 0.00017597652 0.0020081358
  Iterations, force evaluations = 59 118

MPI task timing breakdown:
Section |  min time  |  avg time  |  max time  |%varavg| %total
---------------------------------------------------------------
Pair    | 2.6747     | 3.1438     | 3.5112     |  15.6 | 74.70
Neigh   | 0.17973    | 0.20138    | 0.21582    |   2.9 |  4.78
Comm    | 0.01254    | 0.32672    | 0.84918    |  49.4 |  7.76
Output  | 0.00019635 | 0.00020436 | 0.00024862 |   0.0 |  0.00
Modify  | 0.44559    | 0.46036    | 0.4819     |   1.9 | 10.94
Other   |            | 0.07627    |            |       |  1.81

Nlocal:        517.500 ave         540 max         495 min
Histogram: 8 0 0 0 0 0 0 0 0 8
Nghost:        855.000 ave         901 max         810 min
Histogram: 8 0 0 0 0 0 0 0 0 8
Neighs:        50130.5 ave       52057 max       48204 min
Histogram: 8 0 0 0 0 0 0 0 0 8

Total # of neighbors = 802088
Ave neighs/atom = 96.870531
Neighbor list builds = 104
Dangerous builds = 98
    reset_timestep	0
    fix 2 all neb 1.0 parallel ideal
    unfix 1

# NEB
    min_style quickmin
    variable u uloop 200
    dump  1 all atom 10 dump.neb.$u
    dump  1 all atom 10 dump.neb.5
    neb	  1e-6 1e-6 10000 10000 100 final ./image-1.cord
WARNING: Using 'neigh_modify every 1 delay 0 check yes' setting during minimization (../min.cpp:188)
Per MPI rank memory allocation (min/avg/max) = 28.70 | 29.04 | 29.39 Mbytes
Step PotEng Lx Ly Lz Pxx Pyy Pzz Press 
       0   -810074.68    253.83825    95.585517    3.2037938    331998.92   -107581.71    173248.94    132555.38 
      10   -811983.33    253.83825    95.585517    3.2037938    305539.19   -127786.05    203459.27    127070.81 
      20   -817354.88    253.83825    95.585517    3.2037938    231934.03    -183969.8    289615.67    112526.63 
      30   -825621.38    253.83825    95.585517    3.2037938    147193.37   -250194.69    391543.35    96180.679 
      40    -838395.3    253.83825    95.585517    3.2037938    74324.472   -282510.74    436049.54    75954.425 
      50   -851865.02    253.83825    95.585517    3.2037938    32575.931   -185942.02    306548.42    51060.777 
      60   -860419.67    253.83825    95.585517    3.2037938    82330.338    8717.3784    113445.71    68164.474 
      70   -867019.16    253.83825    95.585517    3.2037938    207684.85     146863.5   -4676.2802    116624.02 
      80   -872267.27    253.83825    95.585517    3.2037938    248638.46    207880.07   -25257.885    143753.55 
      90   -876115.14    253.83825    95.585517    3.2037938    236782.57    232323.02   -19675.834    149809.92 
     100   -879042.29    253.83825    95.585517    3.2037938     226594.8    240792.42    -9676.736    152570.16 
     110   -881450.16    253.83825    95.585517    3.2037938    223322.26    251197.95    10048.212    161522.81 
     120    -883526.1    253.83825    95.585517    3.2037938    223607.27    266783.88     39180.76    176523.97 
     130   -884360.16    253.83825    95.585517    3.2037938     202097.9    262204.64   -28083.145    145406.46 
     140   -884834.77    253.83825    95.585517    3.2037938    200795.09    266337.42   -22367.842    148254.89 
     150   -885276.67    253.83825    95.585517    3.2037938    199042.83    270460.42    -17120.91    150794.11 
     160   -885663.84    253.83825    95.585517    3.2037938    196715.16    274116.15   -13102.969    152576.12 
     170   -885967.35    253.83825    95.585517    3.2037938    193712.96    276174.74   -11005.433    152960.75 
     180   -886166.02    253.83825    95.585517    3.2037938    191160.61    276889.66   -9589.0944    152820.39 
     190   -886321.24    253.83825    95.585517    3.2037938    189652.64    278396.72   -7447.8466    153533.84 
     200   -886467.63    253.83825    95.585517    3.2037938    188139.83    279970.78   -5429.7908    154226.94 
     210   -886601.26    253.83825    95.585517    3.2037938    186528.41     281219.1    -3747.034    154666.83 
     220   -886718.14    253.83825    95.585517    3.2037938    184962.69    282169.46   -2372.1438       154920 
     230    -886818.7    253.83825    95.585517    3.2037938    183499.39    282851.46   -1273.0119    155025.95 
     240   -886898.54    253.83825    95.585517    3.2037938     182068.4    282830.34   -505.06425    154797.89 
     250   -886957.46    253.83825    95.585517    3.2037938    181140.35    283124.15    54.159065    154772.89 
     260   -887011.03    253.83825    95.585517    3.2037938    180339.13     283510.6    527.87271    154792.53 
     270   -887060.33    253.83825    95.585517    3.2037938       179569    283795.77    919.56804    154761.44 
     280   -887103.16    253.83825    95.585517    3.2037938    178852.95    283923.76    1221.9087    154666.21 
     290   -887138.88    253.83825    95.585517    3.2037938    178245.83    283995.81    1448.3788    154563.34 
     300    -887170.7    253.83825    95.585517    3.2037938    177750.18     284165.5    1631.4024    154515.69 
     310   -887203.06    253.83825    95.585517    3.2037938    177297.97    284462.36    1799.6371    154519.99 
     320   -887238.68    253.83825    95.585517    3.2037938    176823.55    284830.99    1961.6104    154538.72 
     330    -887277.1    253.83825    95.585517    3.2037938    176304.91    285177.42    2107.9124    154530.08 
     340   -887317.68    253.83825    95.585517    3.2037938    175764.25     285513.5    2232.5807    154503.44 
     350   -887358.61    253.83825    95.585517    3.2037938    175146.66    285587.77    2326.6316    154353.69 
     360   -887391.36    253.83825    95.585517    3.2037938    174558.27    285327.07     2379.354    154088.23 
     370   -887423.13    253.83825    95.585517    3.2037938    174145.27    285469.14    2422.8648    154012.42 
     380   -887455.33    253.83825    95.585517    3.2037938    173720.03    285555.24    2453.1069    153909.46 
     390    -887487.3    253.83825    95.585517    3.2037938    173274.07    285582.41    2470.5135    153775.66 
     400   -887518.02    253.83825    95.585517    3.2037938    172796.39    285531.28    2473.6124    153600.43 
     410   -887546.46    253.83825    95.585517    3.2037938    172478.74    285449.03    2476.9668    153468.25 
     420   -887572.37    253.83825    95.585517    3.2037938    172204.66    285401.41    2474.2919    153360.12 
     430   -887597.64    253.83825    95.585517    3.2037938    171963.81    285421.48    2467.9062     153284.4 
     440   -887623.06    253.83825    95.585517    3.2037938    171727.02    285444.62    2458.0514    153209.89 
     450   -887649.08    253.83825    95.585517    3.2037938    171500.56    285498.54    2445.3934    153148.17 
     460   -887676.08    253.83825    95.585517    3.2037938    171271.76    285554.82    2430.5017    153085.69 
     470   -887704.69    253.83825    95.585517    3.2037938    171048.49    285650.14    2411.8006    153036.81 
     480    -887735.3    253.83825    95.585517    3.2037938    170818.65    285756.06    2389.0944    152987.93 
     490   -887768.13    253.83825    95.585517    3.2037938    170577.07    285859.48    2361.3045    152932.62 
     500   -887802.75    253.83825    95.585517    3.2037938    170332.15    285971.62    2328.9762    152877.58 
     510   -887837.79    253.83825    95.585517    3.2037938    170015.76    285858.29    2287.9454    152720.67 
     520    -887869.5    253.83825    95.585517    3.2037938    169687.34    285609.51    2243.8346    152513.56 
     530   -887898.66    253.83825    95.585517    3.2037938    169447.72     285544.4    2203.3283    152398.48 
     540   -887929.02    253.83825    95.585517    3.2037938    169264.34     285651.9    2162.2396    152359.49 
     550   -887961.18    253.83825    95.585517    3.2037938    169049.11    285684.51    2114.5884    152282.74 
     560   -887990.74    253.83825    95.585517    3.2037938    168738.02    285363.98    2059.7895    152053.93 
     570   -888016.31    253.83825    95.585517    3.2037938    168513.39     285203.6    2013.0318    151910.01 
     580   -888039.08    253.83825    95.585517    3.2037938    168316.33    285059.07    1969.7375    151781.71 
     590   -888060.17    253.83825    95.585517    3.2037938    168148.51    284959.64    1929.1786    151679.11 
     600   -888078.82    253.83825    95.585517    3.2037938     167990.9    284838.04    1891.3344    151573.42 
     610   -888095.28    253.83825    95.585517    3.2037938    167855.52    284736.24    1857.3542    151483.04 
     620   -888109.87    253.83825    95.585517    3.2037938    167745.29    284670.47    1827.5324    151414.43 
     630   -888123.18    253.83825    95.585517    3.2037938    167643.67    284603.89    1798.9066    151348.82 
     640   -888135.17    253.83825    95.585517    3.2037938    167555.06    284549.77    1772.9635     151292.6 
     650   -888146.07    253.83825    95.585517    3.2037938    167476.78    284504.89    1749.8118    151243.83 
     660   -888156.28    253.83825    95.585517    3.2037938    167406.49     284469.7    1727.7417    151201.31 
     670   -888165.91    253.83825    95.585517    3.2037938    167340.37    284435.08    1706.3456     151160.6 
     680   -888174.95    253.83825    95.585517    3.2037938    167278.76    284402.37    1686.2414    151122.46 
     690   -888183.46    253.83825    95.585517    3.2037938    167221.76    284373.11    1667.4303    151087.43 
     700   -888191.78    253.83825    95.585517    3.2037938    167169.35    284352.72    1648.5379    151056.87 
     710   -888200.13    253.83825    95.585517    3.2037938    167116.95    284331.49    1628.8745    151025.77 
     720   -888208.36    253.83825    95.585517    3.2037938    167064.11     284305.7    1609.8836    150993.23 
     730   -888216.25    253.83825    95.585517    3.2037938    167013.08    284278.71    1591.5295    150961.11 
     739   -888223.06    253.83825    95.585517    3.2037938    166968.99    284253.99    1575.5872    150932.86 
Loop time of 27.0558 on 16 procs for 739 steps with 8280 atoms

99.6% CPU use with 16 MPI tasks x no OpenMP threads

Minimization stats:
  Stopping criterion = energy tolerance
  Energy initial, next-to-last, final = 
     -810074.679441816  -888222.315920517  -888223.055774987
  Force two-norm initial, final = 9575.2361 104.04874
  Force max component initial, final = 143.45486 1.1468239
  Final line search alpha, max atom move = 0.0000000 0.0000000
  Iterations, force evaluations = 739 739

MPI task timing breakdown:
Section |  min time  |  avg time  |  max time  |%varavg| %total
---------------------------------------------------------------
Pair    | 14.945     | 18.071     | 20.204     |  44.9 | 66.79
Neigh   | 0          | 0          | 0          |   0.0 |  0.00
Comm    | 0.036572   | 1.8769     | 5.2955     | 140.2 |  6.94
Output  | 0.17982    | 0.17994    | 0.18055    |   0.0 |  0.67
Modify  | 6.3207     | 6.6501     | 6.9011     |   9.5 | 24.58
Other   |            | 0.2778     |            |       |  1.03

Nlocal:        517.500 ave         525 max         510 min
Histogram: 8 0 0 0 0 0 0 0 0 8
Nghost:        843.750 ave         863 max         825 min
Histogram: 8 0 0 0 0 0 0 0 0 8
Neighs:        48536.5 ave       49159 max       47914 min
Histogram: 8 0 0 0 0 0 0 0 0 8

Total # of neighbors = 776584
Ave neighs/atom = 93.790338
Neighbor list builds = 0
Dangerous builds = 0
WARNING: Using 'neigh_modify every 1 delay 0 check yes' setting during minimization (../min.cpp:188)
Per MPI rank memory allocation (min/avg/max) = 28.71 | 29.05 | 29.40 Mbytes
Step PotEng Lx Ly Lz Pxx Pyy Pzz Press 
     739   -888223.06    253.83825    95.585517      3.06192    174705.53    297424.96    1647.9756    157926.16 
     740   -888223.06    253.83825    95.585517      3.06192    174681.64    297355.26    1645.8371    157894.25 
     745   -888223.14    253.83825    95.585517      3.06192    174681.39    297355.84    1644.7447    157893.99 
Loop time of 0.255992 on 16 procs for 6 steps with 8280 atoms

99.8% CPU use with 16 MPI tasks x no OpenMP threads

Minimization stats:
  Stopping criterion = energy tolerance
  Energy initial, next-to-last, final = 
     -888223.056864596   -888223.11423675  -888223.143859081
  Force two-norm initial, final = 114.37933 114.36650
  Force max component initial, final = 1.4039763 1.4037987
  Final line search alpha, max atom move = 0.0000000 0.0000000
  Iterations, force evaluations = 6 6

MPI task timing breakdown:
Section |  min time  |  avg time  |  max time  |%varavg| %total
---------------------------------------------------------------
Pair    | 0.13795    | 0.16756    | 0.18751    |   4.3 | 65.46
Neigh   | 0          | 0          | 0          |   0.0 |  0.00
Comm    | 0.00025333 | 0.017326   | 0.049871   |  13.7 |  6.77
Output  | 0.0013214  | 0.0013236  | 0.0013325  |   0.0 |  0.52
Modify  | 0.06483    | 0.067816   | 0.070123   |   0.9 | 26.49
Other   |            | 0.001962   |            |       |  0.77

Nlocal:        517.500 ave         525 max         510 min
Histogram: 8 0 0 0 0 0 0 0 0 8
Nghost:        838.250 ave         863 max         825 min
Histogram: 8 0 0 4 0 0 0 0 0 4
Neighs:        49166.0 ave       49821 max       48500 min
Histogram: 8 0 0 0 0 0 0 0 0 8

Total # of neighbors = 786656
Ave neighs/atom = 95.006763
Neighbor list builds = 0
Dangerous builds = 0
Total wall time: 0:00:32
