LAMMPS (29 Sep 2021)
Processor partition = 2
Reading data file ...
  orthogonal box = (0.0000000 0.0000000 0.0000000) to (253.84801 95.581365 20.000000)
  8 by 2 by 1 MPI processor grid
  reading atoms ...
  8280 atoms
  read_data CPU = 0.056 seconds

CITE-CITE-CITE-CITE-CITE-CITE-CITE-CITE-CITE-CITE-CITE-CITE-CITE

Your simulation uses code contributions which should be cited:
- pair reaxff command:
- fix qeq/reaxff command:
The log file lists these citations in BibTeX format.

CITE-CITE-CITE-CITE-CITE-CITE-CITE-CITE-CITE-CITE-CITE-CITE-CITE

WARNING: Using 'neigh_modify every 1 delay 0 check yes' setting during minimization (../min.cpp:188)
Neighbor list info ...
  update every 1 steps, delay 0 steps, check yes
  max neighbors/atom: 2000, page size: 100000
  master list distance cutoff = 12
  ghost atom cutoff = 12
  binsize = 6, bins = 43 16 1
  2 neighbor lists, perpetual/occasional/extra = 2 0 0
  (1) pair reaxff, perpetual
      attributes: half, newton off, ghost
      pair build: half/bin/newtoff/ghost
      stencil: full/ghost/bin/3d
      bin: standard
  (2) fix qeq/reaxff, perpetual, copy from (1)
      attributes: half, newton off, ghost
      pair build: copy
      stencil: none
      bin: none
Setting up cg style minimization ...
  Unit style    : real
  Current step  : 0
WARNING: Energy due to 3 extra global DOFs will be included in minimizer energies
Per MPI rank memory allocation (min/avg/max) = 28.83 | 29.17 | 29.50 Mbytes
Step PotEng Lx Ly Lz Pxx Pyy Pzz Press 
       0    -963236.9    253.84801    95.581365     3.191507    16794.306   -11625.094   -3075.8427    697.78964 
      10   -963347.45    254.04634    95.614913    3.1887875   -2254.5022   -12797.206    4731.8188   -3439.9632 
      20   -963379.87    253.95465    95.549377    3.1896444     976.1835   -242.24437   -1414.5988   -226.88657 
      30   -963393.32    253.92703    95.559564     3.189457   -11.186399    170.31794   -955.85544   -265.57463 
      40   -963399.62    253.89098    95.572466    3.1892959    211.31636   -369.31195   -620.31079   -259.43546 
      50   -963403.67    253.93958    95.554191    3.1890773   -3368.2577    2743.2152   -166.52574   -263.85605 
      59   -963406.55    253.83825    95.585517     3.188815    9.2237543    10.105001   -121.64787   -34.106371 
Loop time of 4.09803 on 16 procs for 59 steps with 8280 atoms

99.6% CPU use with 16 MPI tasks x no OpenMP threads

Minimization stats:
  Stopping criterion = energy tolerance
  Energy initial, next-to-last, final = 
     -963236.898696757  -963406.545661106  -963406.545737087
  Force two-norm initial, final = 23080.639 40.668383
  Force max component initial, final = 18966.218 11.411384
  Final line search alpha, max atom move = 0.00017597652 0.0020081358
  Iterations, force evaluations = 59 118

MPI task timing breakdown:
Section |  min time  |  avg time  |  max time  |%varavg| %total
---------------------------------------------------------------
Pair    | 2.659      | 3.0302     | 3.47       |  16.0 | 73.94
Neigh   | 0.17945    | 0.1956     | 0.2109     |   2.7 |  4.77
Comm    | 0.011751   | 0.37811    | 0.78792    |  45.4 |  9.23
Output  | 0.00019479 | 0.00020044 | 0.0002421  |   0.0 |  0.00
Modify  | 0.38877    | 0.40431    | 0.42051    |   1.9 |  9.87
Other   |            | 0.0896     |            |       |  2.19

Nlocal:        517.500 ave         540 max         495 min
Histogram: 8 0 0 0 0 0 0 0 0 8
Nghost:        855.000 ave         901 max         810 min
Histogram: 8 0 0 0 0 0 0 0 0 8
Neighs:        50130.5 ave       52057 max       48204 min
Histogram: 8 0 0 0 0 0 0 0 0 8

Total # of neighbors = 802088
Ave neighs/atom = 96.870531
Neighbor list builds = 104
Dangerous builds = 98
WARNING: Using 'neigh_modify every 1 delay 0 check yes' setting during minimization (../min.cpp:188)
Setting up quickmin style minimization ...
  Unit style    : real
  Current step  : 0
Per MPI rank memory allocation (min/avg/max) = 28.73 | 29.05 | 29.38 Mbytes
Step PotEng Lx Ly Lz Pxx Pyy Pzz Press 
       0   -822533.82    253.83825    95.585517    3.1959928    338020.77   -24326.053    131548.84    148414.52 
      10   -824508.61    253.83825    95.585517    3.1959928    309541.33   -48258.321    166550.51    142611.17 
      20   -829598.01    253.83825    95.585517    3.1959928    233415.76   -112725.38    263497.31    128062.56 
      30      -836168    253.83825    95.585517    3.1959928    153632.36   -184475.67    371179.68    113445.45 
      40   -845889.46    253.83825    95.585517    3.1959928     87064.02   -232688.14    441966.68    98780.854 
      50   -860718.39    253.83825    95.585517    3.1959928    30993.955   -171369.56     387655.9    82426.763 
      60   -872147.13    253.83825    95.585517    3.1959928    104469.25    46880.949    117082.91      89477.7 
      70   -876040.08    253.83825    95.585517    3.1959928    194554.98    149711.08   -23611.022    106885.01 
      80   -878922.52    253.83825    95.585517    3.1959928    209628.81    191301.07   -30551.192    123459.57 
      90   -881868.21    253.83825    95.585517    3.1959928    204494.72    209606.51   -21332.925    130922.77 
     100   -884946.74    253.83825    95.585517    3.1959928     197923.3    213603.44   -13398.719    132709.34 
     110    -887635.6    253.83825    95.585517    3.1959928    184024.16    214387.93     -7980.55    130143.85 
     120   -889392.55    253.83825    95.585517    3.1959928    165830.04    221847.42    2913.0371    130196.83 
     130   -889914.47    253.83825    95.585517    3.1959928    150773.31     191689.8    -15954.88    108836.08 
     140   -890203.42    253.83825    95.585517    3.1959928    152049.86    195534.95    -11701.22     111961.2 
     150   -890515.82    253.83825    95.585517    3.1959928    155255.25    200544.62   -7000.9857     116266.3 
     160   -890916.84    253.83825    95.585517    3.1959928    161336.62    207850.71   -1952.0425    122411.77 
     170   -891591.41    253.83825    95.585517    3.1959928    171569.43    219290.24    3275.7523    131378.47 
     180   -892932.08    253.83825    95.585517    3.1959928    178102.06     226876.1    6392.7152    137123.63 
     190      -894455    253.83825    95.585517    3.1959928    170525.36    218616.52    7168.6796    132103.52 
     200   -895695.12    253.83825    95.585517    3.1959928    161786.71    209092.21    7965.8797     126281.6 
     210   -896711.56    253.83825    95.585517    3.1959928    154756.29    201436.21    8682.3537    121624.95 
     220   -897559.34    253.83825    95.585517    3.1959928     149545.1    195834.76    9284.2245    118221.36 
     230   -898284.28    253.83825    95.585517    3.1959928    146112.85    192115.62    9693.4639    115973.98 
     240   -898879.52    253.83825    95.585517    3.1959928    143048.09    186403.95    9149.4737    112867.17 
     250   -899346.14    253.83825    95.585517    3.1959928    143155.53    185803.51    9258.3008    112739.11 
     260   -899834.17    253.83825    95.585517    3.1959928    144891.58    186923.14    9561.2759       113792 
     270   -900365.32    253.83825    95.585517    3.1959928    148648.97    189169.33    9953.0523    115923.78 
     280   -901013.33    253.83825    95.585517    3.1959928    155329.29    193284.93    10540.318    119718.18 
     290   -901867.39    253.83825    95.585517    3.1959928    163870.03    197424.79    10578.124    123957.65 
     300   -902876.49    253.83825    95.585517    3.1959928    169624.53    198960.71    10870.425    126485.22 
     310   -903862.21    253.83825    95.585517    3.1959928    170147.55    197307.48    12180.028    126545.02 
     320   -904685.32    253.83825    95.585517    3.1959928    167710.46    194410.97    13824.354    125315.26 
     330    -905338.7    253.83825    95.585517    3.1959928    164675.76    191452.25    14569.179    123565.73 
     340   -905852.84    253.83825    95.585517    3.1959928    162064.26       189540    14674.678    122092.98 
     350   -906246.59    253.83825    95.585517    3.1959928    159601.38    187480.79    13888.273    120323.48 
     360   -906506.66    253.83825    95.585517    3.1959928    158052.16    186209.08    12618.973    118960.07 
     370    -906717.4    253.83825    95.585517    3.1959928    157732.75    187939.88      11871.5    119181.38 
     380   -906919.07    253.83825    95.585517    3.1959928    158197.39    191091.81    10728.648    120005.95 
     390   -907122.39    253.83825    95.585517    3.1959928    159149.86    195729.03    8987.1035    121288.67 
     400   -907348.87    253.83825    95.585517    3.1959928    161294.15    203102.11    6591.6885    123662.65 
     410   -907641.36    253.83825    95.585517    3.1959928    164628.18    212173.85     3378.938    126726.99 
     420   -908007.65    253.83825    95.585517    3.1959928       169022    220985.69    558.08201    130188.59 
     430   -908409.58    253.83825    95.585517    3.1959928    173424.73    227492.23   -1186.1877    133243.59 
     440   -908784.46    253.83825    95.585517    3.1959928    177415.37    231433.06   -1983.3035    135621.71 
     450   -909092.67    253.83825    95.585517    3.1959928       180744    233259.16   -2195.2556     137269.3 
     460    -909333.1    253.83825    95.585517    3.1959928    183674.98    234137.78   -2056.5455     138585.4 
     470   -909515.77    253.83825    95.585517    3.1959928     185720.8    233923.89   -1817.5307    139275.72 
     480   -909639.18    253.83825    95.585517    3.1959928    187101.14    233246.97   -1411.8393    139645.42 
     490   -909722.25    253.83825    95.585517    3.1959928    188318.14    232713.52   -1024.8399    140002.27 
     500   -909808.94    253.83825    95.585517    3.1959928    189816.77    232604.81   -854.84761    140522.24 
     510   -909887.67    253.83825    95.585517    3.1959928    190778.02    232062.07   -855.70845    140661.46 
     520   -909948.64    253.83825    95.585517    3.1959928       191318    231366.56   -859.76102    140608.27 
     530   -910000.03    253.83825    95.585517    3.1959928    191650.32    230647.47   -846.63131    140483.72 
     540   -910039.16    253.83825    95.585517    3.1959928    191737.84    229800.34   -804.68431     140244.5 
     550    -910068.6    253.83825    95.585517    3.1959928    191849.12    229213.18   -846.41708    140071.96 
     560   -910089.77    253.83825    95.585517    3.1959928    191795.87    228777.03   -1164.6058    139802.76 
     570   -910103.24    253.83825    95.585517    3.1959928    192049.18    228634.17   -1324.5372    139786.27 
     580   -910114.01    253.83825    95.585517    3.1959928    192355.97    228596.21     -1442.92    139836.42 
     590   -910122.42    253.83825    95.585517    3.1959928    192694.29    228653.25   -1564.0816    139927.82 
     600   -910130.29    253.83825    95.585517    3.1959928    193003.64     228722.5   -1679.3688    140015.59 
     610   -910137.02    253.83825    95.585517    3.1959928    193300.19    228819.52   -1770.7481    140116.32 
     620    -910142.5    253.83825    95.585517    3.1959928    193575.33    228940.12   -1856.3537     140219.7 
     630   -910146.74    253.83825    95.585517    3.1959928    193827.21       229071   -1934.1116    140321.36 
     640   -910150.65    253.83825    95.585517    3.1959928    194051.83    229190.94   -1999.2464    140414.51 
     650   -910154.47    253.83825    95.585517    3.1959928    194255.57    229295.81   -2044.6129    140502.26 
     660   -910157.86    253.83825    95.585517    3.1959928    194445.03    229399.81   -2089.7392    140585.03 
     670   -910160.87    253.83825    95.585517    3.1959928    194614.85    229495.43   -2124.5087    140661.92 
     680    -910163.6    253.83825    95.585517    3.1959928    194771.61    229581.56   -2150.5062    140734.22 
     690   -910166.32    253.83825    95.585517    3.1959928    194923.47    229664.74   -2171.9858    140805.41 
     700   -910168.92    253.83825    95.585517    3.1959928    195073.55    229749.97   -2192.9138    140876.87 
     710   -910171.36    253.83825    95.585517    3.1959928    195220.53    229837.24   -2216.2086    140947.19 
     720   -910173.88    253.83825    95.585517    3.1959928    195385.48    229936.12   -2219.0966    141034.17 
     730   -910176.22    253.83825    95.585517    3.1959928    195525.89    230024.01   -2245.0074    141101.63 
     739   -910177.71    253.83825    95.585517    3.1959928    195650.43    230114.47   -2269.3911    141165.17 
Loop time of 27.0558 on 16 procs for 739 steps with 8280 atoms

99.7% CPU use with 16 MPI tasks x no OpenMP threads

Minimization stats:
  Stopping criterion = energy tolerance
  Energy initial, next-to-last, final = 
     -822533.822838299   -910177.61248302  -910177.712140003
  Force two-norm initial, final = 9829.6526 53.713228
  Force max component initial, final = 142.69333 11.466218
  Final line search alpha, max atom move = 0.0000000 0.0000000
  Iterations, force evaluations = 739 739

MPI task timing breakdown:
Section |  min time  |  avg time  |  max time  |%varavg| %total
---------------------------------------------------------------
Pair    | 14.89      | 18.097     | 21.661     |  48.6 | 66.89
Neigh   | 0          | 0          | 0          |   0.0 |  0.00
Comm    | 0.034047   | 2.8591     | 5.658      | 120.6 | 10.57
Output  | 0.091261   | 0.091363   | 0.091912   |   0.0 |  0.34
Modify  | 4.8953     | 5.6408     | 6.5935     |  28.3 | 20.85
Other   |            | 0.3673     |            |       |  1.36

Nlocal:        517.500 ave         540 max         495 min
Histogram: 8 0 0 0 0 0 0 0 0 8
Nghost:        843.750 ave         878 max         810 min
Histogram: 8 0 0 0 0 0 0 0 0 8
Neighs:        48981.2 ave       50866 max       47095 min
Histogram: 8 0 0 0 0 0 0 0 0 8

Total # of neighbors = 783700
Ave neighs/atom = 94.649758
Neighbor list builds = 0
Dangerous builds = 0
WARNING: Using 'neigh_modify every 1 delay 0 check yes' setting during minimization (../min.cpp:188)
Setting up quickmin style minimization ...
  Unit style    : real
  Current step  : 739
Per MPI rank memory allocation (min/avg/max) = 28.72 | 29.05 | 29.40 Mbytes
Step PotEng Lx Ly Lz Pxx Pyy Pzz Press 
     739   -910177.71    253.83825    95.585517    3.3372538    187368.84    220374.07   -2173.3564    135189.85 
     740   -910177.71    253.83825    95.585517    3.3372538    187362.47    220368.44    -2179.865    135183.68 
     745   -910177.74    253.83825    95.585517    3.3372538    187352.68    220363.89   -2195.1444    135173.81 
Loop time of 0.255991 on 16 procs for 6 steps with 8280 atoms

99.5% CPU use with 16 MPI tasks x no OpenMP threads

Minimization stats:
  Stopping criterion = energy tolerance
  Energy initial, next-to-last, final = 
     -910177.712197433  -910177.733736325   -910177.74436008
  Force two-norm initial, final = 53.711949 53.137781
  Force max component initial, final = 11.466641 11.483704
  Final line search alpha, max atom move = 0.0000000 0.0000000
  Iterations, force evaluations = 6 6

MPI task timing breakdown:
Section |  min time  |  avg time  |  max time  |%varavg| %total
---------------------------------------------------------------
Pair    | 0.13467    | 0.16808    | 0.20546    |   5.0 | 65.66
Neigh   | 0          | 0          | 0          |   0.0 |  0.00
Comm    | 0.00030137 | 0.027577   | 0.058716   |  11.7 | 10.77
Output  | 0.0012018  | 0.0012048  | 0.0012105  |   0.0 |  0.47
Modify  | 0.046873   | 0.057038   | 0.071024   |   4.5 | 22.28
Other   |            | 0.002091   |            |       |  0.82

Nlocal:        517.500 ave         540 max         494 min
Histogram: 6 0 0 2 0 0 2 0 0 6
Nghost:        829.250 ave         872 max         800 min
Histogram: 4 2 2 0 2 0 2 2 0 2
Neighs:        49432.4 ave       51665 max       47338 min
Histogram: 4 2 2 0 0 2 0 0 2 4

Total # of neighbors = 790918
Ave neighs/atom = 95.521498
Neighbor list builds = 0
Dangerous builds = 0
Total wall time: 0:00:31
