<UPF version="2.0.1">
<PP_INFO>
Generated by new atomic code, or converted to UPF format
Author:
Generation date:
Pseudopotential type: US
Element: O
Functional:  SLA  PZ   NOGX NOGC
Suggested minimum cutoff for wavefunctions:   0. Ry
Suggested minimum cutoff for charge density:   0. Ry
The Pseudo was generated with a Non-Relativistic Calculation
L component and cutoff radius for Local Potential:  0   0.0000
Valence configuration:
nl pn  l   occ       Rcut    Rcut US       E pseu
2S  0  0  2.00     10.000      1.200     0.000000
2P  0  1  4.00     10.000      1.200     0.000000
Generation configuration: not available.
</PP_INFO>
<!--
END OF HUMAN READABLE SECTION
-->
<PP_HEADER generated="Generated by new atomic code, or converted to UPF format" author="" date="" comment="" element="O " pseudo_type="US" relativistic="no" is_ultrasoft="true" is_paw="false" is_coulomb="false" has_so="false" has_wfc="false" has_gipaw="false" paw_as_gipaw="false" core_correction="false" functional=" SLA  PZ   NOGX NOGC" z_valence="6.000000000000e0" total_psenergy="-3.151532769045e1" wfc_cutoff="0.000000000000e0" rho_cutoff="0.000000000000e0" l_max="1" l_max_rho="0" l_local="0" mesh_size="737" number_of_wfc="2" number_of_proj="4"/>
<PP_MESH mesh="737" rmax="8.105524075740e1" zmesh="8.000000000000e0">
<PP_R>
0.000000000000000e0 5.296351134989999e-6 1.068323600100000e-5 1.616220214570000e-5
2.173482357020000e-5 2.740270118070000e-5 3.316746324880000e-5 3.903076587909999e-5
4.499429348490000e-5 5.105975927239999e-5 5.722890573250000e-5 6.350350514150000e-5
6.988536007060000e-5 7.637630390300000e-5 8.297820136140000e-5 8.969294904320000e-5
9.652247596539999e-5 1.034687441190000e-4 1.105337490320000e-4 1.177195203450000e-4
1.250281223890000e-4 1.324616547850000e-4 1.400222530430000e-4 1.477120891770000e-4
1.555333723280000e-4 1.634883493980000e-4 1.715793057000000e-4 1.798085656070000e-4
1.881784932280000e-4 1.966914930800000e-4 2.053500107840000e-4 2.141565337640000e-4
2.231135919640000e-4 2.322237585730000e-4 2.414896507660000e-4 2.509139304550001e-4
2.604993050520000e-4 2.702485282510001e-4 2.801644008139999e-4 2.902497713790000e-4
3.005075372800000e-4 3.109406453719999e-4 3.215520928870000e-4 3.323449282870000e-4
3.433222521460000e-4 3.544872180360001e-4 3.658430334370000e-4 3.773929606530001e-4
3.891403177550000e-4 4.010884795330000e-4 4.132408784610000e-4 4.256010056890000e-4
4.381724120410001e-4 4.509587090410000e-4 4.639635699429999e-4 4.771907307920000e-4
4.906439914960001e-4 5.043272169160000e-4 5.182443379780000e-4 5.323993528020000e-4
5.467963278500000e-4 5.614393990930000e-4 5.763327732030000e-4 5.914807287580002e-4
6.068876174730001e-4 6.225578654480000e-4 6.384959744419999e-4 6.547065231670000e-4
6.711941685979999e-4 6.879636473180001e-4 7.050197768720000e-4 7.223674571579998e-4
7.400116718270001e-4 7.579574897210001e-4 7.762100663270001e-4 7.947746452570001e-4
8.136565597540001e-4 8.328612342280001e-4 8.523941858100002e-4 8.722610259379998e-4
8.924674619730000e-4 9.130192988299999e-4 9.339224406570001e-4 9.551828925200001e-4
9.768067621360000e-4 9.988002616250002e-4 1.021169709290000e-3 1.043921531450000e-3
1.067062264250000e-3 1.090598555590000e-3 1.114537166980000e-3 1.138884975520000e-3
1.163648975870000e-3 1.188836282240000e-3 1.214454130470000e-3 1.240509880050000e-3
1.267011016310000e-3 1.293965152520000e-3 1.321380032060000e-3 1.349263530700000e-3
1.377623658850000e-3 1.406468563800000e-3 1.435806532150000e-3 1.465645992120000e-3
1.495995516010000e-3 1.526863822660000e-3 1.558259779930000e-3 1.590192407280000e-3
1.622670878320000e-3 1.655704523500000e-3 1.689302832740000e-3 1.723475458190000e-3
1.758232216970000e-3 1.793583094040000e-3 1.829538245020000e-3 1.866107999130000e-3
1.903302862140000e-3 1.941133519430000e-3 1.979610839010000e-3 2.018745874660000e-3
2.058549869140000e-3 2.099034257350000e-3 2.140210669670000e-3 2.182090935300000e-3
2.224687085610000e-3 2.268011357670000e-3 2.312076197700000e-3 2.356894264670000e-3
2.402478433950000e-3 2.448841800980000e-3 2.495997685060000e-3 2.543959633180000e-3
2.592741423860000e-3 2.642357071170000e-3 2.692820828720000e-3 2.744147193790000e-3
2.796350911430000e-3 2.849446978770001e-3 2.903450649280000e-3 2.958377437170000e-3
3.014243121850000e-3 3.071063752430000e-3 3.128855652390000e-3 3.187635424230000e-3
3.247419954240000e-3 3.308226417350000e-3 3.370072282080000e-3 3.432975315560000e-3
3.496953588609999e-3 3.562025480940000e-3 3.628209686460000e-3 3.695525218610001e-3
3.763991415830001e-3 3.833627947140000e-3 3.904454817770000e-3 3.976492374910000e-3
4.049761313540000e-3 4.124282682430000e-3 4.200077890120001e-3 4.277168711100000e-3
4.355577292080000e-3 4.435326158320000e-3 4.516438220130000e-3 4.598936779430001e-3
4.682845536469999e-3 4.768188596610000e-3 4.854990477259999e-3 4.943276114910001e-3
5.033070872330000e-3 5.124400545799999e-3 5.217291372580000e-3 5.311770038410001e-3
5.407863685170000e-3 5.505599918720000e-3 5.605006816780000e-3 5.706112937020000e-3
5.808947325279999e-3 5.913539523900001e-3 6.019919580180000e-3 6.128118055060000e-3
6.238166031860000e-3 6.350095125240001e-3 6.463937490259999e-3 6.579725831630000e-3
6.697493413100000e-3 6.817274067020000e-3 6.939102204050000e-3 7.063012823059999e-3
7.189041521170001e-3 7.317224503989999e-3 7.447598596000001e-3 7.580201251160000e-3
7.715070563659999e-3 7.852245278820002e-3 7.991764804300000e-3 8.133669221350001e-3
8.277999296360001e-3 8.424796492580001e-3 8.574102981990000e-3 8.725961657470000e-3
8.880416145070001e-3 9.037510816579999e-3 9.197290802250000e-3 9.359802003779999e-3
9.525091107510001e-3 9.693205597780000e-3 9.864193770640000e-3 1.003810474770000e-2
1.021498849020000e-2 1.039489581340000e-2 1.057787840120000e-2 1.076398882090000e-2
1.095328053860000e-2 1.114580793400000e-2 1.134162631650000e-2 1.154079194100000e-2
1.174336202390000e-2 1.194939475960000e-2 1.215894933740000e-2 1.237208595830000e-2
1.258886585220000e-2 1.280935129590000e-2 1.303360563060000e-2 1.326169328010000e-2
1.349367976960000e-2 1.372963174450000e-2 1.396961698900000e-2 1.421370444640000e-2
1.446196423820000e-2 1.471446768470000e-2 1.497128732520000e-2 1.523249693900000e-2
1.549817156660000e-2 1.576838753120000e-2 1.604322246060000e-2 1.632275530960000e-2
1.660706638250000e-2 1.689623735640000e-2 1.719035130450000e-2 1.748949272010000e-2
1.779374754070000e-2 1.810320317290000e-2 1.841794851720000e-2 1.873807399390000e-2
1.906367156880000e-2 1.939483477990000e-2 1.973165876390000e-2 2.007424028380000e-2
2.042267775670000e-2 2.077707128200000e-2 2.113752266990000e-2 2.150413547130000e-2
2.187701500680000e-2 2.225626839760000e-2 2.264200459590000e-2 2.303433441610000e-2
2.343337056700000e-2 2.383922768410000e-2 2.425202236210000e-2 2.467187318910000e-2
2.509890078000000e-2 2.553322781160000e-2 2.597497905770000e-2 2.642428142480000e-2
2.688126398880000e-2 2.734605803190000e-2 2.781879708060000e-2 2.829961694350000e-2
2.878865575100000e-2 2.928605399430000e-2 2.979195456650000e-2 3.030650280290000e-2
3.082984652330000e-2 3.136213607420000e-2 3.190352437210000e-2 3.245416694740000e-2
3.301422198900000e-2 3.358385038990000e-2 3.416321579340000e-2 3.475248463990000e-2
3.535182621490001e-2 3.596141269770000e-2 3.658141921059999e-2 3.721202386970001e-2
3.785340783520000e-2 3.850575536460000e-2 3.916925386450000e-2 3.984409394530000e-2
4.053046947550000e-2 4.122857763750000e-2 4.193861898410000e-2 4.266079749670000e-2
4.339532064310000e-2 4.414239943750000e-2 4.490224850130000e-2 4.567508612429999e-2
4.646113432800000e-2 4.726061892870001e-2 4.807376960290000e-2 4.890081995290000e-2
4.974200757450000e-2 5.059757412450000e-2 5.146776539069999e-2 5.235283136200000e-2
5.325302630099999e-2 5.416860881609999e-2 5.509984193649999e-2 5.604699318740001e-2
5.701033466720000e-2 5.799014312499999e-2 5.898670004110000e-2 6.000029170680000e-2
6.103120930740000e-2 6.207974900570000e-2 6.314621202670000e-2 6.423090474470000e-2
6.533413877100001e-2 6.645623104320000e-2 6.759750391679999e-2 6.875828525740001e-2
6.993890853500000e-2 7.113971291979999e-2 7.236104337980000e-2 7.360325077950001e-2
7.486669198100000e-2 7.615172994660000e-2 7.745873384269998e-2 7.878807914650000e-2
8.014014775290001e-2 8.151532808520001e-2 8.291401520600001e-2 8.433661093120000e-2
8.578352394490000e-2 8.725516991720001e-2 8.875197162359999e-2 9.027435906620001e-2
9.182276959739999e-2 9.339764804570001e-2 9.499944684319999e-2 9.662862615560000e-2
9.828565401460001e-2 9.997100645230001e-2 1.016851676380000e-1 1.034286300170000e-1
1.052018944510000e-1 1.070054703670000e-1 1.088398758960000e-1 1.107056380270000e-1
1.126032927580000e-1 1.145333852480000e-1 1.164964699760000e-1 1.184931108970000e-1
1.205238816080000e-1 1.225893655110000e-1 1.246901559780000e-1 1.268268565260000e-1
1.290000809880000e-1 1.312104536900000e-1 1.334586096280000e-1 1.357451946540000e-1
1.380708656600000e-1 1.404362907660000e-1 1.428421495130000e-1 1.452891330570000e-1
1.477779443700000e-1 1.503092984400000e-1 1.528839224740000e-1 1.555025561130000e-1
1.581659516390000e-1 1.608748741950000e-1 1.636301020020000e-1 1.664324265820000e-1
1.692826529900000e-1 1.721816000410000e-1 1.751301005460000e-1 1.781290015520000e-1
1.811791645850000e-1 1.842814658990000e-1 1.874367967240000e-1 1.906460635260000e-1
1.939101882650000e-1 1.972301086600000e-1 2.006067784620000e-1 2.040411677220000e-1
2.075342630720000e-1 2.110870680130000e-1 2.147006031960000e-1 2.183759067190000e-1
2.221140344280000e-1 2.259160602120000e-1 2.297830763210000e-1 2.337161936730000e-1
2.377165421780000e-1 2.417852710570000e-1 2.459235491780000e-1 2.501325653880000e-1
2.544135288560000e-1 2.587676694200000e-1 2.631962379400000e-1 2.677005066590000e-1
2.722817695650000e-1 2.769413427670000e-1 2.816805648690000e-1 2.865007973600000e-1
2.914034249970000e-1 2.963898562120000e-1 3.014615235100000e-1 3.066198838810000e-1
3.118664192240000e-1 3.172026367670000e-1 3.226300695020000e-1 3.281502766240000e-1
3.337648439830000e-1 3.394753845350000e-1 3.452835388090000e-1 3.511909753730000e-1
3.571993913220000e-1 3.633105127550000e-1 3.695260952810000e-1 3.758479245150000e-1
3.822778165970000e-1 3.888176187110000e-1 3.954692096150000e-1 4.022345001820000e-1
4.091154339500000e-1 4.161139876770000e-1 4.232321719140000e-1 4.304720315750000e-1
4.378356465330000e-1 4.453251322130000e-1 4.529426401969999e-1 4.606903588490000e-1
4.685705139390000e-1 4.765853692829999e-1 4.847372273930000e-1 4.930284301410000e-1
5.014613594280000e-1 5.100384378719999e-1 5.187621295020000e-1 5.276349404660000e-1
5.366594197500000e-1 5.458381599120000e-1 5.551737978280000e-1 5.646690154450001e-1
5.743265405550000e-1 5.841491475790001e-1 5.941396583620000e-1 6.043009429830000e-1
6.146359205840000e-1 6.251475602030000e-1 6.358388816320000e-1 6.467129562790000e-1
6.577729080559999e-1 6.690219142740000e-1 6.804632065530000e-1 6.921000717569999e-1
7.039358529300000e-1 7.159739502650000e-1 7.282178220730000e-1 7.406709857819999e-1
7.533370189439999e-1 7.662195602670000e-1 7.793223106550000e-1 7.926490342740000e-1
8.062035596339999e-1 8.199897806879999e-1 8.340116579509999e-1 8.482732196370000e-1
8.627785628160000e-1 8.775318545930000e-1 8.925373333040000e-1 9.077993097300000e-1
9.233221683440000e-1 9.391103685620001e-1 9.551684460290000e-1 9.715010139189999e-1
9.881127642630000e-1 1.005008469300000e0 1.022192982830000e0 1.039671241630000e0
1.057448266880000e0 1.075529165560000e0 1.093919131980000e0 1.112623449200000e0
1.131647490620000e0 1.150996721480000e0 1.170676700440000e0 1.190693081180000e0
1.211051614000000e0 1.231758147530000e0 1.252818630360000e0 1.274239112750000e0
1.296025748380000e0 1.318184796150000e0 1.340722621920000e0 1.363645700360000e0
1.386960616840000e0 1.410674069270000e0 1.434792870080000e0 1.459323948130000e0
1.484274350720000e0 1.509651245620000e0 1.535461923130000e0 1.561713798150000e0
1.588414412330000e0 1.615571436240000e0 1.643192671580000e0 1.671286053390000e0
1.699859652360000e0 1.728921677120000e0 1.758480476630000e0 1.788544542570000e0
1.819122511760000e0 1.850223168660000e0 1.881855447880000e0 1.914028436770000e0
1.946751378010000e0 1.980033672250000e0 2.013884880870000e0 2.048314728650000e0
2.083333106640000e0 2.118950074920000e0 2.155175865560000e0 2.192020885540000e0
2.229495719720000e0 2.267611133890000e0 2.306378077860000e0 2.345807688640000e0
2.385911293590000e0 2.426700413690000e0 2.468186766880000e0 2.510382271380000e0
2.553299049130000e0 2.596949429310000e0 2.641345951820000e0 2.686501370920000e0
2.732428658890000e0 2.779141009750000e0 2.826651843050000e0 2.874974807750000e0
2.924123786080000e0 2.974112897610000e0 3.024956503230000e0 3.076669209340000e0
3.129265871980000e0 3.182761601170000e0 3.237171765190000e0 3.292511995020000e0
3.348798188850000e0 3.406046516610000e0 3.464273424640000e0 3.523495640400000e0
3.583730177290000e0 3.644994339520000e0 3.707305727100000e0 3.770682240890000e0
3.835142087730000e0 3.900703785700000e0 3.967386169390000e0 4.035208395370000e0
4.104189947640000e0 4.174350643290000e0 4.245710638110000e0 4.318290432440000e0
4.392110877070000e0 4.467193179180000e0 4.543558908450000e0 4.621230003290000e0
4.700228777100000e0 4.780577924690000e0 4.862300528820000e0 4.945420066820000e0
5.029960417320000e0 5.115945867120000e0 5.203401118190000e0 5.292351294720000e0
5.382821950380000e0 5.474839075630000e0 5.568429105220000e0 5.663618925750000e0
5.760435883410000e0 5.858907791850000e0 5.959062940130000e0 6.060930100890000e0
6.164538538600000e0 6.269918017960000e0 6.377098812440000e0 6.486111713030000e0
6.596988037010000e0 6.709759637010000e0 6.824458910120000e0 6.941118807230000e0
7.059772842470000e0 7.180455102850000e0 7.303200258050000e0 7.428043570360000e0
7.555020904870000e0 7.684168739700000e0 7.815524176530000e0 7.949124951230000e0
8.085009444710000e0 8.223216693970000e0 8.363786403270000e0 8.506758955570000e0
8.652175424119999e0 8.800077584260000e0 8.950507925400000e0 9.103509663290000e0
9.259126752349999e0 9.417403898370001e0 9.578386571310000e0 9.742121018370000e0
9.908654277289999e0 1.007803418990000e1 1.025030941560000e1 1.042552944600000e1
1.060374461820000e1 1.078500613010000e1 1.096936605450000e1 1.115687735460000e1
1.134759389860000e1 1.154157047580000e1 1.173886281190000e1 1.193952758510000e1
1.214362244250000e1 1.235120601670000e1 1.256233794240000e1 1.277707887370000e1
1.299549050160000e1 1.321763557140000e1 1.344357790110000e1 1.367338239960000e1
1.390711508530000e1 1.414484310510000e1 1.438663475360000e1 1.463255949290000e1
1.488268797240000e1 1.513709204910000e1 1.539584480850000e1 1.565902058520000e1
1.592669498460000e1 1.619894490420000e1 1.647584855620000e1 1.675748548970000e1
1.704393661350000e1 1.733528421950000e1 1.763161200620000e1 1.793300510290000e1
1.823955009400000e1 1.855133504380000e1 1.886844952220000e1 1.919098463010000e1
1.951903302550000e1 1.985268895040000e1 2.019204825770000e1 2.053720843870000e1
2.088826865130000e1 2.124532974830000e1 2.160849430640000e1 2.197786665580000e1
2.235355291010000e1 2.273566099650000e1 2.312430068740000e1 2.351958363140000e1
2.392162338570000e1 2.433053544850000e1 2.474643729230000e1 2.516944839770000e1
2.559969028760000e1 2.603728656210000e1 2.648236293420000e1 2.693504726580001e1
2.739546960420000e1 2.786376222000000e1 2.834005964450000e1 2.882449870870000e1
2.931721858260000e1 2.981836081510000e1 3.032806937470000e1 3.084649069070000e1
3.137377369560000e1 3.191006986760000e1 3.245553327430001e1 3.301032061650000e1
3.357459127420000e1 3.414850735120000e1 3.473223372260000e1 3.532593808170001e1
3.592979098820000e1 3.654396591740000e1 3.716863930980000e1 3.780399062210000e1
3.845020237840000e1 3.910746022280000e1 3.977595297270000e1 4.045587267330000e1
4.114741465220000e1 4.185077757620000e1 4.256616350770000e1 4.329377796330000e1
4.403382997250000e1 4.478653213800000e1 4.555210069660000e1 4.633075558120001e1
4.712272048440000e1 4.792822292230000e1 4.874749430030000e1 4.958076997900001e1
5.042828934260001e1 5.129029586680001e1 5.216703718960001e1 5.305876518170000e1
5.396573601930001e1 5.488821025760000e1 5.582645290550000e1 5.678073350210000e1
5.775132619380000e1 5.873850981290000e1 5.974256795820001e1 6.076378907630001e1
6.180246654410000e1 6.285889875370000e1 6.393338919750001e1 6.502624655580000e1
6.613778478560000e1 6.726832321000001e1 6.841818661110000e1 6.958770532220000e1
7.077721532350001e1 7.198705833810000e1 7.321758193070001e1 7.446913960670000e1
7.574209091450000e1 7.703680154830001e1 7.835364345350000e1 7.969299493330000e1
8.105524075740000e1
</PP_R>
<PP_RAB>
5.251593594630001e-6 5.341362257939998e-6 5.432665391260000e-6 5.525529224220000e-6
5.619980434810000e-6 5.716046157020001e-6 5.813753988680000e-6 5.913131999359999e-6
6.014208738439999e-6 6.117013243320000e-6 6.221575047730000e-6 6.327924190250000e-6
6.436091222950000e-6 6.546107220109999e-6 6.658003787200001e-6 6.771813069940000e-6
6.887567763539999e-6 7.005301122070000e-6 7.125046968060000e-6 7.246839702170000e-6
7.370714313090000e-6 7.496706387600000e-6 7.624852120790000e-6 7.755188326450000e-6
7.887752447640000e-6 8.022582567479999e-6 8.159717420050004e-6 8.299196401530001e-6
8.441059581550000e-6 8.585347714630000e-6 8.732102251990002e-6 8.881365353349999e-6
9.033179899109999e-6 9.187589502650001e-6 9.344638522880000e-6 9.504372076919999e-6
9.666836053149998e-6 9.832077124310000e-6 1.000014276100000e-5 1.017108124510000e-5
1.034494168410000e-5 1.052177402470000e-5 1.070162906730000e-5 1.088455848090000e-5
1.107061481740000e-5 1.125985152750000e-5 1.145232297490000e-5 1.164808445320000e-5
1.184719220070000e-5 1.204970341720000e-5 1.225567628040000e-5 1.246516996220000e-5
1.267824464620000e-5 1.289496154450000e-5 1.311538291570000e-5 1.333957208260000e-5
1.356759345050000e-5 1.379951252540000e-5 1.403539593330000e-5 1.427531143870000e-5
1.451932796500000e-5 1.476751561320000e-5 1.501994568280000e-5 1.527669069220000e-5
1.553782439930000e-5 1.580342182260000e-5 1.607355926310000e-5 1.634831432630000e-5
1.662776594380000e-5 1.691199439660000e-5 1.720108133820000e-5 1.749510981760000e-5
1.779416430360000e-5 1.809833070860000e-5 1.840769641370000e-5 1.872235029390000e-5
1.904238274300000e-5 1.936788570020000e-5 1.969895267620000e-5 2.003567878000001e-5
2.037816074670000e-5 2.072649696460000e-5 2.108078750410000e-5 2.144113414580000e-5
2.180764041050000e-5 2.218041158830000e-5 2.255955476910000e-5 2.294517887350000e-5
2.333739468370000e-5 2.373631487580000e-5 2.414205405190000e-5 2.455472877290000e-5
2.497445759240000e-5 2.540136109030000e-5 2.583556190760001e-5 2.627718478199999e-5
2.672635658300000e-5 2.718320634910000e-5 2.764786532440000e-5 2.812046699640001e-5
2.860114713440000e-5 2.909004382850000e-5 2.958729752930000e-5 3.009305108810000e-5
3.060744979820000e-5 3.113064143630000e-5 3.166277630540000e-5 3.220400727730000e-5
3.275448983739999e-5 3.331438212850000e-5 3.388384499700000e-5 3.446304203850000e-5
3.505213964500000e-5 3.565130705299999e-5 3.626071639160000e-5 3.688054273240000e-5
3.751096413940000e-5 3.815216172060000e-5 3.880431967950000e-5 3.946762536860000e-5
4.014226934270000e-5 4.082844541400000e-5 4.152635070770000e-5 4.223618571830000e-5
4.295815436770000e-5 4.369246406369999e-5 4.443932575900000e-5 4.519895401279999e-5
4.597156705130000e-5 4.675738683150000e-5 4.755663910420000e-5 4.836955347900000e-5
4.919636349049999e-5 5.003730666530000e-5 5.089262459000000e-5 5.176256298089999e-5
5.264737175450000e-5 5.354730509930000e-5 5.446262154859999e-5 5.539358405520000e-5
5.634046006659999e-5 5.730352160190001e-5 5.828304533010000e-5 5.927931264940001e-5
6.029260976820000e-5 6.132322778700000e-5 6.237146278250000e-5 6.343761589230001e-5
6.452199340150000e-5 6.562490683100000e-5 6.674667302619999e-5 6.788761424910001e-5
6.904805826980000e-5 7.022833846150000e-5 7.142879389590000e-5 7.264976944050000e-5
7.389161585810000e-5 7.515468990710001e-5 7.643935444410000e-5 7.774597852850001e-5
7.907493752810000e-5 8.042661322710000e-5 8.180139393579999e-5 8.319967460199999e-5
8.462185692469998e-5 8.606834946939999e-5 8.753956778540001e-5 8.903593452530000e-5
9.055787956630001e-5 9.210584013369999e-5 9.368026092659999e-5 9.528159424569999e-5
9.691030012299999e-5 9.856684645429999e-5 1.002517091330000e-4 1.019653721880000e-4
1.037083279210000e-4 1.054810770510000e-4 1.072841288520000e-4 1.091180013070000e-4
1.109832212530000e-4 1.128803245310000e-4 1.148098561410000e-4 1.167723704020000e-4
1.187684311050000e-4 1.207986116800000e-4 1.228634953580000e-4 1.249636753410000e-4
1.270997549700000e-4 1.292723479000000e-4 1.314820782730000e-4 1.337295809030000e-4
1.360155014530000e-4 1.383404966250000e-4 1.407052343450000e-4 1.431103939560000e-4
1.455566664140000e-4 1.480447544860000e-4 1.505753729500000e-4 1.531492488060000e-4
1.557671214770000e-4 1.584297430280000e-4 1.611378783780000e-4 1.638923055230000e-4
1.666938157560000e-4 1.695432138960000e-4 1.724413185210000e-4 1.753889621990000e-4
1.783869917330000e-4 1.814362683970000e-4 1.845376681910000e-4 1.876920820850000e-4
1.909004162830000e-4 1.941635924760000e-4 1.974825481120000e-4 2.008582366630000e-4
2.042916278980000e-4 2.077837081650000e-4 2.113354806699999e-4 2.149479657690001e-4
2.186222012600000e-4 2.223592426780000e-4 2.261601636040000e-4 2.300260559690001e-4
2.339580303680000e-4 2.379572163820000e-4 2.420247629000000e-4 2.461618384490000e-4
2.503696315300000e-4 2.546493509620000e-4 2.590022262250000e-4 2.634295078150000e-4
2.679324676050000e-4 2.725123992090000e-4 2.771706183510000e-4 2.819084632490000e-4
2.867272949930000e-4 2.916284979400000e-4 2.966134801119999e-4 3.016836735969999e-4
3.068405349630000e-4 3.120855456770000e-4 3.174202125300000e-4 3.228460680670000e-4
3.283646710319999e-4 3.339776068130000e-4 3.396864878980000e-4 3.454929543380000e-4
3.513986742170000e-4 3.574053441360000e-4 3.635146896950000e-4 3.697284659889999e-4
3.760484581169999e-4 3.824764816900000e-4 3.890143833550000e-4 3.956640413250001e-4
4.024273659169999e-4 4.093063001050000e-4 4.163028200720001e-4 4.234189357829999e-4
4.306566915609999e-4 4.380181666730000e-4 4.455054759280000e-4 4.531207702850000e-4
4.608662374720001e-4 4.687441026099998e-4 4.767566288590000e-4 4.849061180610001e-4
4.931949114080000e-4 5.016253901090000e-4 5.101999760780000e-4 5.189211326270000e-4
5.277913651760001e-4 5.368132219700001e-4 5.459892948160000e-4 5.553222198209999e-4
5.648146781539999e-4 5.744693968140001e-4 5.842891494150000e-4 5.942767569820000e-4
6.044350887619999e-4 6.147670630470000e-4 6.252756480119999e-4 6.359638625719999e-4
6.468347772430000e-4 6.578915150280000e-4 6.691372523149999e-4 6.805752197869999e-4
6.922087033489999e-4 7.040410450770000e-4 7.160756441730001e-4 7.283159579450000e-4
7.407655027990000e-4 7.534278552469999e-4 7.663066529380000e-4 7.794055957020001e-4
7.927284466120000e-4 8.062790330640000e-4 8.200612478800002e-4 8.340790504239999e-4
8.483364677390000e-4 8.628375957050000e-4 8.775866002160001e-4 8.925877183750000e-4
9.078452597129999e-4 9.233636074269999e-4 9.391472196370000e-4 9.552006306700001e-4
9.715284523599999e-4 9.881353753750000e-4 1.005026170560000e-3 1.022205690320000e-3
1.039678869990000e-3 1.057450729280000e-3 1.075526373710000e-3 1.093910996050000e-3
1.112609877850000e-3 1.131628390940000e-3 1.150971998960000e-3 1.170646258970000e-3
1.190656823000000e-3 1.211009439690000e-3 1.231709955960000e-3 1.252764318670000e-3
1.274178576320000e-3 1.295958880820000e-3 1.318111489230000e-3 1.340642765570000e-3
1.363559182630000e-3 1.386867323850000e-3 1.410573885220000e-3 1.434685677170000e-3
1.459209626560000e-3 1.484152778630000e-3 1.509522299080000e-3 1.535325476070000e-3
1.561569722360000e-3 1.588262577420000e-3 1.615411709580000e-3 1.643024918270000e-3
1.671110136220000e-3 1.699675431770000e-3 1.728729011190000e-3 1.758279220990000e-3
1.788334550400000e-3 1.818903633710000e-3 1.849995252850000e-3 1.881618339810000e-3
1.913781979320000e-3 1.946495411360000e-3 1.979768033860000e-3 2.013609405410000e-3
2.048029247970000e-3 2.083037449710000e-3 2.118644067800000e-3 2.154859331330000e-3
2.191693644250000e-3 2.229157588340000e-3 2.267261926270000e-3 2.306017604670000e-3
2.345435757320000e-3 2.385527708270000e-3 2.426304975160000e-3 2.467779272530000e-3
2.509962515130000e-3 2.552866821389999e-3 2.596504516880000e-3 2.640888137880000e-3
2.686030434940000e-3 2.731944376560000e-3 2.778643152940000e-3 2.826140179730000e-3
2.874449101900000e-3 2.923583797680001e-3 2.973558382510000e-3 3.024387213120000e-3
3.076084891650000e-3 3.128666269850000e-3 3.182146453320000e-3 3.236540805900000e-3
3.291864954010000e-3 3.348134791230000e-3 3.405366482780000e-3 3.463576470230000e-3
3.522781476170000e-3 3.582998509070000e-3 3.644244868100000e-3 3.706538148159999e-3
3.769896244909999e-3 3.834337359900000e-3 3.899880005810000e-3 3.966543011790000e-3
4.034345528810000e-3 4.103307035239999e-3 4.173447342379999e-3 4.244786600170000e-3
4.317345303020000e-3 4.391144295630000e-3 4.466204779030000e-3 4.542548316630000e-3
4.620196840460000e-3 4.699172657439999e-3 4.779498455790000e-3 4.861197311550000e-3
4.944292695240000e-3 5.028808478549999e-3 5.114768941210000e-3 5.202198778020000e-3
5.291123105870001e-3 5.381567471010000e-3 5.473557856330000e-3 5.567120688919999e-3
5.662282847540000e-3 5.759071670460001e-3 5.857514963230001e-3 5.957641006700001e-3
6.059478565149999e-3 6.163056894529999e-3 6.268405750890000e-3 6.375555398930000e-3
6.484536620669999e-3 6.595380724290000e-3 6.708119553170000e-3 6.822785494990001e-3
6.939411491050000e-3 7.058031045750001e-3 7.178678236199999e-3 7.301387721980000e-3
7.426194755180000e-3 7.553135190420001e-3 7.682245495240001e-3 7.813562760529999e-3
7.947124711210001e-3 8.082969717039999e-3 8.221136803649999e-3 8.361665663770001e-3
8.504596668640001e-3 8.649970879560000e-3 8.797830059730000e-3 8.948216686229999e-3
9.101173962230000e-3 9.256745829389999e-3 9.414976980510000e-3 9.575912872320000e-3
9.739599738600001e-3 9.906084603409999e-3 1.007541529460000e-2 1.024764045770000e-2
1.042280956960000e-2 1.060097295300000e-2 1.078218179070000e-2 1.096648814070000e-2
1.115394495050000e-2 1.134460607280000e-2 1.153852628090000e-2 1.173576128440000e-2
1.193636774500000e-2 1.214040329300000e-2 1.234792654400000e-2 1.255899711530000e-2
1.277367564350000e-2 1.299202380150000e-2 1.321410431660000e-2 1.343998098810000e-2
1.366971870600000e-2 1.390338346970000e-2 1.414104240630000e-2 1.438276379080000e-2
1.462861706510000e-2 1.487867285790000e-2 1.513300300550000e-2 1.539168057210000e-2
1.565477987060000e-2 1.592237648450000e-2 1.619454728900000e-2 1.647137047360000e-2
1.675292556420000e-2 1.703929344610000e-2 1.733055638730000e-2 1.762679806190000e-2
1.792810357460000e-2 1.823455948450000e-2 1.854625383050000e-2 1.886327615630000e-2
1.918571753640000e-2 1.951367060180000e-2 1.984722956720000e-2 2.018649025760000e-2
2.053155013600000e-2 2.088250833150000e-2 2.123946566750000e-2 2.160252469100000e-2
2.197178970180000e-2 2.234736678260000e-2 2.272936382950000e-2 2.311789058270000e-2
2.351305865860000e-2 2.391498158120000e-2 2.432377481530000e-2 2.473955579920000e-2
2.516244397870000e-2 2.559256084150000e-2 2.603002995170000e-2 2.647497698590000e-2
2.692752976860000e-2 2.738781830960000e-2 2.785597484080000e-2 2.833213385450000e-2
2.881643214210000e-2 2.930900883290000e-2 2.981000543490000e-2 3.031956587450000e-2
3.083783653880000e-2 3.136496631670000e-2 3.190110664250001e-2 3.244641153890000e-2
3.300103766150000e-2 3.356514434370000e-2 3.413889364220000e-2 3.472245038440000e-2
3.531598221460000e-2 3.591965964300000e-2 3.653365609470000e-2 3.715814795880000e-2
3.779331463970000e-2 3.843933860860000e-2 3.909640545560000e-2 3.976470394340001e-2
4.044442606120001e-2 4.113576707990000e-2 4.183892560849999e-2 4.255410365080000e-2
4.328150666360000e-2 4.402134361580000e-2 4.477382704810000e-2 4.553917313460000e-2
4.631760174420000e-2 4.710933650460000e-2 4.791460486569999e-2 4.873363816560000e-2
4.956667169670000e-2 5.041394477340000e-2 5.127570080090001e-2 5.215218734510000e-2
5.304365620340000e-2 5.395036347780000e-2 5.487256964760000e-2 5.581053964480000e-2
5.676454293010000e-2 5.773485357009999e-2 5.872175031630000e-2 5.972551668510000e-2
6.074644103910000e-2 6.178481667010001e-2 6.284094188340000e-2 6.391512008319999e-2
6.500765986020001e-2 6.611887508000001e-2 6.724908497300000e-2 6.839861422689999e-2
6.956779307909999e-2 7.075695741200000e-2 7.196644884960000e-2 7.319661485539999e-2
7.444780883210001e-2 7.572039022370001e-2 7.701472461820000e-2 7.833118385280001e-2
7.967014612070001e-2 8.103199607990000e-2 8.241712496350001e-2 8.382593069229999e-2
8.525881798890001e-2 8.671619849400001e-2 8.819849088500000e-2 8.970612099560000e-2
9.123952193899999e-2 9.279913423140000e-2 9.438540591940001e-2 9.599879270800001e-2
9.763975809210001e-2 9.930877348930000e-2 1.010063183750000e-1 1.027328804220000e-1
1.044889556380000e-1 1.062750485080000e-1 1.080916721440000e-1 1.099393484250000e-1
1.118186081530000e-1 1.137299912040000e-1 1.156740466800000e-1 1.176513330720000e-1
1.196624184150000e-1 1.217078804560000e-1 1.237883068150000e-1 1.259042951590000e-1
1.280564533710000e-1 1.302453997240000e-1 1.324717630600000e-1 1.347361829700000e-1
1.370393099790000e-1 1.393818057290000e-1 1.417643431740000e-1 1.441876067730000e-1
1.466522926800000e-1 1.491591089540000e-1 1.517087757530000e-1 1.543020255480000e-1
1.569396033280000e-1 1.596222668200000e-1 1.623507867010000e-1 1.651259468200000e-1
1.679485444290000e-1 1.708193904050000e-1 1.737393094860000e-1 1.767091405090000e-1
1.797297366480000e-1 1.828019656630000e-1 1.859267101450000e-1 1.891048677730000e-1
1.923373515700000e-1 1.956250901670000e-1 1.989690280660000e-1 2.023701259170000e-1
2.058293607890000e-1 2.093477264530000e-1 2.129262336690000e-1 2.165659104700000e-1
2.202678024680000e-1 2.240329731420000e-1 2.278625041540000e-1 2.317574956550000e-1
2.357190665990000e-1 2.397483550700000e-1 2.438465186040000e-1 2.480147345240000e-1
2.522542002780000e-1 2.565661337820000e-1 2.609517737720000e-1 2.654123801570000e-1