LAMMPS data file. msi2lmp v3.9.9 / 05 Nov 2018 / CGCMM for alkane-4x4

    896 atoms
    880 bonds
   1728 angles
   2448 dihedrals
   1152 impropers

   3 atom types
   4 bond types
   7 angle types
   7 dihedral types
   6 improper types

    -5.761826895     9.928573105 xlo xhi
    -0.703130516    17.216669484 ylo yhi
    -6.944291311    33.252108689 zlo zhi

Masses

   1  12.011150 # c3
   2  12.011150 # c2
   3   1.007970 # hc

Pair Coeffs # lj/class2/coul/long

   1   0.0540000000   4.0100000000 # c3
   2   0.0540000000   4.0100000000 # c2
   3   0.0200000000   2.9950000000 # hc

Bond Coeffs # class2

   1     1.5300   299.6700  -501.7700   679.8100 # c3-c2
   2     1.1010   345.0000  -691.8900   844.6000 # c3-hc
   3     1.5300   299.6700  -501.7700   679.8100 # c2-c2
   4     1.1010   345.0000  -691.8900   844.6000 # c2-hc

Angle Coeffs # class2

   1   110.7700    41.4530   -10.6040     5.1290 # c2-c3-hc
   2   107.6600    39.6410   -12.9210    -2.4318 # hc-c3-hc
   3   112.6700    39.5160    -7.4430    -9.5583 # c2-c2-c2
   4   110.7700    41.4530   -10.6040     5.1290 # c2-c2-hc
   5   107.6600    39.6410   -12.9210    -2.4318 # hc-c2-hc
   6   112.6700    39.5160    -7.4430    -9.5583 # c3-c2-c2
   7   110.7700    41.4530   -10.6040     5.1290 # c3-c2-hc

Dihedral Coeffs # class2

   1     0.0000     0.0000     0.0316     0.0000    -0.1681     0.0000# hc-c3-c2-c2
   2    -0.1432     0.0000     0.0617     0.0000    -0.1083     0.0000# hc-c3-c2-hc
   3     0.0000     0.0000     0.0514     0.0000    -0.1430     0.0000# c2-c2-c2-c2
   4     0.0000     0.0000     0.0316     0.0000    -0.1681     0.0000# c2-c2-c2-hc
   5    -0.1432     0.0000     0.0617     0.0000    -0.1083     0.0000# hc-c2-c2-hc
   6     0.0000     0.0000     0.0514     0.0000    -0.1430     0.0000# c3-c2-c2-c2
   7     0.0000     0.0000     0.0316     0.0000    -0.1681     0.0000# c3-c2-c2-hc

Improper Coeffs # class2

  1     0.0000     0.0000 
  2     0.0000     0.0000 
  3     0.0000     0.0000 
  4     0.0000     0.0000 
  5     0.0000     0.0000 
  6     0.0000     0.0000 

BondBond Coeffs

  1     3.3872     1.5300     1.1010 
  2     5.3316     1.1010     1.1010 
  3     0.0000     1.5300     1.5300 
  4     3.3872     1.5300     1.1010 
  5     5.3316     1.1010     1.1010 
  6     0.0000     1.5300     1.5300 
  7     3.3872     1.5300     1.1010 

BondAngle Coeffs

  1    20.7540    11.4210     1.5300     1.1010 
  2    18.1030    18.1030     1.1010     1.1010 
  3     8.0160     8.0160     1.5300     1.5300 
  4    20.7540    11.4210     1.5300     1.1010 
  5    18.1030    18.1030     1.1010     1.1010 
  6     8.0160     8.0160     1.5300     1.5300 
  7    20.7540    11.4210     1.5300     1.1010 

AngleAngle Coeffs

  1     0.2738    -0.4825     0.2738   110.7700   107.6600   110.7700 
  2    -0.3157    -0.3157    -0.3157   107.6600   107.6600   107.6600 
  3    -1.3199    -1.3199     0.1184   112.6700   110.7700   110.7700 
  4     0.2738    -0.4825     0.2738   110.7700   107.6600   110.7700 
  5    -1.3199    -1.3199     0.1184   112.6700   110.7700   110.7700 
  6     0.2738    -0.4825     0.2738   110.7700   107.6600   110.7700 

AngleAngleTorsion Coeffs

  1   -16.1640   110.7700   112.6700 
  2   -12.5640   110.7700   110.7700 
  3   -22.0450   112.6700   112.6700 
  4   -16.1640   112.6700   110.7700 
  5   -12.5640   110.7700   110.7700 
  6   -22.0450   112.6700   112.6700 
  7   -16.1640   112.6700   110.7700 

EndBondTorsion Coeffs

1     0.0814     0.0591     0.2219     0.2486     0.2422    -0.0925     1.1010     1.5300 
2     0.2130     0.3120     0.0777     0.2130     0.3120     0.0777     1.1010     1.1010 
3    -0.0732     0.0000     0.0000    -0.0732     0.0000     0.0000     1.5300     1.5300 
4     0.2486     0.2422    -0.0925     0.0814     0.0591     0.2219     1.5300     1.1010 
5     0.2130     0.3120     0.0777     0.2130     0.3120     0.0777     1.1010     1.1010 
6    -0.0732     0.0000     0.0000    -0.0732     0.0000     0.0000     1.5300     1.5300 
7     0.2486     0.2422    -0.0925     0.0814     0.0591     0.2219     1.5300     1.1010 

MiddleBondTorsion Coeffs

  1   -14.8790    -3.6581    -0.3138     1.5300 
  2   -14.2610    -0.5322    -0.4864     1.5300 
  3   -17.7870    -7.1877     0.0000     1.5300 
  4   -14.8790    -3.6581    -0.3138     1.5300 
  5   -14.2610    -0.5322    -0.4864     1.5300 
  6   -17.7870    -7.1877     0.0000     1.5300 
  7   -14.8790    -3.6581    -0.3138     1.5300 

BondBond13 Coeffs

  1     0.0000     1.1010     1.5300 
  2     0.0000     1.1010     1.1010 
  3     0.0000     1.5300     1.5300 
  4     0.0000     1.5300     1.1010 
  5     0.0000     1.1010     1.1010 
  6     0.0000     1.5300     1.5300 
  7     0.0000     1.5300     1.1010 

AngleTorsion Coeffs

  1     0.3113     0.4516    -0.1988    -0.2454     0.0000    -0.1136   110.7700   112.6700 
  2    -0.8085     0.5569    -0.2466    -0.8085     0.5569    -0.2466   110.7700   110.7700 
  3     0.3886    -0.3139     0.1389     0.3886    -0.3139     0.1389   112.6700   112.6700 
  4    -0.2454     0.0000    -0.1136     0.3113     0.4516    -0.1988   112.6700   110.7700 
  5    -0.8085     0.5569    -0.2466    -0.8085     0.5569    -0.2466   110.7700   110.7700 
  6     0.3886    -0.3139     0.1389     0.3886    -0.3139     0.1389   112.6700   112.6700 
  7    -0.2454     0.0000    -0.1136     0.3113     0.4516    -0.1988   112.6700   110.7700 

Atoms # full

      1      1   1 -0.159000     3.942280397     4.249613871     2.365318727   0   0   0 # c3
      2      1   1 -0.159000     0.150203778     2.308718058     2.365318727   0   0   0 # c3
      3      1   1 -0.159000     4.323571738     0.142408817    23.954901673   0   0   0 # c3
      4      1   1 -0.159000     0.216715197     2.818214409    23.931507351   0   0   0 # c3
      5      1   1 -0.159000     4.135475750     4.630015831    24.033123926   0   0   0 # c3
      6      1   1 -0.159000     3.818373655     8.609112084     2.365318727   0   0   0 # c3
      7      1   1 -0.159000     0.022092021     6.803510920     2.365318727   0   0   0 # c3
      8      1   1 -0.159000     0.010559610    11.055812764     2.365318727   0   0   0 # c3
      9      1   1 -0.159000     4.203273778     9.251609346    23.868800920   0   0   0 # c3
     10      1   1 -0.159000     3.940978097    13.195313953     2.365318727   0   0   0 # c3
     11      1   1 -0.159000     0.036825266    15.781502520     2.365318727   0   0   0 # c3
     12      1   1 -0.159000     3.711977351    -0.400328801     2.365318727   0   0   0 # c3
     13      1   1 -0.159000     4.103483114    13.721905813    23.916031725   0   0   0 # c3
     14      1   1 -0.159000     0.172217347    16.381709004    23.846130133   0   0   0 # c3
     15      1   1 -0.159000     8.162970470    12.027819695    23.939305458   0   0   0 # c3
     16      1   1 -0.159000    -3.832196859     5.028015055     2.365318727   0   0   0 # c3
     17      1   1 -0.159000     7.849979249     2.460803579     2.365318727   0   0   0 # c3
     18      1   1 -0.159000    -3.909095294     0.621316034     2.365318727   0   0   0 # c3
     19      1   1 -0.159000     7.972175741     3.095917875    23.961895852   0   0   0 # c3
     20      1   1 -0.159000    -3.705010833     1.358304512    23.965513530   0   0   0 # c3
     21      1   1 -0.159000    -3.672061086     5.738912274    23.926402404   0   0   0 # c3
     22      1   1 -0.159000     7.916678952     6.920007676     2.365318727   0   0   0 # c3
     23      1   1 -0.159000    -3.994419450     9.603715909     2.365318727   0   0   0 # c3
     24      1   1 -0.159000     7.809576582    11.294218063     2.365318727   0   0   0 # c3
     25      1   1 -0.159000     7.877578585     7.567809206    24.037022979   0   0   0 # c3
     26      1   1 -0.159000     0.245852188    11.793607634    23.964106655   0   0   0 # c3
     27      1   1 -0.159000    -3.640492089    10.179515597    23.899229617   0   0   0 # c3
     28      1   1 -0.159000     0.337562319     7.389112751    23.954901673   0   0   0 # c3
     29      1   1 -0.159000     7.786480378    15.888609290     2.365318727   0   0   0 # c3
     30      1   1 -0.159000    -4.079712225    14.248515592     2.365318727   0   0   0 # c3
     31      1   1 -0.159000    -3.669299583    14.698912373    23.912816011   0   0   0 # c3
     32      1   1 -0.159000     8.224884615    16.528812815    23.930623029   0   0   0 # c3
     33      1   2 -0.106000     4.126375344     4.880409490     6.219272042   0   0   0 # c2
     34      1   2 -0.106000     3.924785650     0.286412499     8.699271184   0   0   0 # c2
     35      1   2 -0.106000     4.127285384     3.885608547     9.985838319   0   0   0 # c2
     36      1   2 -0.106000     3.829874686     0.368503199     6.179477577   0   0   0 # c2
     37      1   2 -0.106000     0.086061603     2.172401980     7.445182765   0   0   0 # c2
     38      1   2 -0.106000     0.038190327     3.049111303     6.200580703   0   0   0 # c2
     39      1   2 -0.106000     0.051950769     2.203009034     4.928444086   0   0   0 # c2
     40      1   2 -0.106000     0.077557430     3.081510339     3.679299827   0   0   0 # c2
     41      1   2 -0.106000     0.094942344     2.114610557     9.979969640   0   0   0 # c2
     42      1   2 -0.106000     0.084053237     2.993416499     8.729699882   0   0   0 # c2
     43      1   2 -0.106000     4.046276076     4.153706989     4.878520120   0   0   0 # c2
     44      1   2 -0.106000     3.733080880     0.433910546     3.643163237   0   0   0 # c2
     45      1   2 -0.106000     4.122170328     4.756708966     8.727931239   0   0   0 # c2
     46      1   2 -0.106000     4.055172508     5.062618230     3.653413326   0   0   0 # c2
     47      1   2 -0.106000     4.075083570     3.951804366     7.434651300   0   0   0 # c2
     48      1   2 -0.106000     0.146783280     2.959010443    11.244509132   0   0   0 # c2
     49      1   2 -0.106000     0.165454804     2.133910205    12.525127195   0   0   0 # c2
     50      1   2 -0.106000     0.157813601     2.186003124    15.061119964   0   0   0 # c2
     51      1   2 -0.106000     0.140460067     2.972306950    18.881710242   0   0   0 # c2
     52      1   2 -0.106000     0.154848123     2.158908355    17.591123464   0   0   0 # c2
     53      1   2 -0.106000     4.111877455     4.842813705    16.380808957   0   0   0 # c2
     54      1   2 -0.106000     4.087981043     4.830914944    13.806428598   0   0   0 # c2
     55      1   2 -0.106000     0.123090843     3.004616387    13.777527365   0   0   0 # c2
     56      1   2 -0.106000     0.094283349     3.025206261    16.334623259   0   0   0 # c2
     57      1   2 -0.106000     3.975277215     0.240501918    11.255603346   0   0   0 # c2
     58      1   2 -0.106000     4.158775929     4.005312951    15.094724179   0   0   0 # c2
     59      1   2 -0.106000     4.183378407     4.735115581    11.256005311   0   0   0 # c2
     60      1   2 -0.106000     4.157081370     0.338308301    18.857833563   0   0   0 # c2
     61      1   2 -0.106000     4.050371259     0.224911673    13.787013722   0   0   0 # c2
     62      1   2 -0.106000     4.142379507     0.252615717    16.326101616   0   0   0 # c2
     63      1   2 -0.106000     4.027275055     4.844516088    18.947913763   0   0   0 # c2
     64      1   2 -0.106000     4.105977881     3.947414010    12.555395107   0   0   0 # c2
     65      1   2 -0.106000     4.148184939     4.014004064    17.662713306   0   0   0 # c2
     66      1   2 -0.106000     0.223132553     2.089504888    20.121126965   0   0   0 # c2
     67      1   2 -0.106000     4.275982888     0.295515768    21.438605155   0   0   0 # c2
     68      1   2 -0.106000     0.298399190     1.989207650    22.655994234   0   0   0 # c2
     69      1   2 -0.106000     4.151479913     3.849302990    22.717816343   0   0   0 # c2
     70      1   2 -0.106000     4.176882600     3.985009794    20.204132593   0   0   0 # c2
     71      1   2 -0.106000     0.229110578     2.884410228    21.423129529   0   0   0 # c2
     72      1   2 -0.106000     4.152578238     4.775614377    21.509431264   0   0   0 # c2
     73      1   2 -0.106000     4.104973698     8.489604798     7.435093461   0   0   0 # c2
     74      1   2 -0.106000     3.979874490     8.533812996     4.918073407   0   0   0 # c2
     75      1   2 -0.106000     0.120423482     6.692802266     4.908587049   0   0   0 # c2
     76      1   2 -0.106000     4.118184978     9.281212891     8.735005810   0   0   0 # c2
     77      1   2 -0.106000     3.957076402     9.405809406     3.664185970   0   0   0 # c2
     78      1   2 -0.106000     0.107981030     7.519013533     6.197043417   0   0   0 # c2
     79      1   2 -0.106000     0.097907821    11.182111663     7.484374284   0   0   0 # c2
     80      1   2 -0.106000     4.144074065     8.383806175     9.967146979   0   0   0 # c2
     81      1   2 -0.106000     3.977379723     9.362013363     6.190411006   0   0   0 # c2
     82      1   2 -0.106000     0.121521807    11.287605649    10.022135695   0   0   0 # c2
     83      1   2 -0.106000     0.022248925    11.123316730     4.929408800   0   0   0 # c2
     84      1   2 -0.106000     0.013007305     7.584313361     3.673873309   0   0   0 # c2
     85      1   2 -0.106000     0.107306345     7.559816965     8.737297007   0   0   0 # c2
     86      1   2 -0.106000     0.173221530     6.701511299     7.480354641   0   0   0 # c2
     87      1   2 -0.106000     0.168922373     6.702514809     9.984753016   0   0   0 # c2
     88      1   2 -0.106000     0.066809536    12.079805096     8.719650774   0   0   0 # c2
     89      1   2 -0.106000     4.034775045     9.207813304    11.239122810   0   0   0 # c2
     90      1   2 -0.106000     0.145622194    11.178402260    15.073822036   0   0   0 # c2
     91      1   2 -0.106000     0.172813581     6.602611807    15.036399159   0   0   0 # c2
     92      1   2 -0.106000     3.960779327     8.461614037    15.026108873   0   0   0 # c2
     93      1   2 -0.106000     3.941276214     8.524405090    17.505625658   0   0   0 # c2
     94      1   2 -0.106000     0.150925534     7.467207331    13.785124490   0   0   0 # c2
     95      1   2 -0.106000     0.157170296     6.634204451    17.583325357   0   0   0 # c2
     96      1   2 -0.106000     4.100784373     8.359112661    12.497230873   0   0   0 # c2
     97      1   2 -0.106000     4.119973678     9.343215471    18.772295560   0   0   0 # c2
     98      1   2 -0.106000     0.110491487     7.477116992    18.861009081   0   0   0 # c2
     99      1   2 -0.106000     0.098237319    11.226606578    12.530433124   0   0   0 # c2
    100      1   2 -0.106000     0.155287453     7.548509558    11.241213025   0   0   0 # c2
    101      1   2 -0.106000     3.987484312     9.239405948    13.726397506   0   0   0 # c2
    102      1   2 -0.106000     0.280480804     6.680616788    12.490116105   0   0   0 # c2
    103      1   2 -0.106000     0.200114800    11.154013383    17.567729142   0   0   0 # c2
    104      1   2 -0.106000     3.954471803     9.369002094    16.244301881   0   0   0 # c2
    105      1   2 -0.106000     0.107416177     7.459017972    16.300617079   0   0   0 # c2
    106      1   2 -0.106000     0.126479960    11.958702945    18.861009081   0   0   0 # c2
    107      1   2 -0.106000     0.076992577    12.125715677    11.298613527   0   0   0 # c2
    108      1   2 -0.106000     0.295135596     6.603704916    22.643814715   0   0   0 # c2
    109      1   2 -0.106000     0.254309290     6.641909974    20.124021108   0   0   0 # c2
    110      1   2 -0.106000     0.128896275    11.097010433    20.124021108   0   0   0 # c2
    111      1   2 -0.106000     4.107876414     9.320905294    21.315805061   0   0   0 # c2
    112      1   2 -0.106000     0.226427527    11.047802604    22.629223411   0   0   0 # c2
    113      1   2 -0.106000     0.251673310     7.486005223    21.394831243   0   0   0 # c2
    114      1   2 -0.106000     4.083776027     8.458513908    22.578616106   0   0   0 # c2
    115      1   2 -0.106000     8.093776000    11.178008024    22.678423842   0   0   0 # c2
    116      1   2 -0.106000     4.058075224     8.494317711    20.031609515   0   0   0 # c2
    117      1   2 -0.106000     0.072552206    11.926518947    21.399333243   0   0   0 # c2
    118      1   2 -0.106000     3.977771982    12.934114642     9.927915264   0   0   0 # c2
    119      1   2 -0.106000     3.841783667    13.996312032     3.651443701   0   0   0 # c2
    120      1   2 -0.106000    -0.003844137    11.995008503     6.188642363   0   0   0 # c2
    121      1   2 -0.106000     0.106333543    15.663106262     9.982260837   0   0   0 # c2
    122      1   2 -0.106000     3.916077502    13.869403859     6.170031416   0   0   0 # c2
    123      1   2 -0.106000     3.799482467    -0.440074964     4.890217281   0   0   0 # c2
    124      1   2 -0.106000    -0.054131728    16.519118192     6.161188201   0   0   0 # c2
    125      1   2 -0.106000     0.015972782    15.686814185     4.885072138   0   0   0 # c2
    126      1   2 -0.106000    -0.029168372    16.573719886     3.655945701   0   0   0 # c2
    127      1   2 -0.106000     3.857175906    -0.525767548     7.415156031   0   0   0 # c2
    128      1   2 -0.106000     0.097923512    16.500409898     8.700999631   0   0   0 # c2
    129      1   2 -0.106000     0.021385955    15.673015923     7.428219871   0   0   0 # c2
    130      1   2 -0.106000     3.962881834    -0.578846058     9.960514568   0   0   0 # c2
    131      1   2 -0.106000     4.006783450    12.967714306     7.389631298   0   0   0 # c2
    132      1   2 -0.106000     3.907071238    13.088619339     4.872249477   0   0   0 # c2
    133      1   2 -0.106000     3.947772021    13.794104772     8.672138594   0   0   0 # c2
    134      1   2 -0.106000    -0.037813758    11.923705535     3.626843486   0   0   0 # c2
    135      1   2 -0.106000     4.117274937    12.913614367    17.601614733   0   0   0 # c2
    136      1   2 -0.106000     0.086092983    15.629004843    12.521107552   0   0   0 # c2
    137      1   2 -0.106000     4.023980080    -0.617821669    12.522916391   0   0   0 # c2
    138      1   2 -0.106000     0.184314612    15.677513798    15.052718910   0   0   0 # c2
    139      1   2 -0.106000     0.283571804    15.659110142    17.536697498   0   0   0 # c2
    140      1   2 -0.106000     4.206082352    13.806612807    18.832308830   0   0   0 # c2
    141      1   2 -0.106000     0.131924513    16.489908883    11.261713204   0   0   0 # c2
    142      1   2 -0.106000     0.172562535    16.536016583    16.308696562   0   0   0 # c2
    143      1   2 -0.106000     0.085653653    16.494514277    13.771899864   0   0   0 # c2
    144      1   2 -0.106000     4.099780190    -0.605582431    15.065099410   0   0   0 # c2
    145      1   2 -0.106000     4.066877514    12.887917343    12.471505158   0   0   0 # c2
    146      1   2 -0.106000     4.104785414    13.711709435    13.751801649   0   0   0 # c2
    147      1   2 -0.106000     0.201322958    16.460609976    18.824108758   0   0   0 # c2
    148      1   2 -0.106000     4.155873213    13.705616695    16.290809150   0   0   0 # c2
    149      1   2 -0.106000     4.059173549    -0.549726349    17.616326626   0   0   0 # c2
    150      1   2 -0.106000     3.997871328    13.756706105    11.216009863   0   0   0 # c2
    151      1   2 -0.106000     4.153378446    12.861109291    15.023415713   0   0   0 # c2
    152      1   2 -0.106000     0.147661940    12.036116572    13.821019902   0   0   0 # c2
    153      1   2 -0.106000     0.216354319    12.029916314    16.328995759   0   0   0 # c2
    154      1   2 -0.106000     0.325135557    15.555802374    22.580625928   0   0   0 # c2
    155      1   2 -0.106000     4.087573093    13.831109202    21.387033135   0   0   0 # c2
    156      1   2 -0.106000     4.074675621    12.934903114    22.620902750   0   0   0 # c2
    157      1   2 -0.106000     0.259534179    16.422207800    21.336707205   0   0   0 # c2
    158      1   2 -0.106000     4.257170151    -0.631745370    22.650125555   0   0   0 # c2
    159      1   2 -0.106000     0.303765292    15.596301169    20.067705910   0   0   0 # c2
    160      1   2 -0.106000     4.059581498    12.998303441    20.115700447   0   0   0 # c2
    161      1   2 -0.106000     4.231375206    -0.496809117    20.136200626   0   0   0 # c2
    162      1   2 -0.106000    -3.816977214     4.869818876     4.877475013   0   0   0 # c2
    163      1   2 -0.106000    -3.874184252     4.795917534     7.432400300   0   0   0 # c2
    164      1   2 -0.106000    -3.768666608     5.655208790     6.173568702   0   0   0 # c2
    165      1   2 -0.106000    -3.829137240     1.352803127     6.212237667   0   0   0 # c2
    166      1   2 -0.106000    -3.786035832     5.794714597     3.670938970   0   0   0 # c2
    167      1   2 -0.106000     7.836077594     2.286407881    10.025994553   0   0   0 # c2
    168      1   2 -0.106000    -3.853159175     1.287306181     8.751325561   0   0   0 # c2
    169      1   2 -0.106000     7.932573283     3.213005985     6.204881721   0   0   0 # c2
    170      1   2 -0.106000     7.860680072     2.436002547     4.891784942   0   0   0 # c2
    171      1   2 -0.106000     7.886678992     3.310704850     3.633475897   0   0   0 # c2
    172      1   2 -0.106000    -3.829607950     5.643310029     8.708556560   0   0   0 # c2
    173      1   2 -0.106000    -3.850146626     4.851307701    10.021492553   0   0   0 # c2
    174      1   2 -0.106000     7.856584889     2.331207434     7.451895568   0   0   0 # c2
    175      1   2 -0.106000    -3.851135119     0.440612559    10.026557303   0   0   0 # c2
    176      1   2 -0.106000     7.928776217     3.132510150     8.753295186   0   0   0 # c2
    177      1   2 -0.106000    -3.937196721     1.393212323     3.682354756   0   0   0 # c2
    178      1   2 -0.106000    -3.852861058     0.521305513     4.935719640   0   0   0 # c2
    179      1   2 -0.106000    -3.835099575     0.471416731     7.454749515   0   0   0 # c2
    180      1   2 -0.106000    -3.725988839     5.006815907    17.592409750   0   0   0 # c2
    181      1   2 -0.106000    -3.684221112     1.285406680    18.927694958   0   0   0 # c2
    182      1   2 -0.106000     7.951872421     2.290708638    12.528905660   0   0   0 # c2
    183      1   2 -0.106000    -3.828352722     5.774716077    11.245996400   0   0   0 # c2
    184      1   2 -0.106000    -3.849456251     4.995311382    12.562911839   0   0   0 # c2
    185      1   2 -0.106000    -3.744346556     5.002801867    15.065019018   0   0   0 # c2
    186      1   2 -0.106000     7.960580568     2.238006445    15.060115053   0   0   0 # c2
    187      1   2 -0.106000    -3.809006513     5.837507129    18.861933599   0   0   0 # c2
    188      1   2 -0.106000    -3.730758708     0.461005315    17.644825895   0   0   0 # c2
    189      1   2 -0.106000    -3.767678115     4.954203313    20.100425804   0   0   0 # c2
    190      1   2 -0.106000     8.070773939     3.108318391    18.856426688   0   0   0 # c2
    191      1   2 -0.106000    -3.791605908     0.430505780    12.583130644   0   0   0 # c2
    192      1   2 -0.106000     7.916380836     2.268219263    17.593816625   0   0   0 # c2
    193      1   2 -0.106000    -3.866966688     1.325009485    16.390295315   0   0   0 # c2
    194      1   2 -0.106000     8.030481104     3.102315251    13.808800187   0   0   0 # c2
    195      1   2 -0.106000     8.034874404     3.090111853    16.322805509   0   0   0 # c2
    196      1   2 -0.106000    -3.818452107     0.488816877    15.115425341   0   0   0 # c2
    197      1   2 -0.106000    -3.778881029     5.842614278    16.330322241   0   0   0 # c2
    198      1   2 -0.106000    -3.815282655     1.307304701    13.829621938   0   0   0 # c2
    199      1   2 -0.106000     7.884670626     3.152813307    11.280404544   0   0   0 # c2
    200      1   2 -0.106000    -3.817212569     1.270103153    11.308421455   0   0   0 # c2
    201      1   2 -0.106000    -3.826187453     5.860605779    13.808719794   0   0   0 # c2
    202      1   2 -0.106000     8.067777081     2.240013465    20.117509286   0   0   0 # c2
    203      1   2 -0.106000    -3.631077876     0.457116714    22.744828344   0   0   0 # c2
    204      1   2 -0.106000     7.921872460     2.268004225    22.681518967   0   0   0 # c2
    205      1   2 -0.106000    -3.707285935     1.278704667    21.460512209   0   0   0 # c2
    206      1   2 -0.106000     8.155878430     3.067514959    21.403433279   0   0   0 # c2
    207      1   2 -0.106000    -3.726098672     4.882506109    22.672313984   0   0   0 # c2
    208      1   2 -0.106000    -3.763614313     5.742603757    21.404116618   0   0   0 # c2
    209      1   2 -0.106000    -3.735136317     0.435111174    20.197098218   0   0   0 # c2
    210      1   2 -0.106000     7.859974006    11.378512901     4.907823317   0   0   0 # c2
    211      1   2 -0.106000     7.994675712     6.857610860     4.895040853   0   0   0 # c2
    212      1   2 -0.106000     7.964173660     6.843507961     7.430511068   0   0   0 # c2
    213      1   2 -0.106000     7.911375612     6.767312882     9.989536391   0   0   0 # c2
    214      1   2 -0.106000     7.909273104    11.285616549     7.430269889   0   0   0 # c2
    215      1   2 -0.106000     7.852175899    11.273018915     9.947289943   0   0   0 # c2
    216      1   2 -0.106000     7.910481262     7.694914496     6.169106898   0   0   0 # c2
    217      1   2 -0.106000    -3.841328646     9.378410000     9.953600782   0   0   0 # c2
    218      1   2 -0.106000    -3.975606713     9.594702239     4.908506657   0   0   0 # c2
    219      1   2 -0.106000    -4.069466423    10.445015665     3.644007362   0   0   0 # c2
    220      1   2 -0.106000    -3.830878869    10.293216862     8.732473435   0   0   0 # c2
    221      1   2 -0.106000    -3.907965588     9.500211023     7.429224782   0   0   0 # c2
    222      1   2 -0.106000     7.929576425     7.739212293     3.655061380   0   0   0 # c2
    223      1   2 -0.106000     8.022180906     7.642606538     8.738020543   0   0   0 # c2
    224      1   2 -0.106000    -3.943676838    10.405215743     6.207856256   0   0   0 # c2
    225      1   2 -0.106000    -3.765214729    10.291908715    18.821616580   0   0   0 # c2
    226      1   2 -0.106000    -3.840465677    10.187113602    11.239605167   0   0   0 # c2
    227      1   2 -0.106000     7.892484423     7.564314841    18.914309547   0   0   0 # c2
    228      1   2 -0.106000    -3.828101676    10.242503768    16.274529596   0   0   0 # c2
    229      1   2 -0.106000     7.887777317     6.697013424    15.095126144   0   0   0 # c2
    230      1   2 -0.106000    -3.868221916     9.350007083    12.506114284   0   0   0 # c2
    231      1   2 -0.106000     7.907076454    11.219205692    12.476931676   0   0   0 # c2
    232      1   2 -0.106000     7.888373550     6.691906275    17.658613270   0   0   0 # c2
    233      1   2 -0.106000    -3.892934227    10.223419159    13.742315292   0   0   0 # c2
    234      1   2 -0.106000     7.939979131     7.519909524    16.382698189   0   0   0 # c2
    235      1   2 -0.106000     7.926673709     6.761614379    12.573724679   0   0   0 # c2
    236      1   2 -0.106000     7.941281431     7.587503089    11.283218294   0   0   0 # c2
    237      1   2 -0.106000    -3.824587036     9.384502739    15.011316587   0   0   0 # c2
    238      1   2 -0.106000     8.030779221    11.206715577    17.586621464   0   0   0 # c2
    239      1   2 -0.106000     7.985481163     7.581410350    13.861618296   0   0   0 # c2
    240      1   2 -0.106000     7.964581609    11.159909004    15.025023570   0   0   0 # c2
    241      1   2 -0.106000    -3.863452048     9.436918215    17.565719321   0   0   0 # c2
    242      1   2 -0.106000     8.026276089    11.212718717    20.122614233   0   0   0 # c2
    243      1   2 -0.106000     7.941077456     6.737512219    22.764524595   0   0   0 # c2
    244      1   2 -0.106000    -3.743562038    10.215319400    21.366532956   0   0   0 # c2
    245      1   2 -0.106000    -3.663117583     9.338807195    22.621023340   0   0   0 # c2
    246      1   2 -0.106000     7.857777356     7.595907485    21.506094961   0   0   0 # c2
    247      1   2 -0.106000    -3.761009714     9.412708537    20.072730463   0   0   0 # c2
    248      1   2 -0.106000     7.885376692     6.757313622    20.224230808   0   0   0 # c2
    249      1   2 -0.106000     7.820277405    12.184205973     3.610161968   0   0   0 # c2
    250      1   2 -0.106000    -3.901485471    14.876211082     6.220116167   0   0   0 # c2
    251      1   2 -0.106000    -3.799937487    13.987405881     7.462788801   0   0   0 # c2
    252      1   2 -0.106000    -3.933917437    14.130818208     4.888971192   0   0   0 # c2
    253      1   2 -0.106000    -3.842615255    14.809316391     8.744250989   0   0   0 # c2
    254      1   2 -0.106000     7.877076494    16.695413391     6.185306059   0   0   0 # c2
    255      1   2 -0.106000     7.775685413    15.876818047     4.901030121   0   0   0 # c2
    256      1   2 -0.106000     7.796380993    16.734102284     3.634159236   0   0   0 # c2
    257      1   2 -0.106000    -4.011678841    15.050302143     3.660769273   0   0   0 # c2
    258      1   2 -0.106000     7.952170538    12.123905775     8.696135863   0   0   0 # c2
    259      1   2 -0.106000     7.865685295    16.680306981     8.710043827   0   0   0 # c2
    260      1   2 -0.106000     7.813373648    15.839419381     7.447956318   0   0   0 # c2