 vasp.5.4.4.18Apr17-6-g9f103f2a35 (build Sep 16 2021 13:51:27) complex          
  
 executed on             LinuxIFC date 2023.03.16  12:57:39
 running on   24 total cores
 distrk:  each k-point on   24 cores,    1 groups
 distr:  one band on NCORES_PER_BAND=  24 cores,    1 groups


--------------------------------------------------------------------------------------------------------


 INCAR:
 POTCAR:    PAW_PBE Sn 08Apr2002                  
 POTCAR:    PAW_PBE Se 06Sep2000                  

 ----------------------------------------------------------------------------- 
|                                                                             |
|           W    W    AA    RRRRR   N    N  II  N    N   GGGG   !!!           |
|           W    W   A  A   R    R  NN   N  II  NN   N  G    G  !!!           |
|           W    W  A    A  R    R  N N  N  II  N N  N  G       !!!           |
|           W WW W  AAAAAA  RRRRR   N  N N  II  N  N N  G  GGG   !            |
|           WW  WW  A    A  R   R   N   NN  II  N   NN  G    G                |
|           W    W  A    A  R    R  N    N  II  N    N   GGGG   !!!           |
|                                                                             |
|      For optimal performance we recommend to set                            |
|        NCORE= 4 - approx SQRT( number of cores)                             |
|      NCORE specifies how many cores store one orbital (NPAR=cpu/NCORE).     |
|      This setting can  greatly improve the performance of VASP for DFT.     |
|      The default,   NCORE=1            might be grossly inefficient         |
|      on modern multi-core architectures or massively parallel machines.     |
|      Do your own testing !!!!                                               |
|      Unfortunately you need to use the default for GW and RPA calculations. |
|      (for HF NCORE is supported but not extensively tested yet)             |
|                                                                             |
 ----------------------------------------------------------------------------- 

 POTCAR:    PAW_PBE Sn 08Apr2002                  
   VRHFIN =Sn: s2p2                                                             
   LEXCH  = PE                                                                  
   EATOM  =    94.0860 eV,    6.9151 Ry                                         
                                                                                
   TITEL  = PAW_PBE Sn 08Apr2002                                                
   LULTRA =        F    use ultrasoft PP ?                                      
   IUNSCR =        1    unscreen: 0-lin 1-nonlin 2-no                           
   RPACOR =    2.000    partial core radius                                     
   POMASS =  118.710; ZVAL   =    4.000    mass and valenz                      
   RCORE  =    3.000    outmost cutoff radius                                   
   RWIGS  =    2.960; RWIGS  =    1.566    wigner-seitz radius (au A)           
   ENMAX  =  103.236; ENMIN  =   77.427 eV                                      
   ICORE  =        3    local potential                                         
   LCOR   =        T    correct aug charges                                     
   LPAW   =        T    paw PP                                                  
   EAUG   =  263.585                                                            
   DEXC   =    0.000                                                            
   RMAX   =    3.078    core radius for proj-oper                               
   RAUG   =    1.300    factor for augmentation sphere                          
   RDEP   =    3.022    radius for radial grids                                 
   RDEPT  =    2.655    core radius for aug-charge                              
                                                                                
   Atomic configuration                                                         
   13 entries                                                                   
     n  l   j            E        occ.                                          
     1  0  0.50    -29007.2859   2.0000                                         
     2  0  0.50     -4378.8056   2.0000                                         
     2  1  1.50     -3930.4293   6.0000                                         
     3  0  0.50      -845.0264   2.0000                                         
     3  1  1.50      -698.5725   6.0000                                         
     3  2  2.50      -473.2839  10.0000                                         
     4  0  0.50      -133.9036   2.0000                                         
     4  1  1.50       -89.6752   6.0000                                         
     4  2  2.50       -25.8375  10.0000                                         
     5  0  0.50       -10.5484   2.0000                                         
     5  1  0.50        -3.6940   2.0000                                         
     5  2  1.50        -1.3606   0.0000                                         
     4  3  2.50        -4.0817   0.0000                                         
   Description                                                                  
     l       E           TYP  RCUT    TYP  RCUT                                 
     0    -10.5483727     23  3.000                                             
     0     27.2116520     23  3.000                                             
     1     -3.6939829     23  3.000                                             
     1      1.9821976     23  3.000                                             
     2     -1.3605826     23  3.000                                             
     3     -2.7211652     23  3.000                                             
  local pseudopotential read in
  partial core-charges read in
  partial kinetic energy density read in
  atomic valenz-charges read in
  non local Contribution for L=           0  read in
    real space projection operators read in
  non local Contribution for L=           0  read in
    real space projection operators read in
  non local Contribution for L=           1  read in
    real space projection operators read in
  non local Contribution for L=           1  read in
    real space projection operators read in
  non local Contribution for L=           2  read in
    real space projection operators read in
    PAW grid and wavefunctions read in
 
   number of l-projection  operators is LMAX  =           5
   number of lm-projection operators is LMMAX =          13
 
 POTCAR:    PAW_PBE Se 06Sep2000                  
   VRHFIN =Se: s2p4                                                             
   LEXCH  = PE                                                                  
   EATOM  =   257.1286 eV,   18.8984 Ry                                         
                                                                                
   TITEL  = PAW_PBE Se 06Sep2000                                                
   LULTRA =        F    use ultrasoft PP ?                                      
   IUNSCR =        1    unscreen: 0-lin 1-nonlin 2-no                           
   RPACOR =    1.900    partial core radius                                     
   POMASS =   78.960; ZVAL   =    6.000    mass and valenz                      
   RCORE  =    2.100    outmost cutoff radius                                   
   RWIGS  =    2.200; RWIGS  =    1.164    wigner-seitz radius (au A)           
   ENMAX  =  211.555; ENMIN  =  158.666 eV                                      
   ICORE  =        3    local potential                                         
   LCOR   =        T    correct aug charges                                     
   LPAW   =        T    paw PP                                                  
   EAUG   =  446.842                                                            
   DEXC   =    0.000                                                            
   RMAX   =    2.147    core radius for proj-oper                               
   RAUG   =    1.300    factor for augmentation sphere                          
   RDEP   =    2.177    radius for radial grids                                 
   RDEPT  =    1.928    core radius for aug-charge                              
                                                                                
   Atomic configuration                                                         
   10 entries                                                                   
     n  l   j            E        occ.                                          
     1  0  0.50    -12503.4787   2.0000                                         
     2  0  0.50     -1606.9547   2.0000                                         
     2  1  1.50     -1413.3140   6.0000                                         
     3  0  0.50      -213.4885   2.0000                                         
     3  1  1.50      -152.9538   6.0000                                         
     3  2  2.50       -53.1221  10.0000                                         
     4  0  0.50       -17.2865   2.0000                                         
     4  1  0.50        -6.5110   4.0000                                         
     4  2  2.50        -6.8029   0.0000                                         
     4  3  2.50        -6.8029   0.0000                                         
   Description                                                                  
     l       E           TYP  RCUT    TYP  RCUT                                 
     0    -17.2865377     23  2.100                                             
     0    -15.3094411     23  2.100                                             
     1     -6.5110275     23  2.100                                             
     1     -0.0695192     23  2.100                                             
     2     -6.8029130     23  2.100                                             
     3     -1.3605826      7  2.100                                             
  local pseudopotential read in
  partial core-charges read in
  partial kinetic energy density read in
  atomic valenz-charges read in
  non local Contribution for L=           0  read in
    real space projection operators read in
  non local Contribution for L=           0  read in
    real space projection operators read in
  non local Contribution for L=           1  read in
    real space projection operators read in
  non local Contribution for L=           1  read in
    real space projection operators read in
  non local Contribution for L=           2  read in
    real space projection operators read in
    PAW grid and wavefunctions read in
 
   number of l-projection  operators is LMAX  =           5
   number of lm-projection operators is LMMAX =          13
 
 WARNING: PSMAXN for non-local potential too small
          PSMAXN should be >   12.5490833729506       NTYP=           1
  PAW_PBE Sn 08Apr2002                  :
 energy of atom  1       EATOM=  -94.0860
 kinetic energy error for atom=    0.0000 (will be added to EATOM!!)
  PAW_PBE Se 06Sep2000                  :
 energy of atom  2       EATOM= -257.1286
 kinetic energy error for atom=    0.0006 (will be added to EATOM!!)
 
 
 POSCAR:  POSCAR with strain of -0.005           
  positions in direct lattice
  No initial velocities read in
 exchange correlation table for  LEXCH =        8
   RHO(1)=    0.500       N(1)  =     2000
   RHO(2)=  100.500       N(2)  =     4000
 


--------------------------------------------------------------------------------------------------------


 ion  position               nearest neighbor table
   1  0.581  0.750  0.569-   4 2.72   3 2.91   3 2.91   3 3.21   3 3.21
   2  0.081  0.250  0.431-   3 2.72   4 2.91   4 2.91   4 3.21   4 3.21
   3  0.033  0.250  0.567-   2 2.72   1 2.91   1 2.91   1 3.21   1 3.21
   4  0.533  0.750  0.433-   1 2.72   2 2.91   2 2.91   2 3.21   2 3.21
 

IMPORTANT INFORMATION: All symmetrisations will be switched off!
NOSYMM: (Re-)initialisation of all symmetry stuff for point group C_1.

 
 
 KPOINTS: KMesh Grid                              

Automatic generation of k-mesh.
Space group operators:
 irot       det(A)        alpha          n_x          n_y          n_z        tau_x        tau_y        tau_z
    1     1.000000     0.000001     1.000000     0.000000     0.000000     0.000000     0.000000     0.000000
 
 Subroutine IBZKPT returns following result:
 ===========================================
 
 Found    113 irreducible k-points:
 
 Following reciprocal coordinates:
            Coordinates               Weight
  0.000000  0.000000  0.000000      1.000000
  0.066667  0.000000  0.000000      2.000000
  0.133333  0.000000  0.000000      2.000000
  0.200000  0.000000  0.000000      2.000000
  0.266667  0.000000  0.000000      2.000000
  0.333333  0.000000  0.000000      2.000000
  0.400000  0.000000  0.000000      2.000000
  0.466667  0.000000  0.000000      2.000000
  0.000000  0.066667  0.000000      2.000000
  0.066667  0.066667  0.000000      2.000000
  0.133333  0.066667  0.000000      2.000000
  0.200000  0.066667  0.000000      2.000000
  0.266667  0.066667  0.000000      2.000000
  0.333333  0.066667  0.000000      2.000000
  0.400000  0.066667  0.000000      2.000000
  0.466667  0.066667  0.000000      2.000000
 -0.466667  0.066667  0.000000      2.000000
 -0.400000  0.066667  0.000000      2.000000
 -0.333333  0.066667  0.000000      2.000000
 -0.266667  0.066667  0.000000      2.000000
 -0.200000  0.066667  0.000000      2.000000
 -0.133333  0.066667  0.000000      2.000000
 -0.066667  0.066667  0.000000      2.000000
  0.000000  0.133333  0.000000      2.000000
  0.066667  0.133333  0.000000      2.000000
  0.133333  0.133333  0.000000      2.000000
  0.200000  0.133333  0.000000      2.000000
  0.266667  0.133333  0.000000      2.000000
  0.333333  0.133333  0.000000      2.000000
  0.400000  0.133333  0.000000      2.000000
  0.466667  0.133333  0.000000      2.000000
 -0.466667  0.133333  0.000000      2.000000
 -0.400000  0.133333  0.000000      2.000000
 -0.333333  0.133333  0.000000      2.000000
 -0.266667  0.133333  0.000000      2.000000
 -0.200000  0.133333  0.000000      2.000000
 -0.133333  0.133333  0.000000      2.000000
 -0.066667  0.133333  0.000000      2.000000
  0.000000  0.200000  0.000000      2.000000
  0.066667  0.200000  0.000000      2.000000
  0.133333  0.200000  0.000000      2.000000
  0.200000  0.200000  0.000000      2.000000
  0.266667  0.200000  0.000000      2.000000
  0.333333  0.200000  0.000000      2.000000
  0.400000  0.200000  0.000000      2.000000
  0.466667  0.200000  0.000000      2.000000
 -0.466667  0.200000  0.000000      2.000000
 -0.400000  0.200000  0.000000      2.000000
 -0.333333  0.200000  0.000000      2.000000
 -0.266667  0.200000  0.000000      2.000000
 -0.200000  0.200000  0.000000      2.000000
 -0.133333  0.200000  0.000000      2.000000
 -0.066667  0.200000  0.000000      2.000000
  0.000000  0.266667  0.000000      2.000000
  0.066667  0.266667  0.000000      2.000000
  0.133333  0.266667  0.000000      2.000000
  0.200000  0.266667  0.000000      2.000000
  0.266667  0.266667  0.000000      2.000000
  0.333333  0.266667  0.000000      2.000000
  0.400000  0.266667  0.000000      2.000000
  0.466667  0.266667  0.000000      2.000000
 -0.466667  0.266667  0.000000      2.000000
 -0.400000  0.266667  0.000000      2.000000
 -0.333333  0.266667  0.000000      2.000000
 -0.266667  0.266667  0.000000      2.000000
 -0.200000  0.266667  0.000000      2.000000
 -0.133333  0.266667  0.000000      2.000000
 -0.066667  0.266667  0.000000      2.000000
  0.000000  0.333333  0.000000      2.000000
  0.066667  0.333333  0.000000      2.000000
  0.133333  0.333333  0.000000      2.000000
  0.200000  0.333333  0.000000      2.000000
  0.266667  0.333333  0.000000      2.000000
  0.333333  0.333333  0.000000      2.000000
  0.400000  0.333333  0.000000      2.000000
  0.466667  0.333333  0.000000      2.000000
 -0.466667  0.333333  0.000000      2.000000
 -0.400000  0.333333  0.000000      2.000000
 -0.333333  0.333333  0.000000      2.000000
 -0.266667  0.333333  0.000000      2.000000
 -0.200000  0.333333  0.000000      2.000000
 -0.133333  0.333333  0.000000      2.000000
 -0.066667  0.333333  0.000000      2.000000
  0.000000  0.400000  0.000000      2.000000
  0.066667  0.400000  0.000000      2.000000
  0.133333  0.400000  0.000000      2.000000
  0.200000  0.400000  0.000000      2.000000
  0.266667  0.400000  0.000000      2.000000
  0.333333  0.400000  0.000000      2.000000
  0.400000  0.400000  0.000000      2.000000
  0.466667  0.400000  0.000000      2.000000
 -0.466667  0.400000  0.000000      2.000000
 -0.400000  0.400000  0.000000      2.000000
 -0.333333  0.400000  0.000000      2.000000
 -0.266667  0.400000  0.000000      2.000000
 -0.200000  0.400000  0.000000      2.000000
 -0.133333  0.400000  0.000000      2.000000
 -0.066667  0.400000  0.000000      2.000000
  0.000000  0.466667  0.000000      2.000000
  0.066667  0.466667  0.000000      2.000000
  0.133333  0.466667  0.000000      2.000000
  0.200000  0.466667  0.000000      2.000000
  0.266667  0.466667  0.000000      2.000000
  0.333333  0.466667  0.000000      2.000000
  0.400000  0.466667  0.000000      2.000000
  0.466667  0.466667  0.000000      2.000000
 -0.466667  0.466667  0.000000      2.000000
 -0.400000  0.466667  0.000000      2.000000
 -0.333333  0.466667  0.000000      2.000000
 -0.266667  0.466667  0.000000      2.000000
 -0.200000  0.466667  0.000000      2.000000
 -0.133333  0.466667  0.000000      2.000000
 -0.066667  0.466667  0.000000      2.000000
 
 Following cartesian coordinates:
            Coordinates               Weight
  0.000000  0.000000  0.000000      1.000000
  0.015289  0.000000  0.000000      2.000000
  0.030578  0.000000  0.000000      2.000000
  0.045867  0.000000  0.000000      2.000000
  0.061156  0.000000  0.000000      2.000000
  0.076445  0.000000  0.000000      2.000000
  0.091734  0.000000  0.000000      2.000000
  0.107023  0.000000  0.000000      2.000000
  0.000000  0.015531  0.000000      2.000000
  0.015289  0.015531  0.000000      2.000000
  0.030578  0.015531  0.000000      2.000000
  0.045867  0.015531  0.000000      2.000000
  0.061156  0.015531  0.000000      2.000000
  0.076445  0.015531  0.000000      2.000000
  0.091734  0.015531  0.000000      2.000000
  0.107023  0.015531  0.000000      2.000000
 -0.107023  0.015531  0.000000      2.000000
 -0.091734  0.015531  0.000000      2.000000
 -0.076445  0.015531  0.000000      2.000000
 -0.061156  0.015531  0.000000      2.000000
 -0.045867  0.015531  0.000000      2.000000
 -0.030578  0.015531  0.000000      2.000000
 -0.015289  0.015531  0.000000      2.000000
  0.000000  0.031062  0.000000      2.000000
  0.015289  0.031062  0.000000      2.000000
  0.030578  0.031062  0.000000      2.000000
  0.045867  0.031062  0.000000      2.000000
  0.061156  0.031062  0.000000      2.000000
  0.076445  0.031062  0.000000      2.000000
  0.091734  0.031062  0.000000      2.000000
  0.107023  0.031062  0.000000      2.000000
 -0.107023  0.031062  0.000000      2.000000
 -0.091734  0.031062  0.000000      2.000000
 -0.076445  0.031062  0.000000      2.000000
 -0.061156  0.031062  0.000000      2.000000
 -0.045867  0.031062  0.000000      2.000000
 -0.030578  0.031062  0.000000      2.000000
 -0.015289  0.031062  0.000000      2.000000
  0.000000  0.046593  0.000000      2.000000
  0.015289  0.046593  0.000000      2.000000
  0.030578  0.046593  0.000000      2.000000
  0.045867  0.046593  0.000000      2.000000
  0.061156  0.046593  0.000000      2.000000
  0.076445  0.046593  0.000000      2.000000
  0.091734  0.046593  0.000000      2.000000
  0.107023  0.046593  0.000000      2.000000
 -0.107023  0.046593  0.000000      2.000000
 -0.091734  0.046593  0.000000      2.000000
 -0.076445  0.046593  0.000000      2.000000
 -0.061156  0.046593  0.000000      2.000000
 -0.045867  0.046593  0.000000      2.000000
 -0.030578  0.046593  0.000000      2.000000
 -0.015289  0.046593  0.000000      2.000000
  0.000000  0.062124  0.000000      2.000000
  0.015289  0.062124  0.000000      2.000000
  0.030578  0.062124  0.000000      2.000000
  0.045867  0.062124  0.000000      2.000000
  0.061156  0.062124  0.000000      2.000000
  0.076445  0.062124  0.000000      2.000000
  0.091734  0.062124  0.000000      2.000000
  0.107023  0.062124  0.000000      2.000000
 -0.107023  0.062124  0.000000      2.000000
 -0.091734  0.062124  0.000000      2.000000
 -0.076445  0.062124  0.000000      2.000000
 -0.061156  0.062124  0.000000      2.000000
 -0.045867  0.062124  0.000000      2.000000
 -0.030578  0.062124  0.000000      2.000000
 -0.015289  0.062124  0.000000      2.000000
  0.000000  0.077655  0.000000      2.000000
  0.015289  0.077655  0.000000      2.000000
  0.030578  0.077655  0.000000      2.000000
  0.045867  0.077655  0.000000      2.000000
  0.061156  0.077655  0.000000      2.000000
  0.076445  0.077655  0.000000      2.000000
  0.091734  0.077655  0.000000      2.000000
  0.107023  0.077655  0.000000      2.000000
 -0.107023  0.077655  0.000000      2.000000
 -0.091734  0.077655  0.000000      2.000000
 -0.076445  0.077655  0.000000      2.000000
 -0.061156  0.077655  0.000000      2.000000
 -0.045867  0.077655  0.000000      2.000000
 -0.030578  0.077655  0.000000      2.000000
 -0.015289  0.077655  0.000000      2.000000
  0.000000  0.093186  0.000000      2.000000
  0.015289  0.093186  0.000000      2.000000
  0.030578  0.093186  0.000000      2.000000
  0.045867  0.093186  0.000000      2.000000
  0.061156  0.093186  0.000000      2.000000
  0.076445  0.093186  0.000000      2.000000
  0.091734  0.093186  0.000000      2.000000
  0.107023  0.093186  0.000000      2.000000
 -0.107023  0.093186  0.000000      2.000000
 -0.091734  0.093186  0.000000      2.000000
 -0.076445  0.093186  0.000000      2.000000
 -0.061156  0.093186  0.000000      2.000000
 -0.045867  0.093186  0.000000      2.000000
 -0.030578  0.093186  0.000000      2.000000
 -0.015289  0.093186  0.000000      2.000000
  0.000000  0.108717  0.000000      2.000000
  0.015289  0.108717  0.000000      2.000000
  0.030578  0.108717  0.000000      2.000000
  0.045867  0.108717  0.000000      2.000000
  0.061156  0.108717  0.000000      2.000000
  0.076445  0.108717  0.000000      2.000000
  0.091734  0.108717  0.000000      2.000000
  0.107023  0.108717  0.000000      2.000000
 -0.107023  0.108717  0.000000      2.000000
 -0.091734  0.108717  0.000000      2.000000
 -0.076445  0.108717  0.000000      2.000000
 -0.061156  0.108717  0.000000      2.000000
 -0.045867  0.108717  0.000000      2.000000
 -0.030578  0.108717  0.000000      2.000000
 -0.015289  0.108717  0.000000      2.000000
 


--------------------------------------------------------------------------------------------------------




 Dimension of arrays:
   k-points           NKPTS =    113   k-points in BZ     NKDIM =    113   number of bands    NBANDS=     14
   number of dos      NEDOS =    301   number of ions     NIONS =      4
   non local maximal  LDIM  =      5   non local SUM 2l+1 LMDIM =     13
   total plane-waves  NPLWV = 207360
   max r-space proj   IRMAX =      1   max aug-charges    IRDMAX=  53514
   dimension x,y,z NGX =    36 NGY =   36 NGZ =  160
   dimension x,y,z NGXF=    72 NGYF=   72 NGZF=  320
   support grid    NGXF=    72 NGYF=   72 NGZF=  320
   ions per type =               2   2
   NGX,Y,Z   is equivalent  to a cutoff of  13.73, 13.94, 13.30 a.u.
   NGXF,Y,Z  is equivalent  to a cutoff of  27.45, 27.89, 26.60 a.u.

 SYSTEM =  SnSe                                    
 POSCAR =   POSCAR with strain of -0.005           

 Startparameter for this run:
   NWRITE =      2    write-flag & timer
   PREC   = accura    normal or accurate (medium, high low for compatibility)
   ISTART =      0    job   : 0-new  1-cont  2-samecut
   ICHARG =      2    charge: 1-file 2-atom 10-const
   ISPIN  =      1    spin polarized calculation?
   LNONCOLLINEAR =      F non collinear calculations
   LSORBIT =      F    spin-orbit coupling
   INIWAV =      1    electr: 0-lowe 1-rand  2-diag
   LASPH  =      F    aspherical Exc in radial PAW
   METAGGA=      F    non-selfconsistent MetaGGA calc.

 Electronic Relaxation 1
   ENCUT  =  600.0 eV  44.10 Ry    6.64 a.u.   8.71  8.57 39.94*2*pi/ulx,y,z
   ENINI  =  600.0     initial cutoff
   ENAUG  =  446.8 eV  augmentation charge cutoff
   NELM   =     60;   NELMIN=  2; NELMDL= -5     # of ELM steps 
   EDIFF  = 0.1E-05   stopping-criterion for ELM
   LREAL  =      F    real-space projection
   NLSPLINE    = F    spline interpolate recip. space projectors
   LCOMPAT=      F    compatible to vasp.4.4
   GGA_COMPAT  = T    GGA compatible to vasp.4.4-vasp.4.6
   LMAXPAW     = -100 max onsite density
   LMAXMIX     =    2 max onsite mixed and CHGCAR
   VOSKOWN=      0    Vosko Wilk Nusair interpolation
   ROPT   =    0.00000   0.00000
 Ionic relaxation
   EDIFFG = -.1E-02   stopping-criterion for IOM
   NSW    =    100    number of steps for IOM
   NBLOCK =      1;   KBLOCK =    100    inner block; outer block 
   IBRION =      2    ionic relax: 0-MD 1-quasi-New 2-CG
   NFREE  =      1    steps in history (QN), initial steepest desc. (CG)
   ISIF   =      2    stress and relaxation
   IWAVPR =     11    prediction:  0-non 1-charg 2-wave 3-comb
   ISYM   =      0    0-nonsym 1-usesym 2-fastsym
   LCORR  =      T    Harris-Foulkes like correction to forces

   POTIM  = 0.5000    time-step for ionic-motion
   TEIN   =    0.0    initial temperature
   TEBEG  =    0.0;   TEEND  =   0.0 temperature during run
   SMASS  =  -3.00    Nose mass-parameter (am)
   estimated Nose-frequenzy (Omega)   =  0.10E-29 period in steps =****** mass=  -0.435E-27a.u.
   SCALEE = 1.0000    scale energy and forces
   NPACO  =    256;   APACO  = 16.0  distance and # of slots for P.C.
   PSTRESS=    0.0 pullay stress

  Mass of Ions in am
   POMASS = 118.71 78.96
  Ionic Valenz
   ZVAL   =   4.00  6.00
  Atomic Wigner-Seitz radii
   RWIGS  =  -1.00 -1.00
  virtual crystal weights 
   VCA    =   1.00  1.00
   NELECT =      20.0000    total number of electrons
   NUPDOWN=      -1.0000    fix difference up-down

 DOS related values:
   EMIN   =  10.00;   EMAX   =-10.00  energy-range for DOS
   EFERMI =   0.00
   ISMEAR =     0;   SIGMA  =   0.10  broadening in eV -4-tet -1-fermi 0-gaus

 Electronic relaxation 2 (details)
   IALGO  =     38    algorithm
   LDIAG  =      T    sub-space diagonalisation (order eigenvalues)
   LSUBROT=      F    optimize rotation matrix (better conditioning)
   TURBO    =      0    0=normal 1=particle mesh
   IRESTART =      0    0=no restart 2=restart with 2 vectors
   NREBOOT  =      0    no. of reboots
   NMIN     =      0    reboot dimension
   EREF     =   0.00    reference energy to select bands
   IMIX   =      4    mixing-type and parameters
     AMIX     =   0.40;   BMIX     =  1.00
     AMIX_MAG =   1.60;   BMIX_MAG =  1.00
     AMIN     =   0.10
     WC   =   100.;   INIMIX=   1;  MIXPRE=   1;  MAXMIX= -45

 Intra band minimization:
   WEIMIN = 0.0010     energy-eigenvalue tresh-hold
   EBREAK =  0.18E-07  absolut break condition
   DEPER  =   0.30     relativ break condition  

   TIME   =   0.40     timestep for ELM

  volume/ion in A,a.u.               =      93.59       631.55
  Fermi-wavevector in a.u.,A,eV,Ry     =   0.616588  1.165183  5.172677  0.380181
  Thomas-Fermi vector in A             =   1.674370
 
 Write flags
   LWAVE        =      T    write WAVECAR
   LDOWNSAMPLE  =      F    k-point downsampling of WAVECAR
   LCHARG       =      T    write CHGCAR
   LVTOT        =      F    write LOCPOT, total local potential
   LVHAR        =      F    write LOCPOT, Hartree potential only
   LELF         =      F    write electronic localiz. function (ELF)
   LORBIT       =      0    0 simple, 1 ext, 2 COOP (PROOUT), +10 PAW based schemes


 Dipole corrections
   LMONO  =      F    monopole corrections only (constant potential shift)
   LDIPOL =      F    correct potential (dipole corrections)
   IDIPOL =      0    1-x, 2-y, 3-z, 4-all directions 
   EPSILON=  1.0000000 bulk dielectric constant

 Exchange correlation treatment:
   GGA     =    PE    GGA type
   LEXCH   =     8    internal setting for exchange type
   VOSKOWN=      0    Vosko Wilk Nusair interpolation
   LHFCALC =     F    Hartree Fock is set to
   LHFONE  =     F    Hartree Fock one center treatment
   AEXX    =    0.0000 exact exchange contribution

 Linear response parameters
   LEPSILON=     F    determine dielectric tensor
   LRPA    =     F    only Hartree local field effects (RPA)
   LNABLA  =     F    use nabla operator in PAW spheres
   LVEL    =     F    velocity operator in full k-point grid
   LINTERFAST=   F  fast interpolation
   KINTER  =     0    interpolate to denser k-point grid
   CSHIFT  =0.1000    complex shift for real part using Kramers Kronig
   OMEGAMAX=  -1.0    maximum frequency
   DEG_THRESHOLD= 0.2000000E-02 threshold for treating states as degnerate
   RTIME   =   -0.100 relaxation time in fs
  (WPLASMAI=    0.000 imaginary part of plasma frequency in eV, 0.658/RTIME)
   DFIELD  = 0.0000000 0.0000000 0.0000000 field for delta impulse in time
 
 Orbital magnetization related:
   ORBITALMAG=     F  switch on orbital magnetization
   LCHIMAG   =     F  perturbation theory with respect to B field
   DQ        =  0.001000  dq finite difference perturbation B field
   LLRAUG    =     F  two centre corrections for induced B field



--------------------------------------------------------------------------------------------------------


 conjugate gradient relaxation of ions
 charge density and potential will be updated during run
 non-spin polarized calculation
 Variant of blocked Davidson
 Davidson routine will perform the subspace rotation
 perform sub-space diagonalisation
    after iterative eigenvector-optimisation
 modified Broyden-mixing scheme, WC =      100.0
 initial mixing is a Kerker type mixing with AMIX =  0.4000 and BMIX =      1.0000
 Hartree-type preconditioning will be used
 using additional bands            4
 reciprocal scheme for non local part
 use partial core corrections
 calculate Harris-corrections to forces 
   (improved forces if not selfconsistent)
 use gradient corrections 
 use of overlap-Matrix (Vanderbilt PP)
 Gauss-broadening in eV      SIGMA  =   0.10


--------------------------------------------------------------------------------------------------------


  energy-cutoff  :      600.00
  volume of cell :      374.34
      direct lattice vectors                 reciprocal lattice vectors
     4.360444981  0.000000000  0.000000000     0.229334392  0.000000000  0.000000000
     0.000000000  4.292477857  0.000000000     0.000000000  0.232965675  0.000000000
     0.000000000  0.000000000 20.000000000     0.000000000  0.000000000  0.050000000

  length of vectors
     4.360444981  4.292477857 20.000000000     0.229334392  0.232965675  0.050000000


 
 k-points in units of 2pi/SCALE and weight: KMesh Grid                              
   0.00000000  0.00000000  0.00000000       0.004
   0.01528896  0.00000000  0.00000000       0.009
   0.03057792  0.00000000  0.00000000       0.009
   0.04586688  0.00000000  0.00000000       0.009
   0.06115584  0.00000000  0.00000000       0.009
   0.07644480  0.00000000  0.00000000       0.009
   0.09173376  0.00000000  0.00000000       0.009
   0.10702272  0.00000000  0.00000000       0.009
   0.00000000  0.01553104  0.00000000       0.009
   0.01528896  0.01553104  0.00000000       0.009
   0.03057792  0.01553104  0.00000000       0.009
   0.04586688  0.01553104  0.00000000       0.009
   0.06115584  0.01553104  0.00000000       0.009
   0.07644480  0.01553104  0.00000000       0.009
   0.09173376  0.01553104  0.00000000       0.009
   0.10702272  0.01553104  0.00000000       0.009
  -0.10702272  0.01553104  0.00000000       0.009
  -0.09173376  0.01553104  0.00000000       0.009
  -0.07644480  0.01553104  0.00000000       0.009
  -0.06115584  0.01553104  0.00000000       0.009
  -0.04586688  0.01553104  0.00000000       0.009
  -0.03057792  0.01553104  0.00000000       0.009
  -0.01528896  0.01553104  0.00000000       0.009
   0.00000000  0.03106209  0.00000000       0.009
   0.01528896  0.03106209  0.00000000       0.009
   0.03057792  0.03106209  0.00000000       0.009
   0.04586688  0.03106209  0.00000000       0.009
   0.06115584  0.03106209  0.00000000       0.009
   0.07644480  0.03106209  0.00000000       0.009
   0.09173376  0.03106209  0.00000000       0.009
   0.10702272  0.03106209  0.00000000       0.009
  -0.10702272  0.03106209  0.00000000       0.009
  -0.09173376  0.03106209  0.00000000       0.009
  -0.07644480  0.03106209  0.00000000       0.009
  -0.06115584  0.03106209  0.00000000       0.009
  -0.04586688  0.03106209  0.00000000       0.009
  -0.03057792  0.03106209  0.00000000       0.009
  -0.01528896  0.03106209  0.00000000       0.009
   0.00000000  0.04659313  0.00000000       0.009
   0.01528896  0.04659313  0.00000000       0.009
   0.03057792  0.04659313  0.00000000       0.009
   0.04586688  0.04659313  0.00000000       0.009
   0.06115584  0.04659313  0.00000000       0.009
   0.07644480  0.04659313  0.00000000       0.009
   0.09173376  0.04659313  0.00000000       0.009
   0.10702272  0.04659313  0.00000000       0.009
  -0.10702272  0.04659313  0.00000000       0.009
  -0.09173376  0.04659313  0.00000000       0.009
  -0.07644480  0.04659313  0.00000000       0.009
  -0.06115584  0.04659313  0.00000000       0.009
  -0.04586688  0.04659313  0.00000000       0.009
  -0.03057792  0.04659313  0.00000000       0.009
  -0.01528896  0.04659313  0.00000000       0.009
   0.00000000  0.06212418  0.00000000       0.009
   0.01528896  0.06212418  0.00000000       0.009
   0.03057792  0.06212418  0.00000000       0.009
   0.04586688  0.06212418  0.00000000       0.009
   0.06115584  0.06212418  0.00000000       0.009
   0.07644480  0.06212418  0.00000000       0.009
   0.09173376  0.06212418  0.00000000       0.009
   0.10702272  0.06212418  0.00000000       0.009
  -0.10702272  0.06212418  0.00000000       0.009
  -0.09173376  0.06212418  0.00000000       0.009
  -0.07644480  0.06212418  0.00000000       0.009
  -0.06115584  0.06212418  0.00000000       0.009
  -0.04586688  0.06212418  0.00000000       0.009
  -0.03057792  0.06212418  0.00000000       0.009
  -0.01528896  0.06212418  0.00000000       0.009
   0.00000000  0.07765522  0.00000000       0.009
   0.01528896  0.07765522  0.00000000       0.009
   0.03057792  0.07765522  0.00000000       0.009
   0.04586688  0.07765522  0.00000000       0.009
   0.06115584  0.07765522  0.00000000       0.009
   0.07644480  0.07765522  0.00000000       0.009
   0.09173376  0.07765522  0.00000000       0.009
   0.10702272  0.07765522  0.00000000       0.009
  -0.10702272  0.07765522  0.00000000       0.009
  -0.09173376  0.07765522  0.00000000       0.009
  -0.07644480  0.07765522  0.00000000       0.009
  -0.06115584  0.07765522  0.00000000       0.009
  -0.04586688  0.07765522  0.00000000       0.009
  -0.03057792  0.07765522  0.00000000       0.009
  -0.01528896  0.07765522  0.00000000       0.009
   0.00000000  0.09318627  0.00000000       0.009
   0.01528896  0.09318627  0.00000000       0.009
   0.03057792  0.09318627  0.00000000       0.009
   0.04586688  0.09318627  0.00000000       0.009
   0.06115584  0.09318627  0.00000000       0.009
   0.07644480  0.09318627  0.00000000       0.009
   0.09173376  0.09318627  0.00000000       0.009
   0.10702272  0.09318627  0.00000000       0.009
  -0.10702272  0.09318627  0.00000000       0.009
  -0.09173376  0.09318627  0.00000000       0.009
  -0.07644480  0.09318627  0.00000000       0.009
  -0.06115584  0.09318627  0.00000000       0.009
  -0.04586688  0.09318627  0.00000000       0.009
  -0.03057792  0.09318627  0.00000000       0.009
  -0.01528896  0.09318627  0.00000000       0.009
   0.00000000  0.10871731  0.00000000       0.009
   0.01528896  0.10871731  0.00000000       0.009
   0.03057792  0.10871731  0.00000000       0.009
   0.04586688  0.10871731  0.00000000       0.009
   0.06115584  0.10871731  0.00000000       0.009
   0.07644480  0.10871731  0.00000000       0.009
   0.09173376  0.10871731  0.00000000       0.009
   0.10702272  0.10871731  0.00000000       0.009
  -0.10702272  0.10871731  0.00000000       0.009
  -0.09173376  0.10871731  0.00000000       0.009
  -0.07644480  0.10871731  0.00000000       0.009
  -0.06115584  0.10871731  0.00000000       0.009
  -0.04586688  0.10871731  0.00000000       0.009
  -0.03057792  0.10871731  0.00000000       0.009
  -0.01528896  0.10871731  0.00000000       0.009
 
 k-points in reciprocal lattice and weights: KMesh Grid                              
   0.00000000  0.00000000  0.00000000       0.004
   0.06666667  0.00000000  0.00000000       0.009
   0.13333333  0.00000000  0.00000000       0.009
   0.20000000  0.00000000  0.00000000       0.009
   0.26666667  0.00000000  0.00000000       0.009
   0.33333333  0.00000000  0.00000000       0.009
   0.40000000  0.00000000  0.00000000       0.009
   0.46666667  0.00000000  0.00000000       0.009
   0.00000000  0.06666667  0.00000000       0.009
   0.06666667  0.06666667  0.00000000       0.009
   0.13333333  0.06666667  0.00000000       0.009
   0.20000000  0.06666667  0.00000000       0.009
   0.26666667  0.06666667  0.00000000       0.009
   0.33333333  0.06666667  0.00000000       0.009
   0.40000000  0.06666667  0.00000000       0.009
   0.46666667  0.06666667  0.00000000       0.009
  -0.46666667  0.06666667  0.00000000       0.009
  -0.40000000  0.06666667  0.00000000       0.009
  -0.33333333  0.06666667  0.00000000       0.009
  -0.26666667  0.06666667  0.00000000       0.009
  -0.20000000  0.06666667  0.00000000       0.009
  -0.13333333  0.06666667  0.00000000       0.009
  -0.06666667  0.06666667  0.00000000       0.009
   0.00000000  0.13333333  0.00000000       0.009
   0.06666667  0.13333333  0.00000000       0.009
   0.13333333  0.13333333  0.00000000       0.009
   0.20000000  0.13333333  0.00000000       0.009
   0.26666667  0.13333333  0.00000000       0.009
   0.33333333  0.13333333  0.00000000       0.009
   0.40000000  0.13333333  0.00000000       0.009
   0.46666667  0.13333333  0.00000000       0.009
  -0.46666667  0.13333333  0.00000000       0.009
  -0.40000000  0.13333333  0.00000000       0.009
  -0.33333333  0.13333333  0.00000000       0.009
  -0.26666667  0.13333333  0.00000000       0.009
  -0.20000000  0.13333333  0.00000000       0.009
  -0.13333333  0.13333333  0.00000000       0.009
  -0.06666667  0.13333333  0.00000000       0.009
   0.00000000  0.20000000  0.00000000       0.009
   0.06666667  0.20000000  0.00000000       0.009
   0.13333333  0.20000000  0.00000000       0.009
   0.20000000  0.20000000  0.00000000       0.009
   0.26666667  0.20000000  0.00000000       0.009
   0.33333333  0.20000000  0.00000000       0.009
   0.40000000  0.20000000  0.00000000       0.009
   0.46666667  0.20000000  0.00000000       0.009
  -0.46666667  0.20000000  0.00000000       0.009
  -0.40000000  0.20000000  0.00000000       0.009
  -0.33333333  0.20000000  0.00000000       0.009
  -0.26666667  0.20000000  0.00000000       0.009
  -0.20000000  0.20000000  0.00000000       0.009
  -0.13333333  0.20000000  0.00000000       0.009
  -0.06666667  0.20000000  0.00000000       0.009
   0.00000000  0.26666667  0.00000000       0.009
   0.06666667  0.26666667  0.00000000       0.009
   0.13333333  0.26666667  0.00000000       0.009
   0.20000000  0.26666667  0.00000000       0.009
   0.26666667  0.26666667  0.00000000       0.009
   0.33333333  0.26666667  0.00000000       0.009
   0.40000000  0.26666667  0.00000000       0.009
   0.46666667  0.26666667  0.00000000       0.009
  -0.46666667  0.26666667  0.00000000       0.009
  -0.40000000  0.26666667  0.00000000       0.009
  -0.33333333  0.26666667  0.00000000       0.009
  -0.26666667  0.26666667  0.00000000       0.009
  -0.20000000  0.26666667  0.00000000       0.009
  -0.13333333  0.26666667  0.00000000       0.009
  -0.06666667  0.26666667  0.00000000       0.009
   0.00000000  0.33333333  0.00000000       0.009
   0.06666667  0.33333333  0.00000000       0.009
   0.13333333  0.33333333  0.00000000       0.009
   0.20000000  0.33333333  0.00000000       0.009
   0.26666667  0.33333333  0.00000000       0.009
   0.33333333  0.33333333  0.00000000       0.009
   0.40000000  0.33333333  0.00000000       0.009
   0.46666667  0.33333333  0.00000000       0.009
  -0.46666667  0.33333333  0.00000000       0.009
  -0.40000000  0.33333333  0.00000000       0.009
  -0.33333333  0.33333333  0.00000000       0.009
  -0.26666667  0.33333333  0.00000000       0.009
  -0.20000000  0.33333333  0.00000000       0.009
  -0.13333333  0.33333333  0.00000000       0.009
  -0.06666667  0.33333333  0.00000000       0.009
   0.00000000  0.40000000  0.00000000       0.009
   0.06666667  0.40000000  0.00000000       0.009
   0.13333333  0.40000000  0.00000000       0.009
   0.20000000  0.40000000  0.00000000       0.009
   0.26666667  0.40000000  0.00000000       0.009
   0.33333333  0.40000000  0.00000000       0.009
   0.40000000  0.40000000  0.00000000       0.009
   0.46666667  0.40000000  0.00000000       0.009
  -0.46666667  0.40000000  0.00000000       0.009
  -0.40000000  0.40000000  0.00000000       0.009
  -0.33333333  0.40000000  0.00000000       0.009
  -0.26666667  0.40000000  0.00000000       0.009
  -0.20000000  0.40000000  0.00000000       0.009
  -0.13333333  0.40000000  0.00000000       0.009
  -0.06666667  0.40000000  0.00000000       0.009
   0.00000000  0.46666667  0.00000000       0.009
   0.06666667  0.46666667  0.00000000       0.009
   0.13333333  0.46666667  0.00000000       0.009
   0.20000000  0.46666667  0.00000000       0.009
   0.26666667  0.46666667  0.00000000       0.009
   0.33333333  0.46666667  0.00000000       0.009
   0.40000000  0.46666667  0.00000000       0.009
   0.46666667  0.46666667  0.00000000       0.009
  -0.46666667  0.46666667  0.00000000       0.009
  -0.40000000  0.46666667  0.00000000       0.009
  -0.33333333  0.46666667  0.00000000       0.009
  -0.26666667  0.46666667  0.00000000       0.009
  -0.20000000  0.46666667  0.00000000       0.009
  -0.13333333  0.46666667  0.00000000       0.009
  -0.06666667  0.46666667  0.00000000       0.009
 
 position of ions in fractional coordinates (direct lattice) 
   0.58124336  0.75000000  0.56874314
   0.08124336  0.25000000  0.43125686
   0.03286064  0.25000000  0.56707387
   0.53286061  0.75000000  0.43292613
 
 position of ions in cartesian coordinates  (Angst):
   2.53447968  3.21935839 11.37486283
   0.35425719  1.07311946  8.62513717
   0.14328703  1.07311946 11.34147733
   2.32350939  3.21935839  8.65852267
 


--------------------------------------------------------------------------------------------------------


 k-point  1 :   0.0000 0.0000 0.0000  plane waves:   12555
 k-point  2 :   0.0667 0.0000 0.0000  plane waves:   12547
 k-point  3 :   0.1333 0.0000 0.0000  plane waves:   12513
 k-point  4 :   0.2000 0.0000 0.0000  plane waves:   12491
 k-point  5 :   0.2667 0.0000 0.0000  plane waves:   12471
 k-point  6 :   0.3333 0.0000 0.0000  plane waves:   12500
 k-point  7 :   0.4000 0.0000 0.0000  plane waves:   12522
 k-point  8 :   0.4667 0.0000 0.0000  plane waves:   12526
 k-point  9 :   0.0000 0.0667 0.0000  plane waves:   12525
 k-point 10 :   0.0667 0.0667 0.0000  plane waves:   12519
 k-point 11 :   0.1333 0.0667 0.0000  plane waves:   12495
 k-point 12 :   0.2000 0.0667 0.0000  plane waves:   12503
 k-point 13 :   0.2667 0.0667 0.0000  plane waves:   12504
 k-point 14 :   0.3333 0.0667 0.0000  plane waves:   12506
 k-point 15 :   0.4000 0.0667 0.0000  plane waves:   12542
 k-point 16 :   0.4667 0.0667 0.0000  plane waves:   12517
 k-point 17 :  -0.4667 0.0667 0.0000  plane waves:   12517
 k-point 18 :  -0.4000 0.0667 0.0000  plane waves:   12542
 k-point 19 :  -0.3333 0.0667 0.0000  plane waves:   12506
 k-point 20 :  -0.2667 0.0667 0.0000  plane waves:   12504
 k-point 21 :  -0.2000 0.0667 0.0000  plane waves:   12503
 k-point 22 :  -0.1333 0.0667 0.0000  plane waves:   12495
 k-point 23 :  -0.0667 0.0667 0.0000  plane waves:   12519
 k-point 24 :   0.0000 0.1333 0.0000  plane waves:   12517
 k-point 25 :   0.0667 0.1333 0.0000  plane waves:   12516
 k-point 26 :   0.1333 0.1333 0.0000  plane waves:   12486
 k-point 27 :   0.2000 0.1333 0.0000  plane waves:   12484
 k-point 28 :   0.2667 0.1333 0.0000  plane waves:   12500
 k-point 29 :   0.3333 0.1333 0.0000  plane waves:   12505
 k-point 30 :   0.4000 0.1333 0.0000  plane waves:   12511
 k-point 31 :   0.4667 0.1333 0.0000  plane waves:   12505
 k-point 32 :  -0.4667 0.1333 0.0000  plane waves:   12505
 k-point 33 :  -0.4000 0.1333 0.0000  plane waves:   12511
 k-point 34 :  -0.3333 0.1333 0.0000  plane waves:   12505
 k-point 35 :  -0.2667 0.1333 0.0000  plane waves:   12500
 k-point 36 :  -0.2000 0.1333 0.0000  plane waves:   12484
 k-point 37 :  -0.1333 0.1333 0.0000  plane waves:   12486
 k-point 38 :  -0.0667 0.1333 0.0000  plane waves:   12516
 k-point 39 :   0.0000 0.2000 0.0000  plane waves:   12497
 k-point 40 :   0.0667 0.2000 0.0000  plane waves:   12512
 k-point 41 :   0.1333 0.2000 0.0000  plane waves:   12512
 k-point 42 :   0.2000 0.2000 0.0000  plane waves:   12489
 k-point 43 :   0.2667 0.2000 0.0000  plane waves:   12493
 k-point 44 :   0.3333 0.2000 0.0000  plane waves:   12493
 k-point 45 :   0.4000 0.2000 0.0000  plane waves:   12499
 k-point 46 :   0.4667 0.2000 0.0000  plane waves:   12517
 k-point 47 :  -0.4667 0.2000 0.0000  plane waves:   12517
 k-point 48 :  -0.4000 0.2000 0.0000  plane waves:   12499
 k-point 49 :  -0.3333 0.2000 0.0000  plane waves:   12493
 k-point 50 :  -0.2667 0.2000 0.0000  plane waves:   12493
 k-point 51 :  -0.2000 0.2000 0.0000  plane waves:   12489
 k-point 52 :  -0.1333 0.2000 0.0000  plane waves:   12512
 k-point 53 :  -0.0667 0.2000 0.0000  plane waves:   12512
 k-point 54 :   0.0000 0.2667 0.0000  plane waves:   12505
 k-point 55 :   0.0667 0.2667 0.0000  plane waves:   12489
 k-point 56 :   0.1333 0.2667 0.0000  plane waves:   12502
 k-point 57 :   0.2000 0.2667 0.0000  plane waves:   12489
 k-point 58 :   0.2667 0.2667 0.0000  plane waves:   12488
 k-point 59 :   0.3333 0.2667 0.0000  plane waves:   12497
 k-point 60 :   0.4000 0.2667 0.0000  plane waves:   12481
 k-point 61 :   0.4667 0.2667 0.0000  plane waves:   12490
 k-point 62 :  -0.4667 0.2667 0.0000  plane waves:   12490
 k-point 63 :  -0.4000 0.2667 0.0000  plane waves:   12481
 k-point 64 :  -0.3333 0.2667 0.0000  plane waves:   12497
 k-point 65 :  -0.2667 0.2667 0.0000  plane waves:   12488
 k-point 66 :  -0.2000 0.2667 0.0000  plane waves:   12489
 k-point 67 :  -0.1333 0.2667 0.0000  plane waves:   12502
 k-point 68 :  -0.0667 0.2667 0.0000  plane waves:   12489
 k-point 69 :   0.0000 0.3333 0.0000  plane waves:   12475
 k-point 70 :   0.0667 0.3333 0.0000  plane waves:   12479
 k-point 71 :   0.1333 0.3333 0.0000  plane waves:   12488
 k-point 72 :   0.2000 0.3333 0.0000  plane waves:   12495
 k-point 73 :   0.2667 0.3333 0.0000  plane waves:   12471
 k-point 74 :   0.3333 0.3333 0.0000  plane waves:   12471
 k-point 75 :   0.4000 0.3333 0.0000  plane waves:   12481
 k-point 76 :   0.4667 0.3333 0.0000  plane waves:   12475
 k-point 77 :  -0.4667 0.3333 0.0000  plane waves:   12475
 k-point 78 :  -0.4000 0.3333 0.0000  plane waves:   12481
 k-point 79 :  -0.3333 0.3333 0.0000  plane waves:   12471
 k-point 80 :  -0.2667 0.3333 0.0000  plane waves:   12471
 k-point 81 :  -0.2000 0.3333 0.0000  plane waves:   12495
 k-point 82 :  -0.1333 0.3333 0.0000  plane waves:   12488
 k-point 83 :  -0.0667 0.3333 0.0000  plane waves:   12479
 k-point 84 :   0.0000 0.4000 0.0000  plane waves:   12451
 k-point 85 :   0.0667 0.4000 0.0000  plane waves:   12475
 k-point 86 :   0.1333 0.4000 0.0000  plane waves:   12498
 k-point 87 :   0.2000 0.4000 0.0000  plane waves:   12480
 k-point 88 :   0.2667 0.4000 0.0000  plane waves:   12475
 k-point 89 :   0.3333 0.4000 0.0000  plane waves:   12480
 k-point 90 :   0.4000 0.4000 0.0000  plane waves:   12455
 k-point 91 :   0.4667 0.4000 0.0000  plane waves:   12469
 k-point 92 :  -0.4667 0.4000 0.0000  plane waves:   12469
 k-point 93 :  -0.4000 0.4000 0.0000  plane waves:   12455
 k-point 94 :  -0.3333 0.4000 0.0000  plane waves:   12480
 k-point 95 :  -0.2667 0.4000 0.0000  plane waves:   12475
 k-point 96 :  -0.2000 0.4000 0.0000  plane waves:   12480
 k-point 97 :  -0.1333 0.4000 0.0000  plane waves:   12498
 k-point 98 :  -0.0667 0.4000 0.0000  plane waves:   12475
 k-point 99 :   0.0000 0.4667 0.0000  plane waves:   12466
 k-point ** :   0.0667 0.4667 0.0000  plane waves:   12484
 k-point ** :   0.1333 0.4667 0.0000  plane waves:   12484
 k-point ** :   0.2000 0.4667 0.0000  plane waves:   12482
 k-point ** :   0.2667 0.4667 0.0000  plane waves:   12462
 k-point ** :   0.3333 0.4667 0.0000  plane waves:   12454
 k-point ** :   0.4000 0.4667 0.0000  plane waves:   12451
 k-point ** :   0.4667 0.4667 0.0000  plane waves:   12470
 k-point ** :  -0.4667 0.4667 0.0000  plane waves:   12470
 k-point ** :  -0.4000 0.4667 0.0000  plane waves:   12451
 k-point ** :  -0.3333 0.4667 0.0000  plane waves:   12454
 k-point ** :  -0.2667 0.4667 0.0000  plane waves:   12462
 k-point ** :  -0.2000 0.4667 0.0000  plane waves:   12482
 k-point ** :  -0.1333 0.4667 0.0000  plane waves:   12484
 k-point ** :  -0.0667 0.4667 0.0000  plane waves:   12484

 maximum and minimum number of plane-waves per node :       541      503

 maximum number of plane-waves:     12555
 maximum index in each direction: 
   IXMAX=    9   IYMAX=    8   IZMAX=   39
   IXMIN=   -9   IYMIN=   -9   IZMIN=  -39


 parallel 3D FFT for wavefunctions:
    minimum data exchange during FFTs selected (reduces bandwidth)
 parallel 3D FFT for charge:
    minimum data exchange during FFTs selected (reduces bandwidth)


 total amount of memory used by VASP MPI-rank0    63513. kBytes
=======================================================================

   base      :      30000. kBytes
   nonl-proj :      12608. kBytes
   fftplans  :       2678. kBytes
   grid      :       4349. kBytes
   one-center:          8. kBytes
   wavefun   :      13870. kBytes
 
     INWAV:  cpu time    0.0000: real time    0.0006
 Broyden mixing: mesh for mixing (old mesh)
   NGX = 17   NGY = 17   NGZ = 79
  (NGX  = 72   NGY  = 72   NGZ  =320)
  gives a total of  22831 points

 initial charge density was supplied:
 charge density of overlapping atoms calculated
 number of electron      20.0000000 magnetization 
 keeping initial charge density in first step


--------------------------------------------------------------------------------------------------------


 Maximum index for augmentation-charges         2234 (set IRDMAX)


--------------------------------------------------------------------------------------------------------


 First call to EWALD:  gamma=   0.246
 Maximum number of real-space cells 4x 4x 1
 Maximum number of reciprocal cells 2x 2x 7

    FEWALD:  cpu time    0.0013: real time    0.0013


--------------------------------------- Iteration      1(   1)  ---------------------------------------


    POTLOK:  cpu time    0.0678: real time    0.1716
    SETDIJ:  cpu time    0.0075: real time    0.0083
     EDDAV:  cpu time    2.7202: real time    2.7323
       DOS:  cpu time    0.0051: real time    0.0054
    --------------------------------------------
      LOOP:  cpu time    2.8006: real time    2.9176

 eigenvalue-minimisations  :  3164
 total energy-change (2. order) : 0.1437225E+03  (-0.6303702E+03)
 number of electron      20.0000000 magnetization 
 augmentation part       20.0000000 magnetization 

 Free energy of the ion-electron system (eV)
  ---------------------------------------------------
  alpha Z        PSCENC =         9.55197743
  Ewald energy   TEWEN  =      1160.79231688
  -Hartree energ DENC   =     -1762.78528833
  -exchange      EXHF   =         0.00000000
  -V(xc)+E(xc)   XCENC  =      -238.55320973
  PAW double counting   =       799.43158084     -524.17639913
  entropy T*S    EENTRO =        -0.01326665
  eigenvalues    EBANDS =        -2.95314816
  atomic energy  EATOM  =       702.42789710
  Solvation  Ediel_sol  =         0.00000000
  ---------------------------------------------------
  free energy    TOTEN  =       143.72246025 eV

  energy without entropy =      143.73572690  energy(sigma->0) =      143.72909357


--------------------------------------------------------------------------------------------------------




--------------------------------------- Iteration      1(   2)  ---------------------------------------


     EDDAV:  cpu time    3.8559: real time    3.8663
       DOS:  cpu time    0.0052: real time    0.0051
    --------------------------------------------
      LOOP:  cpu time    3.8611: real time    3.8714

 eigenvalue-minimisations  :  5188
 total energy-change (2. order) :-0.1389861E+03  (-0.1342336E+03)
 number of electron      20.0000000 magnetization 
 augmentation part       20.0000000 magnetization 

 Free energy of the ion-electron system (eV)
  ---------------------------------------------------
  alpha Z        PSCENC =         9.55197743
  Ewald energy   TEWEN  =      1160.79231688
  -Hartree energ DENC   =     -1762.78528833
  -exchange      EXHF   =         0.00000000
  -V(xc)+E(xc)   XCENC  =      -238.55320973
  PAW double counting   =       799.43158084     -524.17639913
  entropy T*S    EENTRO =        -0.00072032
  eigenvalues    EBANDS =      -141.95180267
  atomic energy  EATOM  =       702.42789710
  Solvation  Ediel_sol  =         0.00000000
  ---------------------------------------------------
  free energy    TOTEN  =         4.73635207 eV

  energy without entropy =        4.73707239  energy(sigma->0) =        4.73671223


--------------------------------------------------------------------------------------------------------




--------------------------------------- Iteration      1(   3)  ---------------------------------------


     EDDAV:  cpu time    3.1423: real time    3.1506
       DOS:  cpu time    0.0035: real time    0.0035
    --------------------------------------------
      LOOP:  cpu time    3.1458: real time    3.1541

 eigenvalue-minimisations  :  4042
 total energy-change (2. order) :-0.2071938E+02  (-0.2057557E+02)
 number of electron      20.0000000 magnetization 
 augmentation part       20.0000000 magnetization 

 Free energy of the ion-electron system (eV)
  ---------------------------------------------------
  alpha Z        PSCENC =         9.55197743
  Ewald energy   TEWEN  =      1160.79231688
  -Hartree energ DENC   =     -1762.78528833
  -exchange      EXHF   =         0.00000000
  -V(xc)+E(xc)   XCENC  =      -238.55320973
  PAW double counting   =       799.43158084     -524.17639913
  entropy T*S    EENTRO =        -0.00000000
  eigenvalues    EBANDS =      -162.67190585
  atomic energy  EATOM  =       702.42789710
  Solvation  Ediel_sol  =         0.00000000
  ---------------------------------------------------
  free energy    TOTEN  =       -15.98303079 eV

  energy without entropy =      -15.98303079  energy(sigma->0) =      -15.98303079


--------------------------------------------------------------------------------------------------------




--------------------------------------- Iteration      1(   4)  ---------------------------------------


     EDDAV:  cpu time    3.3054: real time    3.3143
       DOS:  cpu time    0.0036: real time    0.0036
    --------------------------------------------
      LOOP:  cpu time    3.3090: real time    3.3178

 eigenvalue-minimisations  :  4328
 total energy-change (2. order) :-0.7868651E+00  (-0.7845374E+00)
 number of electron      20.0000000 magnetization 
 augmentation part       20.0000000 magnetization 

 Free energy of the ion-electron system (eV)
  ---------------------------------------------------
  alpha Z        PSCENC =         9.55197743
  Ewald energy   TEWEN  =      1160.79231688
  -Hartree energ DENC   =     -1762.78528833
  -exchange      EXHF   =         0.00000000
  -V(xc)+E(xc)   XCENC  =      -238.55320973
  PAW double counting   =       799.43158084     -524.17639913
  entropy T*S    EENTRO =        -0.00000000
  eigenvalues    EBANDS =      -163.45877097
  atomic energy  EATOM  =       702.42789710
  Solvation  Ediel_sol  =         0.00000000
  ---------------------------------------------------
  free energy    TOTEN  =       -16.76989591 eV

  energy without entropy =      -16.76989591  energy(sigma->0) =      -16.76989591


--------------------------------------------------------------------------------------------------------




--------------------------------------- Iteration      1(   5)  ---------------------------------------


     EDDAV:  cpu time    3.2422: real time    3.2508
       DOS:  cpu time    0.0035: real time    0.0036
    CHARGE:  cpu time    0.2104: real time    0.2106
    MIXING:  cpu time    0.0019: real time    0.0022
    --------------------------------------------
      LOOP:  cpu time    3.4580: real time    3.4672

 eigenvalue-minimisations  :  4204
 total energy-change (2. order) :-0.2107011E-01  (-0.2105045E-01)
 number of electron      20.0000000 magnetization 
 augmentation part       -4.5242534 magnetization 

 Broyden mixing:
  rms(total) = 0.45374E+00    rms(broyden)= 0.45374E+00
  rms(prec ) = 0.49362E+00
  weight for this iteration     100.00

 Free energy of the ion-electron system (eV)
  ---------------------------------------------------
  alpha Z        PSCENC =         9.55197743
  Ewald energy   TEWEN  =      1160.79231688
  -Hartree energ DENC   =     -1762.78528833
  -exchange      EXHF   =         0.00000000
  -V(xc)+E(xc)   XCENC  =      -238.55320973
  PAW double counting   =       799.43158084     -524.17639913
  entropy T*S    EENTRO =        -0.00000000
  eigenvalues    EBANDS =      -163.47984107
  atomic energy  EATOM  =       702.42789710
  Solvation  Ediel_sol  =         0.00000000
  ---------------------------------------------------
  free energy    TOTEN  =       -16.79096601 eV

  energy without entropy =      -16.79096601  energy(sigma->0) =      -16.79096601


--------------------------------------------------------------------------------------------------------




--------------------------------------- Iteration      1(   6)  ---------------------------------------


    POTLOK:  cpu time    0.0402: real time    0.0403
    SETDIJ:  cpu time    0.0041: real time    0.0041
     EDDAV:  cpu time    3.0306: real time    3.0381
       DOS:  cpu time    0.0038: real time    0.0038
    CHARGE:  cpu time    0.2156: real time    0.2159
    MIXING:  cpu time    0.0012: real time    0.0012
    --------------------------------------------
      LOOP:  cpu time    3.2954: real time    3.3034

 eigenvalue-minimisations  :  3858
 total energy-change (2. order) : 0.4849739E+00  (-0.1215935E+00)
 number of electron      20.0000000 magnetization 
 augmentation part       -4.4919476 magnetization 

 Broyden mixing:
  rms(total) = 0.27862E+00    rms(broyden)= 0.27862E+00
  rms(prec ) = 0.28778E+00
  weight for this iteration     100.00

 eigenvalues of (default mixing * dielectric matrix)
  average eigenvalue GAMMA=   1.8239
  1.8239

 Free energy of the ion-electron system (eV)
  ---------------------------------------------------
  alpha Z        PSCENC =         9.55197743
  Ewald energy   TEWEN  =      1160.79231688
  -Hartree energ DENC   =     -1770.64710044
  -exchange      EXHF   =         0.00000000
  -V(xc)+E(xc)   XCENC  =      -238.07175406
  PAW double counting   =       925.53983447     -650.46918183
  entropy T*S    EENTRO =        -0.00000000
  eigenvalues    EBANDS =      -155.42998165
  atomic energy  EATOM  =       702.42789710
  Solvation  Ediel_sol  =         0.00000000
  ---------------------------------------------------
  free energy    TOTEN  =       -16.30599211 eV

  energy without entropy =      -16.30599211  energy(sigma->0) =      -16.30599211


--------------------------------------------------------------------------------------------------------




--------------------------------------- Iteration      1(   7)  ---------------------------------------


    POTLOK:  cpu time    0.0389: real time    0.0390
    SETDIJ:  cpu time    0.0041: real time    0.0041
     EDDAV:  cpu time    3.3518: real time    3.3650
       DOS:  cpu time    0.0038: real time    0.0038
    CHARGE:  cpu time    0.2166: real time    0.2170
    MIXING:  cpu time    0.0012: real time    0.0013
    --------------------------------------------
      LOOP:  cpu time    3.6164: real time    3.6302

 eigenvalue-minimisations  :  4170
 total energy-change (2. order) : 0.2829847E-01  (-0.3207475E-01)
 number of electron      20.0000000 magnetization 
 augmentation part       -4.4831536 magnetization 

 Broyden mixing:
  rms(total) = 0.10376E+00    rms(broyden)= 0.10376E+00
  rms(prec ) = 0.10923E+00
  weight for this iteration     100.00

 eigenvalues of (default mixing * dielectric matrix)
  average eigenvalue GAMMA=   1.7342
  1.3795  2.0888

 Free energy of the ion-electron system (eV)
  ---------------------------------------------------
  alpha Z        PSCENC =         9.55197743
  Ewald energy   TEWEN  =      1160.79231688
  -Hartree energ DENC   =     -1775.78983152
  -exchange      EXHF   =         0.00000000
  -V(xc)+E(xc)   XCENC  =      -237.74136275
  PAW double counting   =      1069.87455161     -794.94767642
  entropy T*S    EENTRO =        -0.00000000
  eigenvalues    EBANDS =      -150.44556597
  atomic energy  EATOM  =       702.42789710
  Solvation  Ediel_sol  =         0.00000000
  ---------------------------------------------------
  free energy    TOTEN  =       -16.27769364 eV

  energy without entropy =      -16.27769364  energy(sigma->0) =      -16.27769364


--------------------------------------------------------------------------------------------------------




--------------------------------------- Iteration      1(   8)  ---------------------------------------


    POTLOK:  cpu time    0.0434: real time    0.0437
    SETDIJ:  cpu time    0.0042: real time    0.0042
     EDDAV:  cpu time    3.4853: real time    3.4946
       DOS:  cpu time    0.0038: real time    0.0038
    CHARGE:  cpu time    0.2173: real time    0.2177
    MIXING:  cpu time    0.0013: real time    0.0013
    --------------------------------------------
      LOOP:  cpu time    3.7553: real time    3.7653

 eigenvalue-minimisations  :  4410
 total energy-change (2. order) : 0.9850063E-02  (-0.4031597E-02)
 number of electron      20.0000000 magnetization 
 augmentation part       -4.4874055 magnetization 

 Broyden mixing:
  rms(total) = 0.20612E-01    rms(broyden)= 0.20612E-01
  rms(prec ) = 0.28071E-01
  weight for this iteration     100.00

 eigenvalues of (default mixing * dielectric matrix)
  average eigenvalue GAMMA=   1.7145
  2.5391  1.3022  1.3022

 Free energy of the ion-electron system (eV)
  ---------------------------------------------------
  alpha Z        PSCENC =         9.55197743
  Ewald energy   TEWEN  =      1160.79231688
  -Hartree energ DENC   =     -1777.45313517
  -exchange      EXHF   =         0.00000000
  -V(xc)+E(xc)   XCENC  =      -237.66590131
  PAW double counting   =      1134.83697715     -859.94834696
  entropy T*S    EENTRO =        -0.00000000
  eigenvalues    EBANDS =      -148.80962870
  atomic energy  EATOM  =       702.42789710
  Solvation  Ediel_sol  =         0.00000000
  ---------------------------------------------------
  free energy    TOTEN  =       -16.26784357 eV

  energy without entropy =      -16.26784357  energy(sigma->0) =      -16.26784357


--------------------------------------------------------------------------------------------------------




--------------------------------------- Iteration      1(   9)  ---------------------------------------


    POTLOK:  cpu time    0.0393: real time    0.0394
    SETDIJ:  cpu time    0.0042: real time    0.0042
     EDDAV:  cpu time    3.3959: real time    3.4048
       DOS:  cpu time    0.0038: real time    0.0038
    CHARGE:  cpu time    0.2151: real time    0.2154
    MIXING:  cpu time    0.0012: real time    0.0013
    --------------------------------------------
      LOOP:  cpu time    3.6595: real time    3.6688

 eigenvalue-minimisations  :  4322
 total energy-change (2. order) : 0.3814514E-02  (-0.6994074E-03)
 number of electron      20.0000000 magnetization 
 augmentation part       -4.4854156 magnetization 

 Broyden mixing:
  rms(total) = 0.10154E-01    rms(broyden)= 0.10154E-01
  rms(prec ) = 0.15718E-01
  weight for this iteration     100.00

 eigenvalues of (default mixing * dielectric matrix)
  average eigenvalue GAMMA=   1.7124
  2.2314  2.2314  1.1933  1.1933

 Free energy of the ion-electron system (eV)
  ---------------------------------------------------
  alpha Z        PSCENC =         9.55197743
  Ewald energy   TEWEN  =      1160.79231688
  -Hartree energ DENC   =     -1779.46844600
  -exchange      EXHF   =         0.00000000
  -V(xc)+E(xc)   XCENC  =      -237.59117989
  PAW double counting   =      1153.54678252     -878.67074709
  entropy T*S    EENTRO =        -0.00000000
  eigenvalues    EBANDS =      -146.85263001
  atomic energy  EATOM  =       702.42789710
  Solvation  Ediel_sol  =         0.00000000
  ---------------------------------------------------
  free energy    TOTEN  =       -16.26402906 eV

  energy without entropy =      -16.26402906  energy(sigma->0) =      -16.26402906


--------------------------------------------------------------------------------------------------------




--------------------------------------- Iteration      1(  10)  ---------------------------------------


    POTLOK:  cpu time    0.0422: real time    0.0423
    SETDIJ:  cpu time    0.0041: real time    0.0041
     EDDAV:  cpu time    3.4840: real time    3.4935
       DOS:  cpu time    0.0038: real time    0.0038
    CHARGE:  cpu time    0.2417: real time    0.2421
    MIXING:  cpu time    0.0014: real time    0.0014
    --------------------------------------------
      LOOP:  cpu time    3.7773: real time    3.7873

 eigenvalue-minimisations  :  4388
 total energy-change (2. order) : 0.1282167E-02  (-0.1282450E-03)
 number of electron      20.0000000 magnetization 
 augmentation part       -4.4841747 magnetization 

 Broyden mixing:
  rms(total) = 0.53328E-02    rms(broyden)= 0.53328E-02
  rms(prec ) = 0.94776E-02
  weight for this iteration     100.00

 eigenvalues of (default mixing * dielectric matrix)
  average eigenvalue GAMMA=   1.8727
  3.3698  2.6021  1.2428  1.2428  0.9060

 Free energy of the ion-electron system (eV)
  ---------------------------------------------------
  alpha Z        PSCENC =         9.55197743
  Ewald energy   TEWEN  =      1160.79231688
  -Hartree energ DENC   =     -1780.74905062
  -exchange      EXHF   =         0.00000000
  -V(xc)+E(xc)   XCENC  =      -237.58089395
  PAW double counting   =      1142.50784135     -867.62098521
  entropy T*S    EENTRO =        -0.00000000
  eigenvalues    EBANDS =      -145.59184987
  atomic energy  EATOM  =       702.42789710
  Solvation  Ediel_sol  =         0.00000000
  ---------------------------------------------------
  free energy    TOTEN  =       -16.26274689 eV

  energy without entropy =      -16.26274689  energy(sigma->0) =      -16.26274689


--------------------------------------------------------------------------------------------------------




--------------------------------------- Iteration      1(  11)  ---------------------------------------


    POTLOK:  cpu time    0.0395: real time    0.0396
    SETDIJ:  cpu time    0.0040: real time    0.0040
     EDDAV:  cpu time    3.3958: real time    3.4049
       DOS:  cpu time    0.0038: real time    0.0039
    CHARGE:  cpu time    0.2124: real time    0.2128
    MIXING:  cpu time    0.0013: real time    0.0013
    --------------------------------------------
      LOOP:  cpu time    3.6569: real time    3.6665

 eigenvalue-minimisations  :  4298
 total energy-change (2. order) : 0.7234169E-03  (-0.1263769E-03)
 number of electron      20.0000000 magnetization 
 augmentation part       -4.4827790 magnetization 

 Broyden mixing:
  rms(total) = 0.33472E-02    rms(broyden)= 0.33472E-02
  rms(prec ) = 0.50390E-02
  weight for this iteration     100.00

 eigenvalues of (default mixing * dielectric matrix)
  average eigenvalue GAMMA=   1.8466
  3.4053  2.2018  2.2018  1.1946  1.1946  0.8812

 Free energy of the ion-electron system (eV)
  ---------------------------------------------------
  alpha Z        PSCENC =         9.55197743
  Ewald energy   TEWEN  =      1160.79231688
  -Hartree energ DENC   =     -1782.35932239
  -exchange      EXHF   =         0.00000000
  -V(xc)+E(xc)   XCENC  =      -237.54878793
  PAW double counting   =      1144.26024894     -869.37268624
  entropy T*S    EENTRO =        -0.00000000
  eigenvalues    EBANDS =      -144.01366726
  atomic energy  EATOM  =       702.42789710
  Solvation  Ediel_sol  =         0.00000000
  ---------------------------------------------------
  free energy    TOTEN  =       -16.26202348 eV

  energy without entropy =      -16.26202348  energy(sigma->0) =      -16.26202348


--------------------------------------------------------------------------------------------------------




--------------------------------------- Iteration      1(  12)  ---------------------------------------


    POTLOK:  cpu time    0.0398: real time    0.0399
    SETDIJ:  cpu time    0.0040: real time    0.0040
     EDDAV:  cpu time    3.0037: real time    3.0111
       DOS:  cpu time    0.0038: real time    0.0038
    CHARGE:  cpu time    0.2125: real time    0.2128
    MIXING:  cpu time    0.0015: real time    0.0015
    --------------------------------------------
      LOOP:  cpu time    3.2652: real time    3.2730

 eigenvalue-minimisations  :  3608
 total energy-change (2. order) :-0.8305150E-03  (-0.3203831E-04)
 number of electron      20.0000000 magnetization 
 augmentation part       -4.4821277 magnetization 

 Broyden mixing:
  rms(total) = 0.19022E-02    rms(broyden)= 0.19022E-02
  rms(prec ) = 0.28706E-02
  weight for this iteration     100.00

 eigenvalues of (default mixing * dielectric matrix)
  average eigenvalue GAMMA=   2.0679
  4.5884  3.0918  2.5088  1.2109  1.2109  1.0249  0.8392

 Free energy of the ion-electron system (eV)
  ---------------------------------------------------
  alpha Z        PSCENC =         9.55197743
  Ewald energy   TEWEN  =      1160.79231688
  -Hartree energ DENC   =     -1782.99448085
  -exchange      EXHF   =         0.00000000
  -V(xc)+E(xc)   XCENC  =      -237.53909904
  PAW double counting   =      1146.16987356     -871.28519604
  entropy T*S    EENTRO =        -0.00000000
  eigenvalues    EBANDS =      -143.38614303
  atomic energy  EATOM  =       702.42789710
  Solvation  Ediel_sol  =         0.00000000
  ---------------------------------------------------
  free energy    TOTEN  =       -16.26285399 eV

  energy without entropy =      -16.26285399  energy(sigma->0) =      -16.26285399


--------------------------------------------------------------------------------------------------------




--------------------------------------- Iteration      1(  13)  ---------------------------------------


    POTLOK:  cpu time    0.0401: real time    0.0402
    SETDIJ:  cpu time    0.0060: real time    0.0060
     EDDAV:  cpu time    3.0472: real time    3.0554
       DOS:  cpu time    0.0038: real time    0.0038
    CHARGE:  cpu time    0.2212: real time    0.2217
    MIXING:  cpu time    0.0016: real time    0.0016
    --------------------------------------------
      LOOP:  cpu time    3.3199: real time    3.3288

 eigenvalue-minimisations  :  3746
 total energy-change (2. order) :-0.4310727E-03  (-0.8218899E-05)
 number of electron      20.0000000 magnetization 
 augmentation part       -4.4819396 magnetization 

 Broyden mixing:
  rms(total) = 0.12162E-02    rms(broyden)= 0.12162E-02
  rms(prec ) = 0.15794E-02
  weight for this iteration     100.00

 eigenvalues of (default mixing * dielectric matrix)
  average eigenvalue GAMMA=   2.2297
  5.5967  3.2924  2.4786  2.1792  1.1614  1.1614  1.0582  0.9095

 Free energy of the ion-electron system (eV)
  ---------------------------------------------------
  alpha Z        PSCENC =         9.55197743
  Ewald energy   TEWEN  =      1160.79231688
  -Hartree energ DENC   =     -1783.39931460
  -exchange      EXHF   =         0.00000000
  -V(xc)+E(xc)   XCENC  =      -237.53802745
  PAW double counting   =      1145.01040297     -870.12449685
  entropy T*S    EENTRO =        -0.00000000
  eigenvalues    EBANDS =      -142.98404054
  atomic energy  EATOM  =       702.42789710
  Solvation  Ediel_sol  =         0.00000000
  ---------------------------------------------------
  free energy    TOTEN  =       -16.26328506 eV

  energy without entropy =      -16.26328506  energy(sigma->0) =      -16.26328506


--------------------------------------------------------------------------------------------------------




--------------------------------------- Iteration      1(  14)  ---------------------------------------


    POTLOK:  cpu time    0.0413: real time    0.0414
    SETDIJ:  cpu time    0.0037: real time    0.0038
     EDDAV:  cpu time    3.1034: real time    3.1118
       DOS:  cpu time    0.0038: real time    0.0038
    CHARGE:  cpu time    0.2188: real time    0.2193
    MIXING:  cpu time    0.0016: real time    0.0016
    --------------------------------------------
      LOOP:  cpu time    3.3727: real time    3.3818

 eigenvalue-minimisations  :  3908
 total energy-change (2. order) :-0.2635556E-03  (-0.4376496E-05)
 number of electron      20.0000000 magnetization 
 augmentation part       -4.4819171 magnetization 

 Broyden mixing:
  rms(total) = 0.40540E-03    rms(broyden)= 0.40540E-03
  rms(prec ) = 0.62723E-03
  weight for this iteration     100.00

 eigenvalues of (default mixing * dielectric matrix)
  average eigenvalue GAMMA=   2.2416
  6.7345  3.0662  2.5285  2.5285  1.1872  1.1872  1.0562  0.9432  0.9432

 Free energy of the ion-electron system (eV)
  ---------------------------------------------------
  alpha Z        PSCENC =         9.55197743
  Ewald energy   TEWEN  =      1160.79231688
  -Hartree energ DENC   =     -1783.60788860
  -exchange      EXHF   =         0.00000000
  -V(xc)+E(xc)   XCENC  =      -237.53792255
  PAW double counting   =      1145.26920409     -870.38267670
  entropy T*S    EENTRO =        -0.00000000
  eigenvalues    EBANDS =      -142.77645628
  atomic energy  EATOM  =       702.42789710
  Solvation  Ediel_sol  =         0.00000000
  ---------------------------------------------------
  free energy    TOTEN  =       -16.26354862 eV

  energy without entropy =      -16.26354862  energy(sigma->0) =      -16.26354862


--------------------------------------------------------------------------------------------------------




--------------------------------------- Iteration      1(  15)  ---------------------------------------


    POTLOK:  cpu time    0.0442: real time    0.0444
    SETDIJ:  cpu time    0.0037: real time    0.0037
     EDDAV:  cpu time    3.0837: real time    3.0924
       DOS:  cpu time    0.0040: real time    0.0041
    CHARGE:  cpu time    0.2216: real time    0.2221
    MIXING:  cpu time    0.0016: real time    0.0016
    --------------------------------------------
      LOOP:  cpu time    3.3589: real time    3.3683

 eigenvalue-minimisations  :  3820
 total energy-change (2. order) :-0.5664883E-04  (-0.2104807E-06)
 number of electron      20.0000000 magnetization 
 augmentation part       -4.4819358 magnetization 

 Broyden mixing:
  rms(total) = 0.34607E-03    rms(broyden)= 0.34607E-03
  rms(prec ) = 0.51608E-03
  weight for this iteration     100.00

 eigenvalues of (default mixing * dielectric matrix)
  average eigenvalue GAMMA=   2.3557
  6.5440  4.2597  2.7082  2.7082  1.9789  1.1420  1.1420  1.2030  0.9354  0.9354

 Free energy of the ion-electron system (eV)
  ---------------------------------------------------
  alpha Z        PSCENC =         9.55197743
  Ewald energy   TEWEN  =      1160.79231688
  -Hartree energ DENC   =     -1783.62309968
  -exchange      EXHF   =         0.00000000
  -V(xc)+E(xc)   XCENC  =      -237.53823874
  PAW double counting   =      1145.11803105     -870.23140536
  entropy T*S    EENTRO =        -0.00000000
  eigenvalues    EBANDS =      -142.76108394
  atomic energy  EATOM  =       702.42789710
  Solvation  Ediel_sol  =         0.00000000
  ---------------------------------------------------
  free energy    TOTEN  =       -16.26360527 eV

  energy without entropy =      -16.26360527  energy(sigma->0) =      -16.26360527


--------------------------------------------------------------------------------------------------------




--------------------------------------- Iteration      1(  16)  ---------------------------------------


    POTLOK:  cpu time    0.0400: real time    0.0401
    SETDIJ:  cpu time    0.0037: real time    0.0037
     EDDAV:  cpu time    2.8407: real time    2.8487
       DOS:  cpu time    0.0039: real time    0.0039
    CHARGE:  cpu time    0.2247: real time    0.2251
    MIXING:  cpu time    0.0017: real time    0.0017
    --------------------------------------------
      LOOP:  cpu time    3.1147: real time    3.1233

 eigenvalue-minimisations  :  3480
 total energy-change (2. order) :-0.4728093E-04  (-0.8509297E-06)
 number of electron      20.0000000 magnetization 
 augmentation part       -4.4819478 magnetization 

 Broyden mixing:
  rms(total) = 0.12883E-03    rms(broyden)= 0.12883E-03
  rms(prec ) = 0.22919E-03
  weight for this iteration     100.00

 eigenvalues of (default mixing * dielectric matrix)
  average eigenvalue GAMMA=   2.2824
  6.7983  4.5073  2.6471  2.6471  2.2626  1.1573  1.1573  1.1931  0.9351  0.9351
  0.8660

 Free energy of the ion-electron system (eV)
  ---------------------------------------------------
  alpha Z        PSCENC =         9.55197743
  Ewald energy   TEWEN  =      1160.79231688
  -Hartree energ DENC   =     -1783.67634601
  -exchange      EXHF   =         0.00000000
  -V(xc)+E(xc)   XCENC  =      -237.53835262
  PAW double counting   =      1144.94422134     -870.05759161
  entropy T*S    EENTRO =        -0.00000000
  eigenvalues    EBANDS =      -142.70777506
  atomic energy  EATOM  =       702.42789710
  Solvation  Ediel_sol  =         0.00000000
  ---------------------------------------------------
  free energy    TOTEN  =       -16.26365255 eV

  energy without entropy =      -16.26365255  energy(sigma->0) =      -16.26365255


--------------------------------------------------------------------------------------------------------




--------------------------------------- Iteration      1(  17)  ---------------------------------------


    POTLOK:  cpu time    0.0393: real time    0.0394
    SETDIJ:  cpu time    0.0036: real time    0.0036
     EDDAV:  cpu time    2.7166: real time    2.7239
       DOS:  cpu time    0.0039: real time    0.0039
    CHARGE:  cpu time    0.2199: real time    0.2204
    MIXING:  cpu time    0.0018: real time    0.0018
    --------------------------------------------
[...]
  band No.  band energies     occupation 
      1     -14.5474      2.00000
      2     -14.2912      2.00000
      3      -8.8204      2.00000
      4      -8.6001      2.00000
      5      -6.0765      2.00000
      6      -5.1139      2.00000
      7      -4.8115      2.00000
      8      -4.0759      2.00000
      9      -3.8743      2.00000
     10      -3.0854      2.00000
     11       0.1527      0.00000
     12       1.0980      0.00000
     13       1.2006      0.00000
     14       1.6136      0.00000

 k-point    96 :      -0.2000    0.4000    0.0000
  band No.  band energies     occupation 
      1     -14.6187      2.00000
      2     -14.3155      2.00000
      3      -8.9898      2.00000
      4      -8.7072      2.00000
      5      -5.6298      2.00000
      6      -4.8165      2.00000
      7      -4.5492      2.00000
      8      -3.9441      2.00000
      9      -3.4916      2.00000
     10      -2.6920      2.00000
     11      -0.3237      0.00000
     12       0.6034      0.00000
     13       0.7181      0.00000
     14       1.2366      0.00000

 k-point    97 :      -0.1333    0.4000    0.0000
  band No.  band energies     occupation 
      1     -14.6757      2.00000
      2     -14.3396      2.00000
      3      -9.1207      2.00000
      4      -8.7949      2.00000
      5      -5.1026      2.00000
      6      -4.7582      2.00000
      7      -4.1297      2.00000
      8      -3.9016      2.00000
      9      -2.9081      2.00000
     10      -2.4435      2.00000
     11      -0.6158      0.00000
     12      -0.1356      0.00000
     13       0.4907      0.00000
     14       0.8111      0.00000

 k-point    98 :      -0.0667    0.4000    0.0000
  band No.  band energies     occupation 
      1     -14.7124      2.00000
      2     -14.3568      2.00000
      3      -9.2024      2.00000
      4      -8.8517      2.00000
      5      -4.7665      2.00000
      6      -4.5587      2.00000
      7      -3.9254      2.00000
      8      -3.7093      2.00000
      9      -2.6108      2.00000
     10      -2.3166      2.00000
     11      -0.7424      0.00000
     12      -0.3670      0.00000
     13       0.2454      0.00000
     14       0.3694      0.00000

 k-point    99 :       0.0000    0.4667    0.0000
  band No.  band energies     occupation 
      1     -14.5800      2.00000
      2     -14.4554      2.00000
      3      -9.2161      2.00000
      4      -9.0927      2.00000
      5      -4.5253      2.00000
      6      -4.2993      2.00000
      7      -3.8207      2.00000
      8      -3.6215      2.00000
      9      -2.5186      2.00000
     10      -2.1639      2.00000
     11      -0.8806      0.00000
     12      -0.4322      0.00000
     13      -0.0696      0.00000
     14       0.1310      0.00000

 k-point   100 :       0.0667    0.4667    0.0000
  band No.  band energies     occupation 
      1     -14.5695      2.00000
      2     -14.4471      2.00000
      3      -9.1876      2.00000
      4      -9.0670      2.00000
      5      -4.5372      2.00000
      6      -4.4060      2.00000
      7      -3.9854      2.00000
      8      -3.8397      2.00000
      9      -2.4304      2.00000
     10      -2.3282      2.00000
     11      -0.7867      0.00000
     12      -0.6810      0.00000
     13       0.3027      0.00000
     14       0.6052      0.00000

 k-point   101 :       0.1333    0.4667    0.0000
  band No.  band energies     occupation 
      1     -14.5393      2.00000
      2     -14.4238      2.00000
      3      -9.1031      2.00000
      4      -8.9912      2.00000
      5      -4.8209      2.00000
      6      -4.6402      2.00000
      7      -4.2266      2.00000
      8      -4.1095      2.00000
      9      -2.8171      2.00000
     10      -2.6037      2.00000
     11      -0.5307      0.00000
     12      -0.2872      0.00000
     13       0.7916      0.00000
     14       0.9030      0.00000

 k-point   102 :       0.2000    0.4667    0.0000
  band No.  band energies     occupation 
      1     -14.4934      2.00000
      2     -14.3893      2.00000
      3      -8.9664      2.00000
      4      -8.8695      2.00000
      5      -5.3455      2.00000
      6      -5.0191      2.00000
      7      -4.4181      2.00000
      8      -4.1825      2.00000
      9      -3.3522      2.00000
     10      -3.0488      2.00000
     11       0.0060      0.00000
     12       0.3715      0.00000
     13       1.0257      0.00000
     14       1.2526      0.00000

 k-point   103 :       0.2667    0.4667    0.0000
  band No.  band energies     occupation 
      1     -14.4379      2.00000
      2     -14.3500      2.00000
      3      -8.7853      2.00000
      4      -8.7106      2.00000
      5      -5.8319      2.00000
      6      -5.4875      2.00000
      7      -4.6122      2.00000
      8      -4.3490      2.00000
      9      -3.7070      2.00000
     10      -3.4311      2.00000
     11       0.5165      0.00000
     12       0.8747      0.00000
     13       1.4501      0.00000
     14       1.7022      0.00000

 k-point   104 :       0.3333    0.4667    0.0000
  band No.  band energies     occupation 
      1     -14.3807      2.00000
      2     -14.3137      2.00000
      3      -8.5763      2.00000
      4      -8.5301      2.00000
      5      -6.2316      2.00000
      6      -5.9154      2.00000
      7      -4.9205      2.00000
      8      -4.6584      2.00000
      9      -3.8157      2.00000
     10      -3.6164      2.00000
     11       0.8599      0.00000
     12       1.1325      0.00000
     13       2.0257      0.00000
     14       2.3032      0.00000

 k-point   105 :       0.4000    0.4667    0.0000
  band No.  band energies     occupation 
      1     -14.3308      2.00000
      2     -14.2887      2.00000
      3      -8.3738      2.00000
      4      -8.3566      2.00000
      5      -6.5099      2.00000
      6      -6.2749      2.00000
      7      -5.1867      2.00000
      8      -4.9905      2.00000
      9      -3.8068      2.00000
     10      -3.6861      2.00000
     11       1.1000      0.00000
     12       1.2704      0.00000
     13       2.5217      0.00000
     14       2.7528      0.00000

 k-point   106 :       0.4667    0.4667    0.0000
  band No.  band energies     occupation 
      1     -14.2960      2.00000
      2     -14.2817      2.00000
      3      -8.2408      2.00000
      4      -8.2392      2.00000
      5      -6.6217      2.00000
      6      -6.5319      2.00000
      7      -5.2980      2.00000
      8      -5.2249      2.00000
      9      -3.7673      2.00000
     10      -3.7267      2.00000
     11       1.2585      0.00000
     12       1.3166      0.00000
     13       2.7014      0.00000
     14       2.7861      0.00000

 k-point   107 :      -0.4667    0.4667    0.0000
  band No.  band energies     occupation 
      1     -14.2960      2.00000
      2     -14.2817      2.00000
      3      -8.2408      2.00000
      4      -8.2392      2.00000
      5      -6.6217      2.00000
      6      -6.5319      2.00000
      7      -5.2980      2.00000
      8      -5.2249      2.00000
      9      -3.7673      2.00000
     10      -3.7267      2.00000
     11       1.2585      0.00000
     12       1.3166      0.00000
     13       2.7014      0.00000
     14       2.7861      0.00000

 k-point   108 :      -0.4000    0.4667    0.0000
  band No.  band energies     occupation 
      1     -14.3308      2.00000
      2     -14.2887      2.00000
      3      -8.3738      2.00000
      4      -8.3566      2.00000
      5      -6.5099      2.00000
      6      -6.2749      2.00000
      7      -5.1867      2.00000
      8      -4.9905      2.00000
      9      -3.8068      2.00000
     10      -3.6861      2.00000
     11       1.1000      0.00000
     12       1.2704      0.00000
     13       2.5217      0.00000
     14       2.7528      0.00000

 k-point   109 :      -0.3333    0.4667    0.0000
  band No.  band energies     occupation 
      1     -14.3807      2.00000
      2     -14.3137      2.00000
      3      -8.5763      2.00000
      4      -8.5301      2.00000
      5      -6.2316      2.00000
      6      -5.9154      2.00000
      7      -4.9205      2.00000
      8      -4.6584      2.00000
      9      -3.8157      2.00000
     10      -3.6164      2.00000
     11       0.8599      0.00000
     12       1.1325      0.00000
     13       2.0257      0.00000
     14       2.3032      0.00000

 k-point   110 :      -0.2667    0.4667    0.0000
  band No.  band energies     occupation 
      1     -14.4379      2.00000
      2     -14.3500      2.00000
      3      -8.7853      2.00000
      4      -8.7106      2.00000
      5      -5.8319      2.00000
      6      -5.4875      2.00000
      7      -4.6122      2.00000
      8      -4.3490      2.00000
      9      -3.7070      2.00000
     10      -3.4311      2.00000
     11       0.5165      0.00000
     12       0.8747      0.00000
     13       1.4501      0.00000
     14       1.7022      0.00000

 k-point   111 :      -0.2000    0.4667    0.0000
  band No.  band energies     occupation 
      1     -14.4934      2.00000
      2     -14.3893      2.00000
      3      -8.9664      2.00000
      4      -8.8695      2.00000
      5      -5.3455      2.00000
      6      -5.0191      2.00000
      7      -4.4181      2.00000
      8      -4.1825      2.00000
      9      -3.3522      2.00000
     10      -3.0488      2.00000
     11       0.0060      0.00000
     12       0.3715      0.00000
     13       1.0257      0.00000
     14       1.2526      0.00000

 k-point   112 :      -0.1333    0.4667    0.0000
  band No.  band energies     occupation 
      1     -14.5393      2.00000
      2     -14.4238      2.00000
      3      -9.1031      2.00000
      4      -8.9912      2.00000
      5      -4.8209      2.00000
      6      -4.6402      2.00000
      7      -4.2266      2.00000
      8      -4.1095      2.00000
      9      -2.8171      2.00000
     10      -2.6037      2.00000
     11      -0.5307      0.00000
     12      -0.2872      0.00000
     13       0.7916      0.00000
     14       0.9030      0.00000

 k-point   113 :      -0.0667    0.4667    0.0000
  band No.  band energies     occupation 
      1     -14.5695      2.00000
      2     -14.4471      2.00000
      3      -9.1876      2.00000
      4      -9.0670      2.00000
      5      -4.5372      2.00000
      6      -4.4060      2.00000
      7      -3.9854      2.00000
      8      -3.8397      2.00000
      9      -2.4304      2.00000
     10      -2.3282      2.00000
     11      -0.7867      0.00000
     12      -0.6810      0.00000
     13       0.3027      0.00000
     14       0.6052      0.00000


--------------------------------------------------------------------------------------------------------


 soft charge-density along one line, spin component           1
         0         1         2         3         4         5         6         7         8         9
 total charge-density along one line
 
 pseudopotential strength for first ion, spin component:           1
 30.077 -23.430  -0.000  -0.089   0.031  -0.000  -0.140   0.049
-23.430  28.114   0.000   0.050  -0.017   0.000   0.082  -0.028
 -0.000   0.000   6.330  -0.000   0.000   9.793  -0.000   0.000
 -0.089   0.050  -0.000   6.328   0.001  -0.000   9.789   0.002
  0.031  -0.017   0.000   0.001   6.330   0.000   0.002   9.792
 -0.000   0.000   9.793  -0.000   0.000  15.221  -0.000   0.000
 -0.140   0.082  -0.000   9.789   0.002  -0.000  15.214   0.004
  0.049  -0.028   0.000   0.002   9.792   0.000   0.004  15.220
  0.000  -0.000   0.007  -0.000  -0.000   0.010  -0.000  -0.000
 -0.000   0.000  -0.020  -0.000  -0.000  -0.031  -0.000  -0.000
 -0.002   0.003   0.000  -0.023  -0.004   0.000  -0.035  -0.006
  0.003  -0.001  -0.000   0.007  -0.020  -0.000   0.012  -0.031
 -0.000   0.000   0.000  -0.000   0.008   0.000  -0.000   0.012
 total augmentation occupancy for first ion, spin component:           1
  2.026  -0.015   0.000   0.237  -0.079  -0.000  -0.042   0.014  -0.000  -0.000   0.023   0.002   0.000
 -0.015   0.009  -0.000  -0.073   0.024   0.000   0.018  -0.006  -0.000  -0.000  -0.002   0.001  -0.000
  0.000  -0.000   1.507   0.000  -0.000  -0.406   0.000   0.000   0.111  -0.042   0.000   0.000  -0.000
  0.237  -0.073   0.000   1.840  -0.000   0.000  -0.486  -0.013   0.000   0.000  -0.268  -0.016  -0.000
 -0.079   0.024  -0.000  -0.000   1.493   0.000  -0.013  -0.397  -0.000   0.000  -0.071  -0.044  -0.006
 -0.000   0.000  -0.406   0.000   0.000   0.118  -0.000  -0.000  -0.030   0.012  -0.000  -0.000   0.000
 -0.042   0.018   0.000  -0.486  -0.013  -0.000   0.140   0.006  -0.000  -0.000   0.074   0.004   0.000
  0.014  -0.006   0.000  -0.013  -0.397  -0.000   0.006   0.114   0.000  -0.000   0.019   0.012   0.002
 -0.000  -0.000   0.111   0.000  -0.000  -0.030  -0.000   0.000   0.077   0.000   0.000  -0.000  -0.000
 -0.000  -0.000  -0.042   0.000   0.000   0.012  -0.000  -0.000   0.000   0.021  -0.000  -0.000   0.000
  0.023  -0.002   0.000  -0.268  -0.071  -0.000   0.074   0.019   0.000  -0.000   0.078   0.005   0.001
  0.002   0.001   0.000  -0.016  -0.044  -0.000   0.004   0.012  -0.000  -0.000   0.005   0.022   0.000
  0.000  -0.000  -0.000  -0.000  -0.006   0.000   0.000   0.002  -0.000   0.000   0.001   0.000   0.017


------------------------ aborting loop because EDIFF is reached ----------------------------------------


    CHARGE:  cpu time    0.2114: real time    0.2118
    FORLOC:  cpu time    0.0021: real time    0.0021
    FORNL :  cpu time    0.3801: real time    0.3808
    STRESS:  cpu time    0.6586: real time    0.6602
    FORCOR:  cpu time    0.0386: real time    0.0387
    FORHAR:  cpu time    0.0097: real time    0.0097
    MIXING:  cpu time    0.0009: real time    0.0009
    OFIELD:  cpu time    0.0000: real time    0.0000

  FORCE on cell =-STRESS in cart. coord.  units (eV):
  Direction    XX          YY          ZZ          XY          YZ          ZX
  --------------------------------------------------------------------------------------
  Alpha Z     9.55198     9.55198     9.55198
  Ewald    1614.84124  1618.47862 -2073.51932    -0.00000    -0.00000    -0.00013
  Hartree  1735.12365  1736.42112 -1688.67605    -0.00000    -0.00000    -0.00003
  E(xc)     -77.67972   -77.68940   -78.91275     0.00000    -0.00000     0.00000
  Local   -3602.70862 -3607.17506  3507.33591     0.00000     0.00000     0.00015
  n-local   162.55468   162.70762   167.24951    -0.00000     0.00000    -0.00002
  augment   -31.87483   -31.82605   -32.80438     0.00000     0.00000    -0.00000
  Kinetic   190.30821   189.63293   189.77359     0.00000    -0.00000     0.00002
  Fock        0.00000     0.00000     0.00000     0.00000     0.00000     0.00000
  -------------------------------------------------------------------------------------
  Total       0.11657     0.10174    -0.00150    -0.00000    -0.00000     0.00001
  in kB       0.49894     0.43546    -0.00641    -0.00000    -0.00000     0.00002
  external pressure =        0.31 kB  Pullay stress =        0.00 kB


 VOLUME and BASIS-vectors are now :
 -----------------------------------------------------------------------------
  energy-cutoff  :      600.00
  volume of cell :      374.34
      direct lattice vectors                 reciprocal lattice vectors
     4.360444981  0.000000000  0.000000000     0.229334392  0.000000000  0.000000000
     0.000000000  4.292477857  0.000000000     0.000000000  0.232965675  0.000000000
     0.000000000  0.000000000 20.000000000     0.000000000  0.000000000  0.050000000

  length of vectors
     4.360444981  4.292477857 20.000000000     0.229334392  0.232965675  0.050000000


 FORCES acting on ions
    electron-ion (+dipol)            ewald-force                    non-local-force                 convergence-correction
 -----------------------------------------------------------------------------------------------
   0.376E+01 -.166E-05 -.145E+03   -.510E+01 0.221E-05 0.149E+03   0.134E+01 -.504E-06 -.380E+01   -.666E-04 -.908E-08 -.795E-03
   0.376E+01 -.132E-05 0.145E+03   -.510E+01 0.179E-05 -.149E+03   0.134E+01 -.452E-06 0.380E+01   -.596E-04 -.379E-09 0.920E-03
   -.470E+01 0.197E-05 -.207E+03   0.510E+01 -.223E-05 0.210E+03   -.397E+00 0.174E-06 -.204E+01   0.889E-03 0.594E-07 -.219E-02
   -.470E+01 0.160E-05 0.207E+03   0.510E+01 -.177E-05 -.210E+03   -.397E+00 0.136E-06 0.204E+01   0.891E-03 0.240E-07 0.247E-02
 -----------------------------------------------------------------------------------------------
   -.189E+01 0.587E-06 -.493E-03   -.799E-14 -.169E-14 0.000E+00   0.189E+01 -.646E-06 0.965E-04   0.165E-02 0.739E-07 0.408E-03
 
 
 POSITION                                       TOTAL-FORCE (eV/Angst)
 -----------------------------------------------------------------------------------
      2.52309      3.21936     11.37414         0.000848      0.000000     -0.000308
      0.34287      1.07312      8.62587         0.000850      0.000000      0.000254
      0.15468      1.07312     11.34377        -0.000851     -0.000000      0.000387
      2.33490      3.21936      8.65622        -0.000847     -0.000000     -0.000333
 -----------------------------------------------------------------------------------
    total drift:                                0.000070      0.000000      0.000011


--------------------------------------------------------------------------------------------------------



  FREE ENERGIE OF THE ION-ELECTRON SYSTEM (eV)
  ---------------------------------------------------
  free  energy   TOTEN  =       -16.26409207 eV

  energy  without entropy=      -16.26409207  energy(sigma->0) =      -16.26409207
 
 d Force = 0.6629372E-06[ 0.500E-06, 0.826E-06]  d Energy = 0.7399240E-06-0.770E-07
 d Force = 0.5258894E-01[ 0.526E-01, 0.526E-01]  d Ewald  = 0.5258894E-01-0.108E-09


--------------------------------------------------------------------------------------------------------


    POTLOK:  cpu time    0.0415: real time    0.0416


--------------------------------------------------------------------------------------------------------


 Conjugate gradient step on ions:
 trial-energy change:   -0.000001  1 .order   -0.000001   -0.000001   -0.000000
  (g-gl).g = 0.214E-06      g.g   = 0.309E-06  gl.gl    = 0.193E-05
 g(Force)  = 0.309E-06   g(Stress)= 0.000E+00 ortho     = 0.961E-08
 gamma     =   0.11069
 trial     =   2.66697
 opt step  =   6.75313  (harmonic =   6.75313) maximal distance =0.00048012
 next E    =   -16.264092   (d E  =  -0.00000)


--------------------------------------------------------------------------------------------------------


  
 reached required accuracy - stopping structural energy minimisation
 writing wavefunctions
     LOOP+:  cpu time    8.5913: real time    9.3690
    4ORBIT:  cpu time    0.0000: real time    0.0000

 total amount of memory used by VASP MPI-rank0    63513. kBytes
=======================================================================

   base      :      30000. kBytes
   nonl-proj :      12608. kBytes
   fftplans  :       2678. kBytes
   grid      :       4349. kBytes
   one-center:          8. kBytes
   wavefun   :      13870. kBytes
 
  
  
 General timing and accounting informations for this job:
 ========================================================
  
                  Total CPU time used (sec):      230.919
                            User time (sec):      229.556
                          System time (sec):        1.363
                         Elapsed time (sec):      242.620
  
                   Maximum memory used (kb):      210724.
                   Average memory used (kb):           0.
  
                          Minor page faults:       447222
                          Major page faults:          120
                 Voluntary context switches:        16018
