./data/1T-MoS2-shift-out_1.0.lmp (written by ASE) 

600 	 atoms 
2  atom types
0.0       54.87811003154939  xlo xhi
0.0       31.63286295511735  ylo yhi
0.0      19.236492664770214  zlo zhi


Atoms 

     1   2 -0.20464587295567863       2.382606180748823      2.8067691417544385      11.617906927054886
     2   2 -0.20464587295567863       2.382606180748823      5.9700554372661738      11.617906927054886
     3   2 -0.20464587295567863       2.382606180748823      9.1333417327779074      11.617906927054886
     4   2 -0.20464587295567863       2.382606180748823      12.296628028289643      11.617906927054886
     5   2 -0.20464587295567863       2.382606180748823      15.459914323801378      11.617906927054886
     6   2 -0.20464587295567863       2.382606180748823      18.623200619313113      11.617906927054886
     7   2 -0.20464587295567863       2.382606180748823      21.786486914824849      11.617906927054886
     8   2 -0.20464587295567863       2.382606180748823      24.949773210336584      11.617906927054886
     9   2 -0.20464587295567863       2.382606180748823      28.113059505848319      11.617906927054886
    10   2 -0.20464587295567863       2.382606180748823      31.276345801360055      11.617906927054886
    11   2 -0.20464587295567863      7.8704171839037622      2.8067691417544385      11.617906927054886
    12   2 -0.20464587295567863      7.8704171839037622      5.9700554372661738      11.617906927054886
    13   2 -0.20464587295567863      7.8704171839037622      9.1333417327779074      11.617906927054886
    14   2 -0.20464587295567863      7.8704171839037622      12.296628028289643      11.617906927054886
    15   2 -0.20464587295567863      7.8704171839037622      15.459914323801378      11.617906927054886
    16   2 -0.20464587295567863      7.8704171839037622      18.623200619313113      11.617906927054886
    17   2 -0.20464587295567863      7.8704171839037622      21.786486914824849      11.617906927054886
    18   2 -0.20464587295567863      7.8704171839037622      24.949773210336584      11.617906927054886
    19   2 -0.20464587295567863      7.8704171839037622      28.113059505848319      11.617906927054886
    20   2 -0.20464587295567863      7.8704171839037622      31.276345801360055      11.617906927054886
    21   2 -0.20464587295567863      13.358228187058701      2.8067691417544385      11.617906927054886
    22   2 -0.20464587295567863      13.358228187058701      5.9700554372661738      11.617906927054886
    23   2 -0.20464587295567863      13.358228187058701      9.1333417327779074      11.617906927054886
    24   2 -0.20464587295567863      13.358228187058701      12.296628028289643      11.617906927054886
    25   2 -0.20464587295567863      13.358228187058701      15.459914323801378      11.617906927054886
    26   2 -0.20464587295567863      13.358228187058701      18.623200619313113      11.617906927054886
    27   2 -0.20464587295567863      13.358228187058701      21.786486914824849      11.617906927054886
    28   2 -0.20464587295567863      13.358228187058701      24.949773210336584      11.617906927054886
    29   2 -0.20464587295567863      13.358228187058701      28.113059505848319      11.617906927054886
    30   2 -0.20464587295567863      13.358228187058701      31.276345801360055      11.617906927054886
    31   2 -0.20464587295567863      18.846039190213641      2.8067691417544385      11.617906927054886
    32   2 -0.20464587295567863      18.846039190213641      5.9700554372661738      11.617906927054886
    33   2 -0.20464587295567863      18.846039190213641      9.1333417327779074      11.617906927054886
    34   2 -0.20464587295567863      18.846039190213641      12.296628028289643      11.617906927054886
    35   2 -0.20464587295567863      18.846039190213641      15.459914323801378      11.617906927054886
    36   2 -0.20464587295567863      18.846039190213641      18.623200619313113      11.617906927054886
    37   2 -0.20464587295567863      18.846039190213641      21.786486914824849      11.617906927054886
    38   2 -0.20464587295567863      18.846039190213641      24.949773210336584      11.617906927054886
    39   2 -0.20464587295567863      18.846039190213641      28.113059505848319      11.617906927054886
    40   2 -0.20464587295567863      18.846039190213641      31.276345801360055      11.617906927054886
    41   2 -0.20464587295567863       24.33385019336858      2.8067691417544385      11.617906927054886
    42   2 -0.20464587295567863       24.33385019336858      5.9700554372661738      11.617906927054886
    43   2 -0.20464587295567863       24.33385019336858      9.1333417327779074      11.617906927054886
    44   2 -0.20464587295567863       24.33385019336858      12.296628028289643      11.617906927054886
    45   2 -0.20464587295567863       24.33385019336858      15.459914323801378      11.617906927054886
    46   2 -0.20464587295567863       24.33385019336858      18.623200619313113      11.617906927054886
    47   2 -0.20464587295567863       24.33385019336858      21.786486914824849      11.617906927054886
    48   2 -0.20464587295567863       24.33385019336858      24.949773210336584      11.617906927054886
    49   2 -0.20464587295567863       24.33385019336858      28.113059505848319      11.617906927054886
    50   2 -0.20464587295567863       24.33385019336858      31.276345801360055      11.617906927054886
    51   2 -0.20464587295567863      29.821661196523518      2.8067691417544385      11.617906927054886
    52   2 -0.20464587295567863      29.821661196523518      5.9700554372661738      11.617906927054886
    53   2 -0.20464587295567863      29.821661196523518      9.1333417327779074      11.617906927054886
    54   2 -0.20464587295567863      29.821661196523518      12.296628028289643      11.617906927054886
    55   2 -0.20464587295567863      29.821661196523518      15.459914323801378      11.617906927054886
    56   2 -0.20464587295567863      29.821661196523518      18.623200619313113      11.617906927054886
    57   2 -0.20464587295567863      29.821661196523518      21.786486914824849      11.617906927054886
    58   2 -0.20464587295567863      29.821661196523518      24.949773210336584      11.617906927054886
    59   2 -0.20464587295567863      29.821661196523518      28.113059505848319      11.617906927054886
    60   2 -0.20464587295567863      29.821661196523518      31.276345801360055      11.617906927054886
    61   2 -0.20464587295567863       35.30947219967846      2.8067691417544385      11.617906927054886
    62   2 -0.20464587295567863       35.30947219967846      5.9700554372661738      11.617906927054886
    63   2 -0.20464587295567863       35.30947219967846      9.1333417327779074      11.617906927054886
    64   2 -0.20464587295567863       35.30947219967846      12.296628028289643      11.617906927054886
    65   2 -0.20464587295567863       35.30947219967846      15.459914323801378      11.617906927054886
    66   2 -0.20464587295567863       35.30947219967846      18.623200619313113      11.617906927054886
    67   2 -0.20464587295567863       35.30947219967846      21.786486914824849      11.617906927054886
    68   2 -0.20464587295567863       35.30947219967846      24.949773210336584      11.617906927054886
    69   2 -0.20464587295567863       35.30947219967846      28.113059505848319      11.617906927054886
    70   2 -0.20464587295567863       35.30947219967846      31.276345801360055      11.617906927054886
    71   2 -0.20464587295567863      40.797283202833398      2.8067691417544385      11.617906927054886
    72   2 -0.20464587295567863      40.797283202833398      5.9700554372661738      11.617906927054886
    73   2 -0.20464587295567863      40.797283202833398      9.1333417327779074      11.617906927054886
    74   2 -0.20464587295567863      40.797283202833398      12.296628028289643      11.617906927054886
    75   2 -0.20464587295567863      40.797283202833398      15.459914323801378      11.617906927054886
    76   2 -0.20464587295567863      40.797283202833398      18.623200619313113      11.617906927054886
    77   2 -0.20464587295567863      40.797283202833398      21.786486914824849      11.617906927054886
    78   2 -0.20464587295567863      40.797283202833398      24.949773210336584      11.617906927054886
    79   2 -0.20464587295567863      40.797283202833398      28.113059505848319      11.617906927054886
    80   2 -0.20464587295567863      40.797283202833398      31.276345801360055      11.617906927054886
    81   2 -0.20464587295567863      46.285094205988337      2.8067691417544385      11.617906927054886
    82   2 -0.20464587295567863      46.285094205988337      5.9700554372661738      11.617906927054886
    83   2 -0.20464587295567863      46.285094205988337      9.1333417327779074      11.617906927054886
    84   2 -0.20464587295567863      46.285094205988337      12.296628028289643      11.617906927054886
    85   2 -0.20464587295567863      46.285094205988337      15.459914323801378      11.617906927054886
    86   2 -0.20464587295567863      46.285094205988337      18.623200619313113      11.617906927054886
    87   2 -0.20464587295567863      46.285094205988337      21.786486914824849      11.617906927054886
    88   2 -0.20464587295567863      46.285094205988337      24.949773210336584      11.617906927054886
    89   2 -0.20464587295567863      46.285094205988337      28.113059505848319      11.617906927054886
    90   2 -0.20464587295567863      46.285094205988337      31.276345801360055      11.617906927054886
    91   2 -0.20464587295567863      51.772905209143275      2.8067691417544385      11.617906927054886
    92   2 -0.20464587295567863      51.772905209143275      5.9700554372661738      11.617906927054886
    93   2 -0.20464587295567863      51.772905209143275      9.1333417327779074      11.617906927054886
    94   2 -0.20464587295567863      51.772905209143275      12.296628028289643      11.617906927054886
    95   2 -0.20464587295567863      51.772905209143275      15.459914323801378      11.617906927054886
    96   2 -0.20464587295567863      51.772905209143275      18.623200619313113      11.617906927054886
    97   2 -0.20464587295567863      51.772905209143275      21.786486914824849      11.617906927054886
    98   2 -0.20464587295567863      51.772905209143275      24.949773210336584      11.617906927054886
    99   2 -0.20464587295567863      51.772905209143275      28.113059505848319      11.617906927054886
   100   2 -0.20464587295567863      51.772905209143275      31.276345801360055      11.617906927054886
   101   2 -0.20987617179555196      4.9517902157406359       4.389935452096406      11.565599514490625
   102   2 -0.20987617179555196      4.9517902157406359      7.5532217476081405      11.565599514490625
   103   2 -0.20987617179555196      4.9517902157406359      10.716508043119875      11.565599514490625
   104   2 -0.20987617179555196      4.9517902157406359       13.87979433863161      11.565599514490625
   105   2 -0.20987617179555196      4.9517902157406359      17.043080634143347      11.565599514490625
   106   2 -0.20987617179555196      4.9517902157406359      20.206366929655083      11.565599514490625
   107   2 -0.20987617179555196      4.9517902157406359      23.369653225166815      11.565599514490625
   108   2 -0.20987617179555196      4.9517902157406359       26.53293952067855      11.565599514490625
   109   2 -0.20987617179555196      4.9517902157406359      29.696225816190285      11.565599514490625
   110   2 -0.20987617179555196      4.9517902157406359      32.859512111702017      11.565599514490625
   111   2 -0.20987617179555196      10.439601218895575       4.389935452096406      11.565599514490625
   112   2 -0.20987617179555196      10.439601218895575      7.5532217476081405      11.565599514490625
   113   2 -0.20987617179555196      10.439601218895575      10.716508043119875      11.565599514490625
   114   2 -0.20987617179555196      10.439601218895575       13.87979433863161      11.565599514490625
   115   2 -0.20987617179555196      10.439601218895575      17.043080634143347      11.565599514490625
   116   2 -0.20987617179555196      10.439601218895575      20.206366929655083      11.565599514490625
   117   2 -0.20987617179555196      10.439601218895575      23.369653225166815      11.565599514490625
   118   2 -0.20987617179555196      10.439601218895575       26.53293952067855      11.565599514490625
   119   2 -0.20987617179555196      10.439601218895575      29.696225816190285      11.565599514490625
   120   2 -0.20987617179555196      10.439601218895575      32.859512111702017      11.565599514490625
   121   2 -0.20987617179555196      15.927412222050515       4.389935452096406      11.565599514490625
   122   2 -0.20987617179555196      15.927412222050515      7.5532217476081405      11.565599514490625
   123   2 -0.20987617179555196      15.927412222050515      10.716508043119875      11.565599514490625
   124   2 -0.20987617179555196      15.927412222050515       13.87979433863161      11.565599514490625
   125   2 -0.20987617179555196      15.927412222050515      17.043080634143347      11.565599514490625
   126   2 -0.20987617179555196      15.927412222050515      20.206366929655083      11.565599514490625
   127   2 -0.20987617179555196      15.927412222050515      23.369653225166815      11.565599514490625
   128   2 -0.20987617179555196      15.927412222050515       26.53293952067855      11.565599514490625
   129   2 -0.20987617179555196      15.927412222050515      29.696225816190285      11.565599514490625
   130   2 -0.20987617179555196      15.927412222050515      32.859512111702017      11.565599514490625
   131   2 -0.20987617179555196      21.415223225205455       4.389935452096406      11.565599514490625
   132   2 -0.20987617179555196      21.415223225205455      7.5532217476081405      11.565599514490625
   133   2 -0.20987617179555196      21.415223225205455      10.716508043119875      11.565599514490625
   134   2 -0.20987617179555196      21.415223225205455       13.87979433863161      11.565599514490625
   135   2 -0.20987617179555196      21.415223225205455      17.043080634143347      11.565599514490625
   136   2 -0.20987617179555196      21.415223225205455      20.206366929655083      11.565599514490625
   137   2 -0.20987617179555196      21.415223225205455      23.369653225166815      11.565599514490625
   138   2 -0.20987617179555196      21.415223225205455       26.53293952067855      11.565599514490625
   139   2 -0.20987617179555196      21.415223225205455      29.696225816190285      11.565599514490625
   140   2 -0.20987617179555196      21.415223225205455      32.859512111702017      11.565599514490625
   141   2 -0.20987617179555196      26.903034228360394       4.389935452096406      11.565599514490625
   142   2 -0.20987617179555196      26.903034228360394      7.5532217476081405      11.565599514490625
   143   2 -0.20987617179555196      26.903034228360394      10.716508043119875      11.565599514490625
   144   2 -0.20987617179555196      26.903034228360394       13.87979433863161      11.565599514490625
   145   2 -0.20987617179555196      26.903034228360394      17.043080634143347      11.565599514490625
   146   2 -0.20987617179555196      26.903034228360394      20.206366929655083      11.565599514490625
   147   2 -0.20987617179555196      26.903034228360394      23.369653225166815      11.565599514490625
   148   2 -0.20987617179555196      26.903034228360394       26.53293952067855      11.565599514490625
   149   2 -0.20987617179555196      26.903034228360394      29.696225816190285      11.565599514490625
   150   2 -0.20987617179555196      26.903034228360394      32.859512111702017      11.565599514490625
   151   2 -0.20987617179555196      32.390845231515328       4.389935452096406      11.565599514490625
   152   2 -0.20987617179555196      32.390845231515328      7.5532217476081405      11.565599514490625
   153   2 -0.20987617179555196      32.390845231515328      10.716508043119875      11.565599514490625
   154   2 -0.20987617179555196      32.390845231515328       13.87979433863161      11.565599514490625
   155   2 -0.20987617179555196      32.390845231515328      17.043080634143347      11.565599514490625
   156   2 -0.20987617179555196      32.390845231515328      20.206366929655083      11.565599514490625
   157   2 -0.20987617179555196      32.390845231515328      23.369653225166815      11.565599514490625
   158   2 -0.20987617179555196      32.390845231515328       26.53293952067855      11.565599514490625
   159   2 -0.20987617179555196      32.390845231515328      29.696225816190285      11.565599514490625
   160   2 -0.20987617179555196      32.390845231515328      32.859512111702017      11.565599514490625
   161   2 -0.20987617179555196      37.878656234670267       4.389935452096406      11.565599514490625
   162   2 -0.20987617179555196      37.878656234670267      7.5532217476081405      11.565599514490625
   163   2 -0.20987617179555196      37.878656234670267      10.716508043119875      11.565599514490625
   164   2 -0.20987617179555196      37.878656234670267       13.87979433863161      11.565599514490625
   165   2 -0.20987617179555196      37.878656234670267      17.043080634143347      11.565599514490625
   166   2 -0.20987617179555196      37.878656234670267      20.206366929655083      11.565599514490625
   167   2 -0.20987617179555196      37.878656234670267      23.369653225166815      11.565599514490625
   168   2 -0.20987617179555196      37.878656234670267       26.53293952067855      11.565599514490625
   169   2 -0.20987617179555196      37.878656234670267      29.696225816190285      11.565599514490625
   170   2 -0.20987617179555196      37.878656234670267      32.859512111702017      11.565599514490625
   171   2 -0.20987617179555196      43.366467237825212       4.389935452096406      11.565599514490625
   172   2 -0.20987617179555196      43.366467237825212      7.5532217476081405      11.565599514490625
   173   2 -0.20987617179555196      43.366467237825212      10.716508043119875      11.565599514490625
   174   2 -0.20987617179555196      43.366467237825212       13.87979433863161      11.565599514490625
   175   2 -0.20987617179555196      43.366467237825212      17.043080634143347      11.565599514490625
   176   2 -0.20987617179555196      43.366467237825212      20.206366929655083      11.565599514490625
   177   2 -0.20987617179555196      43.366467237825212      23.369653225166815      11.565599514490625
   178   2 -0.20987617179555196      43.366467237825212       26.53293952067855      11.565599514490625
   179   2 -0.20987617179555196      43.366467237825212      29.696225816190285      11.565599514490625
   180   2 -0.20987617179555196      43.366467237825212      32.859512111702017      11.565599514490625
   181   2 -0.20987617179555196      48.854278240980143       4.389935452096406      11.565599514490625
   182   2 -0.20987617179555196      48.854278240980143      7.5532217476081405      11.565599514490625
   183   2 -0.20987617179555196      48.854278240980143      10.716508043119875      11.565599514490625
   184   2 -0.20987617179555196      48.854278240980143       13.87979433863161      11.565599514490625
   185   2 -0.20987617179555196      48.854278240980143      17.043080634143347      11.565599514490625
   186   2 -0.20987617179555196      48.854278240980143      20.206366929655083      11.565599514490625
   187   2 -0.20987617179555196      48.854278240980143      23.369653225166815      11.565599514490625
   188   2 -0.20987617179555196      48.854278240980143       26.53293952067855      11.565599514490625
   189   2 -0.20987617179555196      48.854278240980143      29.696225816190285      11.565599514490625
   190   2 -0.20987617179555196      48.854278240980143      32.859512111702017      11.565599514490625
   191   2 -0.20987617179555196      54.342089244135089       4.389935452096406      11.565599514490625
   192   2 -0.20987617179555196      54.342089244135089      7.5532217476081405      11.565599514490625
   193   2 -0.20987617179555196      54.342089244135089      10.716508043119875      11.565599514490625
   194   2 -0.20987617179555196      54.342089244135089       13.87979433863161      11.565599514490625
   195   2 -0.20987617179555196      54.342089244135089      17.043080634143347      11.565599514490625
   196   2 -0.20987617179555196      54.342089244135089      20.206366929655083      11.565599514490625
   197   2 -0.20987617179555196      54.342089244135089      23.369653225166815      11.565599514490625
   198   2 -0.20987617179555196      54.342089244135089       26.53293952067855      11.565599514490625
   199   2 -0.20987617179555196      54.342089244135089      29.696225816190285      11.565599514490625
   200   2 -0.20987617179555196      54.342089244135089      32.859512111702017      11.565599514490625
   201   1 0.4145010606353445     0.50134186984123918      2.8816526910047506      10.091766499311916
   202   1 0.4145010606353445     0.50134186984123918      6.0449389865164855      10.091766499311916
   203   1 0.4145010606353445     0.50134186984123918        9.20822528202822      10.091766499311916
   204   1 0.4145010606353445     0.50134186984123918      12.371511577539955      10.091766499311916
   205   1 0.4145010606353445     0.50134186984123918      15.534797873051691      10.091766499311916
   206   1 0.4145010606353445     0.50134186984123918      18.698084168563426      10.091766499311916
   207   1 0.4145010606353445     0.50134186984123918      21.861370464075158      10.091766499311916
   208   1 0.4145010606353445     0.50134186984123918      25.024656759586893      10.091766499311916
   209   1 0.4145010606353445     0.50134186984123918      28.187943055098629      10.091766499311916
   210   1 0.4145010606353445     0.50134186984123918      31.351229350610364      10.091766499311916
   211   1 0.4145010606353445      5.9891528729961783      2.8816526910047506      10.091766499311916
   212   1 0.4145010606353445      5.9891528729961783      6.0449389865164855      10.091766499311916
   213   1 0.4145010606353445      5.9891528729961783        9.20822528202822      10.091766499311916
   214   1 0.4145010606353445      5.9891528729961783      12.371511577539955      10.091766499311916
   215   1 0.4145010606353445      5.9891528729961783      15.534797873051691      10.091766499311916
   216   1 0.4145010606353445      5.9891528729961783      18.698084168563426      10.091766499311916
   217   1 0.4145010606353445      5.9891528729961783      21.861370464075158      10.091766499311916
   218   1 0.4145010606353445      5.9891528729961783      25.024656759586893      10.091766499311916
   219   1 0.4145010606353445      5.9891528729961783      28.187943055098629      10.091766499311916
   220   1 0.4145010606353445      5.9891528729961783      31.351229350610364      10.091766499311916
   221   1 0.4145010606353445      11.476963876151117      2.8816526910047506      10.091766499311916
   222   1 0.4145010606353445      11.476963876151117      6.0449389865164855      10.091766499311916
   223   1 0.4145010606353445      11.476963876151117        9.20822528202822      10.091766499311916
   224   1 0.4145010606353445      11.476963876151117      12.371511577539955      10.091766499311916
   225   1 0.4145010606353445      11.476963876151117      15.534797873051691      10.091766499311916
   226   1 0.4145010606353445      11.476963876151117      18.698084168563426      10.091766499311916
   227   1 0.4145010606353445      11.476963876151117      21.861370464075158      10.091766499311916
   228   1 0.4145010606353445      11.476963876151117      25.024656759586893      10.091766499311916
   229   1 0.4145010606353445      11.476963876151117      28.187943055098629      10.091766499311916
   230   1 0.4145010606353445      11.476963876151117      31.351229350610364      10.091766499311916
   231   1 0.4145010606353445      16.964774879306059      2.8816526910047506      10.091766499311916
   232   1 0.4145010606353445      16.964774879306059      6.0449389865164855      10.091766499311916
   233   1 0.4145010606353445      16.964774879306059        9.20822528202822      10.091766499311916
   234   1 0.4145010606353445      16.964774879306059      12.371511577539955      10.091766499311916
   235   1 0.4145010606353445      16.964774879306059      15.534797873051691      10.091766499311916
   236   1 0.4145010606353445      16.964774879306059      18.698084168563426      10.091766499311916
   237   1 0.4145010606353445      16.964774879306059      21.861370464075158      10.091766499311916
   238   1 0.4145010606353445      16.964774879306059      25.024656759586893      10.091766499311916
   239   1 0.4145010606353445      16.964774879306059      28.187943055098629      10.091766499311916
   240   1 0.4145010606353445      16.964774879306059      31.351229350610364      10.091766499311916
   241   1 0.4145010606353445      22.452585882460998      2.8816526910047506      10.091766499311916
   242   1 0.4145010606353445      22.452585882460998      6.0449389865164855      10.091766499311916
   243   1 0.4145010606353445      22.452585882460998        9.20822528202822      10.091766499311916
   244   1 0.4145010606353445      22.452585882460998      12.371511577539955      10.091766499311916
   245   1 0.4145010606353445      22.452585882460998      15.534797873051691      10.091766499311916
   246   1 0.4145010606353445      22.452585882460998      18.698084168563426      10.091766499311916
   247   1 0.4145010606353445      22.452585882460998      21.861370464075158      10.091766499311916
   248   1 0.4145010606353445      22.452585882460998      25.024656759586893      10.091766499311916
   249   1 0.4145010606353445      22.452585882460998      28.187943055098629      10.091766499311916
   250   1 0.4145010606353445      22.452585882460998      31.351229350610364      10.091766499311916
   251   1 0.4145010606353445      27.940396885615936      2.8816526910047506      10.091766499311916
   252   1 0.4145010606353445      27.940396885615936      6.0449389865164855      10.091766499311916
   253   1 0.4145010606353445      27.940396885615936        9.20822528202822      10.091766499311916
   254   1 0.4145010606353445      27.940396885615936      12.371511577539955      10.091766499311916
   255   1 0.4145010606353445      27.940396885615936      15.534797873051691      10.091766499311916
   256   1 0.4145010606353445      27.940396885615936      18.698084168563426      10.091766499311916
   257   1 0.4145010606353445      27.940396885615936      21.861370464075158      10.091766499311916
   258   1 0.4145010606353445      27.940396885615936      25.024656759586893      10.091766499311916
   259   1 0.4145010606353445      27.940396885615936      28.187943055098629      10.091766499311916
   260   1 0.4145010606353445      27.940396885615936      31.351229350610364      10.091766499311916
   261   1 0.4145010606353445      33.428207888770878      2.8816526910047506      10.091766499311916
   262   1 0.4145010606353445      33.428207888770878      6.0449389865164855      10.091766499311916
   263   1 0.4145010606353445      33.428207888770878        9.20822528202822      10.091766499311916
   264   1 0.4145010606353445      33.428207888770878      12.371511577539955      10.091766499311916
   265   1 0.4145010606353445      33.428207888770878      15.534797873051691      10.091766499311916
   266   1 0.4145010606353445      33.428207888770878      18.698084168563426      10.091766499311916
   267   1 0.4145010606353445      33.428207888770878      21.861370464075158      10.091766499311916
   268   1 0.4145010606353445      33.428207888770878      25.024656759586893      10.091766499311916
   269   1 0.4145010606353445      33.428207888770878      28.187943055098629      10.091766499311916
   270   1 0.4145010606353445      33.428207888770878      31.351229350610364      10.091766499311916
   271   1 0.4145010606353445      38.916018891925816      2.8816526910047506      10.091766499311916
   272   1 0.4145010606353445      38.916018891925816      6.0449389865164855      10.091766499311916
   273   1 0.4145010606353445      38.916018891925816        9.20822528202822      10.091766499311916
   274   1 0.4145010606353445      38.916018891925816      12.371511577539955      10.091766499311916
   275   1 0.4145010606353445      38.916018891925816      15.534797873051691      10.091766499311916
   276   1 0.4145010606353445      38.916018891925816      18.698084168563426      10.091766499311916
   277   1 0.4145010606353445      38.916018891925816      21.861370464075158      10.091766499311916
   278   1 0.4145010606353445      38.916018891925816      25.024656759586893      10.091766499311916
   279   1 0.4145010606353445      38.916018891925816      28.187943055098629      10.091766499311916
   280   1 0.4145010606353445      38.916018891925816      31.351229350610364      10.091766499311916
   281   1 0.4145010606353445      44.403829895080754      2.8816526910047506      10.091766499311916
   282   1 0.4145010606353445      44.403829895080754      6.0449389865164855      10.091766499311916
   283   1 0.4145010606353445      44.403829895080754        9.20822528202822      10.091766499311916
   284   1 0.4145010606353445      44.403829895080754      12.371511577539955      10.091766499311916
   285   1 0.4145010606353445      44.403829895080754      15.534797873051691      10.091766499311916
   286   1 0.4145010606353445      44.403829895080754      18.698084168563426      10.091766499311916
   287   1 0.4145010606353445      44.403829895080754      21.861370464075158      10.091766499311916
   288   1 0.4145010606353445      44.403829895080754      25.024656759586893      10.091766499311916