1T-MoS2 46*30*1 Supercell file

8280 atoms
2 atom types

3.251156863636402 255.6904630087636 xlo xhi
1.3006948378239762 96.19928370317604 ylo yhi
0.381724365849777 19.618217030619993 zlo zhi

Masses

1 95.95
2 32.06

Atoms # charge

1119 2 -0.2046263974887199 18.709228276298315 15.536291175059901 8.38203455619369 0 0 0
842 1 0.4145010766393617 16.964774857054223 12.371511496459874 10.091766231662795 0 0 0
1112 1 0.4145014237528468 11.476963858535004 15.534797652061664 10.091766140997867 0 0 0
843 2 -0.20462626797848046 18.709228286572223 12.373004817462725 8.38203448708938 0 0 0
283 1 0.4145024510819898 8.744876177965109 4.464667691177897 9.908347477484455 0 0 0
559 1 0.41450267094910487 8.744876168888721 7.62795398654318 9.908347485624777 0 0 0
5 2 -0.20987617179555196 4.081790215740636 2.8830512495114826 11.565599514490625 0 0 0
281 2 -0.20987618772443672 4.08179018383176 6.046337607988897 11.565599517883676 0 0 0
11 2 -0.20987673413660216 9.569601222347185 2.8830511993653056 11.565599252681164 0 0 0
287 2 -0.20987664629836747 9.569601241798289 6.0463375471467735 11.565599285267176 0 0 0
837 2 -0.20462594959224584 13.221417379353246 12.373004792120826 8.382034344566577 0 0 0
280 2 -0.2098564531257629 5.1644367693888595 4.463269002096845 8.434344502610958 0 0 0
556 2 -0.20985640360803048 5.16443672933694 7.626555236838025 8.434344463142505 0 0 0
1122 2 -0.20464618046077776 17.976039162385373 13.953029968864644 11.617906726698493 0 0 0
286 2 -0.20985703518898083 10.65224777405595 4.4632686723254835 8.434344195227482 0 0 0
562 2 -0.2098568139255728 10.652247712103641 7.6265548837529 8.434344107108078 0 0 0
2 1 0.4145015045642131 5.989152900756676 2.8816527728261585 10.091766637135581 0 0 0
278 1 0.4145014881693811 5.989152898861062 6.044939076123429 10.091766655056317 0 0 0
554 1 0.41450157369991564 5.989152878378651 9.208225388897532 10.091766548766968 0 0 0
846 2 -0.20464594163581284 17.97603917039061 10.789743758074609 11.617906695044221 0 0 0
282 2 -0.20464588591543048 7.000417377453043 4.463171352281904 11.617906948924077 0 0 0
558 2 -0.2046458111886681 7.000417339768917 7.626457709931162 11.617906927905205 0 0 0
3 2 -0.20462613140984748 7.733606124200611 2.8831458903400873 8.382034660001992 0 0 0
279 2 -0.2046261033683866 7.733606127146876 6.046432152345662 8.382034691084138 0 0 0
555 2 -0.20462598843561314 7.733606130053999 9.209718380240329 8.382034605753093 0 0 0
1113 2 -0.20462591301251543 13.221417368868496 15.536291131171138 8.382034428582683 0 0 0
289 1 0.4145026511005831 14.232687143957351 4.464667688544931 9.908347520352347 0 0 0
565 1 0.4145028366266241 14.232687118368291 7.627954000258578 9.908347446716789 0 0 0
17 2 -0.20987637878492002 15.057412188714173 2.883051228048754 11.565599343208744 0 0 0
293 2 -0.2098763395425783 15.057412199546546 6.046337596614688 11.565599316246688 0 0 0
1116 2 -0.2046457854587094 12.488228142957638 13.953029828795053 11.617906564684803 0 0 0
292 2 -0.209856493315623 16.14005882831966 4.463268775096388 8.434344363324504 0 0 0
568 2 -0.209856491259669 16.14005880620511 7.626554997274892 8.434344265266926 0 0 0
8 1 0.4145006353243442 11.476963883594117 2.8816524912098287 10.091766355013887 0 0 0
284 1 0.41450080891810037 11.476963871464648 6.044938777304653 10.091766324287015 0 0 0
560 1 0.41450119059768786 11.476963835131393 9.208225059761302 10.091766139219356 0 0 0
14 1 0.41450158466897874 16.96477490530094 2.8816525789507907 10.091766542495387 0 0 0
290 1 0.4145015899267889 16.96477488780463 6.044938872646198 10.091766503199654 0 0 0
566 1 0.4145014319645239 16.96477485494341 9.208225195350035 10.09176631686152 0 0 0
840 2 -0.2046458325623037 12.488228157150614 10.789743658090547 11.617906551351599 0 0 0
288 2 -0.20464623701502743 12.488228226302514 4.463171055627481 11.617906780779387 0 0 0
564 2 -0.20464602212335425 12.488228194578978 7.626457416372031 11.617906693389802 0 0 0
1118 1 0.4145009389388352 16.9647748735052 15.534797764530628 10.091766331012257 0 0 0
294 2 -0.2046456584505309 17.97603923631557 4.463171189149508 11.617906924529722 0 0 0
570 2 -0.20464570221563094 17.976039208645656 7.626457544331992 11.61790680468316 0 0 0
9 2 -0.20462631212449514 13.22141735008702 2.8831458719648935 8.382034594382672 0 0 0
285 2 -0.20462621763812763 13.221417347656084 6.046432128310939 8.382034566504492 0 0 0
561 2 -0.2046260227703347 13.221417366041226 9.209718421922654 8.382034435644238 0 0 0
15 2 -0.20462586370160446 18.709228264388898 2.883145957884397 8.382034712291825 0 0 0
291 2 -0.20462583030872183 18.70922826790052 6.0464321983440135 8.382034691926219 0 0 0
567 2 -0.2046259765183933 18.70922828604964 9.20971847560057 8.38203456640164 0 0 0
836 1 0.41450137098836976 11.47696382746727 12.371511354462262 10.091766016071876 0 0 0
1120 2 -0.20985676535835068 16.14005875856889 13.953127718071116 8.434344132641808 0 0 0
835 1 0.41450284541185295 8.744876130619248 10.79124028975392 9.90834734349155 0 0 0
1111 1 0.41450279450926564 8.744876118492684 13.954526575226916 9.908347258007963 0 0 0
557 2 -0.20987612682720352 4.081790205545363 9.209623924607385 11.565599465332323 0 0 0
833 2 -0.20987621605346385 4.081790258402636 12.372910220734015 11.565599388768778 0 0 0
1109 2 -0.20987630812555952 4.08179025001187 15.53619643823906 11.56559939309616 0 0 0
563 2 -0.20987642994834924 9.569601268710237 9.209623926487959 11.565599192712021 0 0 0
839 2 -0.20987635938349783 9.56960127588897 12.372910183321295 11.565599076635987 0 0 0
1115 2 -0.20987637559806743 9.569601226335822 15.536196365272144 11.565599103656096 0 0 0
832 2 -0.20985641929107596 5.164436690046772 10.789841495821936 8.434344346801105 0 0 0
1108 2 -0.2098565619587805 5.164436709944315 13.953127920815431 8.434344297019695 0 0 0
838 2 -0.20985661511330372 10.65224768541573 10.789841206279926 8.434343959799085 0 0 0
1114 2 -0.2098565834992019 10.65224770508049 13.953127623948188 8.434343945176622 0 0 0
830 1 0.4145014455642949 5.989152840044777 12.371511684996431 10.091766383678344 0 0 0
1106 1 0.4145013256175508 5.989152853412781 15.534797956708902 10.091766456235584 0 0 0
834 2 -0.20464578057940902 7.000417330356378 10.789744032973978 11.617906796800767 0 0 0
1110 2 -0.20464588465446332 7.000417352385866 13.953030225289782 11.617906733461078 0 0 0
831 2 -0.20462601852309004 7.733606129795052 12.373004716694133 8.382034471393812 0 0 0
1107 2 -0.20462608130392212 7.7336061120588475 15.536291107127646 8.382034514364626 0 0 0
841 1 0.41450292933400723 14.23268709718965 10.791240329143132 9.908347325548057 0 0 0
1117 1 0.41450289527070466 14.232687105254358 13.954526622382275 9.908347350275942 0 0 0
569 2 -0.2098762865982435 15.057412215946634 9.209623928038795 11.565599197672261 0 0 0
845 2 -0.2098763540834692 15.057412223368878 12.372910144202233 11.565599147273085 0 0 0
1121 2 -0.20987636979633684 15.05741221606765 15.536196381165091 11.565599227943366 0 0 0
844 2 -0.20985661877614037 16.140058775801858 10.789841335934417 8.434344128384383 0 0 0
277 1 0.41450300852869326 3.257065141101199 4.464667716889487 9.908347721441906 0 0 0
553 1 0.4145031203401093 3.2570651247364473 7.6279540467959395 9.908347695228196 0 0 0
829 1 0.4145031220035985 3.2570650885394166 10.791240365711504 9.908347637633653 0 0 0
1105 1 0.414502922256364 3.2570650572989117 13.954526633797409 9.908347555279283 0 0 0
1390 2 -0.20985652806745497 10.652247736667285 17.116413941878587 8.434344075005273 0 0 0
1396 2 -0.20985670114936678 16.14005878799826 17.116414048632354 8.434344270146916 0 0 0
1392 2 -0.20464571082655184 12.488228158952996 17.116316121529245 11.617906699864955 0 0 0
1386 2 -0.20464586156130188 7.000417369059162 17.11631647792187 11.617906824819437 0 0 0
1398 2 -0.20464616075643347 17.976039191771456 17.11631624233803 11.617906848595323 0 0 0
1384 2 -0.20985653282330952 5.1644367603413635 17.11641427971551 8.434344414253632 0 0 0
7 1 0.41450251512508174 8.744876164699553 1.3013813890190227 9.908347395980106 0 0 0
13 1 0.41450271894926094 14.232687154961157 1.3013813985951708 9.908347490414378 0 0 0
1 1 0.4145031371718631 3.2570651307757053 1.3013814531067411 9.908347643473103 0 0 0
2499 2 -0.2046258538128034 18.70922826802331 31.352722620101236 8.382034566771098 0 0 0
2222 1 0.4145017840599297 16.96477486794342 28.187942894681246 10.091766346744645 0 0 0
2492 1 0.4145014824055167 11.476963862986478 31.351229165731073 10.09176617644184 0 0 0
2223 2 -0.20462592204363228 18.70922827489609 28.1894363122001 8.382034559810304 0 0 0
1663 1 0.41450310718822725 8.744876194165155 20.28109915362565 9.90834748292271 0 0 0
1939 1 0.4145031654598432 8.7448761863994 23.44438543958152 9.90834748027903 0 0 0
1385 2 -0.2098761471619988 4.081790192125819 18.699482716087108 11.565599452784006 0 0 0
1661 2 -0.20987592392951154 4.081790210805279 21.862769032804117 11.565599503283451 0 0 0
1391 2 -0.20987626709972773 9.56960120195294 18.699482640198116 11.565599222780914 0 0 0
1667 2 -0.20987615019892228 9.569601230713465 21.862769003224553 11.565599279656205 0 0 0
2217 2 -0.20462571749412814 13.221417376980087 28.189436267087494 8.382034484118323 0 0 0
1660 2 -0.2098562833084444 5.164436773647754 20.27970051200398 8.434344508582285 0 0 0
1936 2 -0.20985617957573682 5.164436725745287 23.44298671465074 8.434344473941211 0 0 0
2502 2 -0.20464561924978922 17.976039206149363 29.769461474197836 11.617906757040348 0 0 0
1666 2 -0.20985639520258464 10.652247731811377 20.27970017580885 8.434344162881068 0 0 0
1942 2 -0.20985638299091003 10.652247717184522 23.442986403350844 8.434344131996465 0 0 0
1382 1 0.41450157325526465 5.989152888528533 18.698084264000336 10.09176662794801 0 0 0
1658 1 0.4145018807569414 5.98915290896822 21.86137058362768 10.091766664097044 0 0 0
1934 1 0.4145017979711812 5.989152885510282 25.02465686451086 10.091766538368496 0 0 0
2226 2 -0.20464573550058196 17.976039210029143 26.606175210080732 11.617906801210761 0 0 0
1662 2 -0.20464564993368195 7.00041737110677 20.27960283223697 11.617906937210202 0 0 0
1938 2 -0.20464556917311216 7.000417361901866 23.44288921300427 11.617906929144237 0 0 0
1383 2 -0.20462594265752906 7.733606109979909 18.6995773893089 8.382034657949003 0 0 0
1659 2 -0.2046257734991737 7.733606131642872 21.862863601024532 8.382034698524544 0 0 0
1935 2 -0.20462584029088018 7.73360616536947 25.026149875256326 8.38203462464884 0 0 0
2493 2 -0.20462571384915476 13.221417362557638 31.35272257139708 8.382034465685537 0 0 0
1669 1 0.41450327037860835 14.232687145156136 20.28109919087469 9.908347581732263 0 0 0
1945 1 0.4145033905183913 14.232687138507522 23.44438549447071 9.90834753179504 0 0 0
1397 2 -0.20987621635727477 15.057412216477314 18.699482674578633 11.565599358546002 0 0 0
1673 2 -0.20987606171326273 15.057412244496856 21.862769059053875 11.565599368528591 0 0 0
2496 2 -0.2046456508750924 12.488228147278964 29.76946139532481 11.617906654412907 0 0 0
1672 2 -0.209856504528173 16.140058798263944 20.27970023049658 8.434344352805766 0 0 0
1948 2 -0.20985636855097428 16.140058771860694 23.44298650200055 8.43434428526174 0 0 0
1388 1 0.4145015934453654 11.476963888275789 18.698083960165484 10.091766295502254 0 0 0
1664 1 0.41450172776946437 11.476963903148283 21.861370247373642 10.091766319897392 0 0 0
1940 1 0.4145016404733484 11.476963890475032 25.0246565304434 10.091766215980298 0 0 0
1394 1 0.41450116931952163 16.964774893914463 18.698084047260455 10.091766506316056 0 0 0
1670 1 0.41450143947231244 16.964774890522936 21.861370356734078 10.091766463392647 0 0 0
1946 1 0.4145016083614523 16.964774892668053 25.024656626247374 10.091766393644354 0 0 0
2220 2 -0.20464562166569444 12.488228155684865 26.606175126289745 11.61790668721321 0 0 0
1668 2 -0.20464557932318084 12.488228170803934 20.27960249005693 11.617906808655047 0 0 0
1944 2 -0.204645553404803 12.488228175231677 23.442888858717872 11.617906768258955 0 0 0
2498 1 0.41450187694119905 16.96477485033707 31.351229188322396 10.091766349554872 0 0 0
1674 2 -0.20464598664809078 17.976039217248438 20.279602620962937 11.617906889081297 0 0 0
1950 2 -0.20464585394059132 17.976039213325215 23.442888915423893 11.617906861745194 0 0 0
1389 2 -0.20462578022154038 13.22141737187959 18.699577414817536 8.382034557755162 0 0 0
1665 2 -0.20462567478276578 13.221417386203019 21.86286364362846 8.382034587575667 0 0 0
1941 2 -0.20462568725481128 13.221417390789426 25.02614995871488 8.382034515888988 0 0 0
1395 2 -0.2046262849450728 18.70922826274803 18.699577439710133 8.382034687536036 0 0 0
1671 2 -0.20462614387143846 18.709228281100234 21.862863697793568 8.3820346724978 0 0 0
1947 2 -0.20462604884022345 18.709228285121288 25.026149978499873 8.382034603567263 0 0 0
2216 1 0.4145015042321393 11.476963875105813 28.187942840691942 10.091766182218405 0 0 0
2500 2 -0.20985619404460293 16.14005877776804 29.769559096941478 8.434344202565729 0 0 0
2215 1 0.41450294724073866 8.744876168900692 26.60767173610215 9.908347402137863 0 0 0
2491 1 0.414502808396729 8.744876170512526 29.77095806244897 9.908347368000873 0 0 0
1937 2 -0.2098759576289686 4.081790272312508 25.026055375070673 11.565599486581558 0 0 0
2213 2 -0.2098761241040618 4.081790244721168 28.189341682168397 11.565599430181956 0 0 0
2489 2 -0.2098761225671348 4.081790196937646 31.352627955930878 11.565599396816744 0 0 0
1943 2 -0.20987622303206172 9.569601266664712 25.02605534449641 11.565599224391446 0 0 0
2219 2 -0.2098763633344177 9.569601240572124 28.189341619579807 11.565599167133827 0 0 0
2495 2 -0.2098763744444479 9.569601218288447 31.352627907895414 11.565599153946875 0 0 0
2212 2 -0.20985633706727452 5.164436711163081 26.606273037088393 8.434344398962365 0 0 0
2488 2 -0.2098564464430332 5.1644367374921245 29.769559361818423 8.434344379034446 0 0 0
2218 2 -0.20985650680088966 10.652247714830567 26.606272727713545 8.434344070480197 0 0 0
2494 2 -0.20985657830185428 10.65224772315387 29.76955903963505 8.434344049575328 0 0 0
2210 1 0.41450154062782063 5.989152859883655 28.187943148902022 10.09176649444182 0 0 0
2486 1 0.4145015422606772 5.989152864245402 31.351229467795015 10.091766515106203 0 0 0
2214 2 -0.20464572364879208 7.000417346420923 26.60617548018631 11.617906841828189 0 0 0
2490 2 -0.20464582934170403 7.000417340129283 29.76946172114332 11.617906803407596 0 0 0
2211 2 -0.20462600633760292 7.7336061548135655 28.189436201605663 8.382034590545713 0 0 0
2487 2 -0.204626008783933 7.733606124455485 31.352722494332472 8.382034576280104 0 0 0
2221 1 0.41450341021604376 14.232687137169398 26.607671793329388 9.908347470376196 0 0 0
2497 1 0.41450344758101776 14.232687125259858 29.770958109108637 9.908347435576855 0 0 0
1949 2 -0.20987599897801068 15.057412241087649 25.026055376232513 11.565599308400385 0 0 0
2225 2 -0.20987594679960536 15.05741221698244 28.189341669520562 11.56559926057962 0 0 0
2501 2 -0.20987591199963967 15.057412221054259 31.352627942101623 11.56559926086532 0 0 0
2224 2 -0.2098562778953586 16.140058761494632 26.6062727888936 8.434344221166562 0 0 0
1657 1 0.41450334383658877 3.2570651141119704 20.281099209158967 9.908347672400117 0 0 0
1933 1 0.4145035087402052 3.2570651023007304 23.444385528862632 9.908347715761797 0 0 0
2209 1 0.41450331623221853 3.2570650838597195 26.60767180370628 9.908347670624707 0 0 0
2485 1 0.41450318097321376 3.257065088890693 29.770958104033188 9.908347603139116 0 0 0
2770 2 -0.20985655722780788 10.652247730617757 32.93284537515759 8.434344049640814 0 0 0
2776 2 -0.2098562009111138 16.14005878371037 32.93284539004128 8.434344213339177 0 0 0
2772 2 -0.2046456477353551 12.488228161899631 32.93274767840217 11.617906682451828 0 0 0
2778 2 -0.2046456263831658 17.976039206402927 32.93274774362023 11.61790675548608 0 0 0
2766 2 -0.2046457403449603 7.000417341958885 32.93274804096752 11.61790680032709 0 0 0
2764 2 -0.20985634672370268 5.164436748029333 32.93284563671032 8.434344354255126 0 0 0
1393 1 0.4145030217276042 14.232687125061029 17.11781290308129 9.908347469840535 0 0 0
1381 1 0.41450297395860947 3.257065085330431 17.117812883422648 9.908347602663154 0 0 0
1387 1 0.41450285508990115 8.74487616087037 17.117812860687373 9.908347357448246 0 0 0
3879 2 -0.20462576262689278 18.70922829727411 47.16915409695174 8.382034517068785 0 0 0
3602 1 0.4145019566320729 16.96477486293253 44.0043743965213 10.09176634888337 0 0 0
3872 1 0.41450103848747955 11.47696387724245 47.167660676193286 10.091766236683451 0 0 0
3603 2 -0.20462571015718792 18.709228282021478 44.00586775509235 8.382034553395142 0 0 0
3043 1 0.414502958273248 8.74487615390254 36.09753061163888 9.908347384118347 0 0 0
3319 1 0.414502883101233 8.744876160257926 39.26081690665348 9.90834743675542 0 0 0
2765 2 -0.20987599399307894 4.081790202821731 34.51591424452251 11.56559937396302 0 0 0
3041 2 -0.20987596690507487 4.08179019203078 37.6792004953416 11.56559939890506 0 0 0
2771 2 -0.2098763186709391 9.569601229330091 34.51591417281503 11.565599181166979 0 0 0
3047 2 -0.20987635355933612 9.569601204500211 37.67920044943221 11.565599219078914 0 0 0
3597 2 -0.20462596514373627 13.221417300072108 44.00586763322804 8.382034539582634 0 0 0
3040 2 -0.2098562382636998 5.1644367801185025 36.0961320036894 8.434344355943395 0 0 0
3316 2 -0.20985626174854882 5.164436833777164 39.259418316518044 8.434344448920426 0 0 0
3882 2 -0.2046454978606279 17.976039224475933 45.585892965540076 11.617906727354233 0 0 0
3046 2 -0.20985657133433722 10.652247753511991 36.096131725608586 8.434344115786681 0 0 0
3322 2 -0.20985666320922985 10.652247774161822 39.25941804535645 8.434344216031944 0 0 0
2762 1 0.41450173584552197 5.989152864889454 34.51451576906305 10.091766476063622 0 0 0
3038 1 0.4145018034908735 5.98915286792355 37.67780204104354 10.091766555662735 0 0 0
3314 1 0.41450175991846416 5.989152861759868 40.84108835240969 10.091766658602374 0 0 0
3606 2 -0.20464552165134925 17.976039243370824 42.42260667320694 11.617906781717998 0 0 0
3042 2 -0.204645644546813 7.0004173508558285 36.09603431902814 11.617906831701635 0 0 0
3318 2 -0.20464567300746433 7.000417363222354 39.2593206139984 11.617906885830276 0 0 0
2763 2 -0.20462590272717593 7.733606132167869 34.516008818751935 8.38203454571911 0 0 0
3039 2 -0.20462589067092224 7.73360614286122 37.67929513641911 8.382034621538605 0 0 0
3315 2 -0.20462594131367856 7.7336061335716355 40.84258141478625 8.38203471554151 0 0 0
3873 2 -0.20462608263023851 13.221417288650605 47.169153957332185 8.382034441277133 0 0 0
3049 1 0.41450334472125383 14.232687116118957 36.09753065580383 9.908347467941267 0 0 0
3325 1 0.41450328168084594 14.232687139051118 39.26081694354208 9.908347513326193 0 0 0
2777 2 -0.20987595742423765 15.057412243654499 34.51591421493289 11.56559927810805 0 0 0
3053 2 -0.20987600981858456 15.057412236669082 37.67920048110224 11.56559930472433 0 0 0
3876 2 -0.2046459560313769 12.488228243853476 45.58589301537456 11.617906747629485 0 0 0
3052 2 -0.20985626254924666 16.1400587821798 36.096131711235834 8.434344237827968 0 0 0
3328 2 -0.2098562438388188 16.140058782369803 39.25941800696975 8.434344275649496 0 0 0
2768 1 0.4145014804970521 11.476963868302335 34.51451545022241 10.091766213098001 0 0 0
3044 1 0.41450138713066204 11.47696387240439 37.67780174939677 10.091766310997471 0 0 0
3320 1 0.41450123580670584 11.476963887697222 40.8410881008491 10.091766406955234 0 0 0
2774 1 0.41450179299259504 16.96477485371103 34.514515479634916 10.091766352777345 0 0 0
3050 1 0.4145017483966596 16.964774867424943 37.67780177468089 10.091766392407253 0 0 0
3326 1 0.4145018749658693 16.964774872992038 40.84108809232307 10.091766426656868 0 0 0
3600 2 -0.20464587264478262 12.48822823352081 42.42260666851206 11.617906813823213 0 0 0
3048 2 -0.20464569459362764 12.488228189954448 36.096033985517785 11.617906727562405 0 0 0
3324 2 -0.20464578407837425 12.488228213930846 39.25932030081197 11.617906786150689 0 0 0
3878 1 0.4145018038504282 16.964774851704348 47.167660664625735 10.091766274268101 0 0 0
3054 2 -0.20464570376215674 17.976039217998718 36.09603402479795 11.61790677146812 0 0 0
3330 2 -0.20464565816611552 17.976039230560744 39.259320332468434 11.61790680102623 0 0 0
2769 2 -0.20462574292686714 13.221417354038117 34.516008882581275 8.382034478749386 0 0 0
3045 2 -0.2046258105456648 13.22141733797948 37.67929518064314 8.382034551159185 0 0 0
3321 2 -0.20462588044870542 13.221417313977478 40.84258140488599 8.38203460853445 0 0 0
2775 2 -0.20462591961389603 18.70922826849835 34.51600890448033 8.382034568521187 0 0 0
3051 2 -0.2046259497284481 18.70922826885722 37.67929519673556 8.382034591245139 0 0 0
3327 2 -0.20462582796622775 18.70922827014542 40.842581452683994 8.382034607959296 0 0 0
3596 1 0.41450111299992826 11.476963893671417 44.004374421497744 10.091766349477934 0 0 0
3880 2 -0.20985623662769665 16.14005877906061 45.58599053277865 8.434344165091511 0 0 0
3595 1 0.4145028242809921 8.744876163473258 42.42410324660342 9.90834748839304 0 0 0
3871 1 0.4145029106932588 8.744876152279696 45.58738955076326 9.90834746166516 0 0 0
3317 2 -0.20987602895264718 4.081790149164685 40.842486811542535 11.565599431137272 0 0 0
3593 2 -0.2098759805773162 4.081790154952415 44.00577314239989 11.565599438464798 0 0 0
3869 2 -0.20987586045568413 4.081790172268852 47.16905946051129 11.565599421954786 0 0 0
3323 2 -0.20987644498049207 9.56960117584469 40.84248675163155 11.565599262964561 0 0 0
3599 2 -0.20987645815706207 9.569601202947915 44.00577310331394 11.565599267270128 0 0 0
3875 2 -0.20987640846444866 9.56960122869607 47.16905943411348 11.565599217960695 0 0 0
3592 2 -0.2098562620415006 5.1644368362023885 42.42270456359798 8.434344491406886 0 0 0
3868 2 -0.20985613192598643 5.164436787796981 45.58599081026464 8.434344445356702 0 0 0
3598 2 -0.2098567475503672 10.652247741098487 42.422704274351545 8.434344234212734 0 0 0
3874 2 -0.20985676975495543 10.652247697348885 45.58599053602963 8.43434414504624 0 0 0
3590 1 0.41450186153915414 5.989152864384787 44.00437465988186 10.091766653972819 0 0 0
3866 1 0.4145020510871091 5.989152845800312 47.1676609293895 10.091766573896544 0 0 0
3594 2 -0.20464567792836116 7.000417362517727 42.422606928927834 11.617906935929462 0 0 0
3870 2 -0.20464555706172632 7.000417355096244 45.58589325651702 11.617906920848736 0 0 0
3591 2 -0.20462588998601033 7.733606121457251 44.00586766703105 8.382034704193488 0 0 0
3867 2 -0.20462577939257337 7.733606110498907 47.169153980349776 8.382034635452671 0 0 0
3601 1 0.4145032193094178 14.232687142897461 42.42410325551154 9.908347515512741 0 0 0
3877 1 0.4145030662178103 14.232687125971953 45.58738953168399 9.908347421428358 0 0 0
3329 2 -0.20987600744954982 15.05741222525352 40.842486783188924 11.56559932794696 0 0 0
3605 2 -0.20987603586107084 15.057412246079316 44.00577312220059 11.565599286620875 0 0 0
3881 2 -0.20987617022856137 15.057412224514074 47.16905942521062 11.56559918934726 0 0 0
3604 2 -0.20985618520585392 16.140058778633286 42.422704241806585 8.43434425206172 0 0 0
3037 1 0.4145034014890076 3.257065096099305 36.097530694633825 9.908347533215855 0 0 0
3313 1 0.41450332250377964 3.2570651118620235 39.26081696548219 9.908347576856324 0 0 0
3589 1 0.41450326952283634 3.2570651077698916 42.42410329169351 9.908347598966545 0 0 0
3865 1 0.4145034077920093 3.25706508793567 45.58738960412366 9.908347597557041 0 0 0
4150 2 -0.20985678513168438 10.652247708734723 48.749276858973445 8.434344078767786 0 0 0
4156 2 -0.2098564186811635 16.140058814406462 48.749276879364935 8.434344129204312 0 0 0
4146 2 -0.20464549017530512 7.00041734721483 48.749179532784424 11.61790685359828 0 0 0
4158 2 -0.20464565047636224 17.976039197273302 48.749179208073734 11.617906695797771 0 0 0
4152 2 -0.20464604776184017 12.4882282392455 48.749179278768004 11.617906636094146 0 0 0
4144 2 -0.20985606957079167 5.164436764200771 48.74927711717694 8.434344399789776 0 0 0
2767 1 0.41450288897898724 8.744876158994682 32.93424436531252 9.908347352342753 0 0 0
2773 1 0.4145034319279393 14.232687110557901 32.93424439670781 9.908347444636943 0 0 0
2761 1 0.4145032971589094 3.257065098783905 32.93424441599663 9.908347567392967 0 0 0
5259 2 -0.20462627497063712 18.70922830407743 62.98558555175722 8.382034628761016 0 0 0
4982 1 0.4145010405219699 16.964774878890925 59.82080584849228 10.091766384348968 0 0 0
5252 1 0.4145015762980472 11.47696388161935 62.984092133737164 10.091766267039727 0 0 0
4983 2 -0.2046262413821213 18.709228326469283 59.822299270882915 8.382034622179363 0 0 0
4423 1 0.4145028883220715 8.744876167053947 51.91396215727889 9.9083474064573 0 0 0
4699 1 0.41450288051698003 8.744876174800007 55.07724846182809 9.908347461067885 0 0 0
4145 2 -0.20987591961719315 4.0817901801942345 50.33234573983373 11.56559942708974 0 0 0
4421 2 -0.20987613863808607 4.081790211516127 53.495632004333594 11.565599495353272 0 0 0
4151 2 -0.2098764216853216 9.569601226804759 50.332345694681145 11.565599182785057 0 0 0
4427 2 -0.20987644710542175 9.569601231879336 53.49563196727041 11.565599217571924 0 0 0
4977 2 -0.204625891939956 13.221417352890239 59.82229918050721 8.382034481090868 0 0 0
4420 2 -0.2098562349837261 5.164436763438184 51.91256344907243 8.43434443310942 0 0 0
4696 2 -0.20985640358171925 5.164436738987637 55.07584972359836 8.434344489678578 0 0 0
5262 2 -0.2046461091647026 17.976039210554507 61.40232443749427 11.617906800789298 0 0 0
4426 2 -0.20985680949474753 10.652247719845297 51.91256319176334 8.434344097946475 0 0 0
4702 2 -0.20985671926880345 10.65224770314673 55.07584946568188 8.43434413012155 0 0 0
4142 1 0.41450198681411193 5.989152824382432 50.33094721417769 10.091766543613044 0 0 0
4418 1 0.4145017065536635 5.989152843836959 53.494233521431575 10.091766602953893 0 0 0
4694 1 0.41450164689935476 5.9891528718036255 56.65751980584596 10.091766622656975 0 0 0
4986 2 -0.20464607986580002 17.976039207758056 58.2390381341425 11.61790682171938 0 0 0
4422 2 -0.2046456124561261 7.000417345294081 51.91246575053286 11.617906850983275 0 0 0
4698 2 -0.20464571624728672 7.00041735434683 55.075752043648876 11.617906908668411 0 0 0
4143 2 -0.20462580459138033 7.733606113334124 50.332440330243735 8.382034628073134 0 0 0
4419 2 -0.2046259207435331 7.733606110131381 53.49572662800695 8.382034668146055 0 0 0
4695 2 -0.20462588900638679 7.733606110179453 56.65901289254613 8.382034662955572 0 0 0
5253 2 -0.20462586565656024 13.221417353252024 62.98558547811819 8.382034510099803 0 0 0
4429 1 0.4145026518253783 14.232687143800076 51.91396213182205 9.908347345903731 0 0 0
4705 1 0.41450264776912976 14.232687143826617 55.07724842502416 9.908347431007849 0 0 0
4157 2 -0.20987635651418302 15.05741217761101 50.33234565241911 11.5655991543735 0 0 0
4433 2 -0.20987647470260848 15.05741218781877 53.495631921371405 11.56559921959173 0 0 0
5256 2 -0.2046456773316533 12.488228217896308 61.4023243944 11.617906716610342 0 0 0
4432 2 -0.20985662316579068 16.140058822720484 51.91256319870306 8.434344175573347 0 0 0
4708 2 -0.2098567383288069 16.140058805295507 55.075849476442556 8.434344217956285 0 0 0
4148 1 0.4145009732789915 11.476963863998467 50.33094695793708 10.091766197527054 0 0 0
4424 1 0.41450100219534536 11.476963887351742 53.49423327053588 10.091766248514714 0 0 0
4700 1 0.4145012660319188 11.476963911511367 56.65751954629896 10.0917662665902 0 0 0
4154 1 0.4145014858230094 16.964774853942895 50.33094695811134 10.09176630148994 0 0 0
4430 1 0.41450118939120195 16.96477487062078 53.49423326843844 10.091766366014753 0 0 0
4706 1 0.41450105166116097 16.964774878976105 56.65751955361945 10.091766374057721 0 0 0
4980 2 -0.20464579785646198 12.488228226037943 58.23903810500897 11.617906732236936 0 0 0
4428 2 -0.20464610230284722 12.488228218936618 51.91246548157885 11.617906633491824 0 0 0
4704 2 -0.20464601297928708 12.488228216619879 55.075751765840096 11.617906712069574 0 0 0
5258 1 0.4145010471158532 16.96477487881691 62.98409218915124 10.091766403482712 0 0 0
4434 2 -0.20464586538895924 17.976039182248677 51.91246546760926 11.617906751867 0 0 0
4710 2 -0.20464601795061615 17.976039194847598 55.07575180079468 11.617906814650748 0 0 0
4149 2 -0.2046261955170483 13.221417293154943 50.3324403242723 8.382034430414425 0 0 0
4425 2 -0.20462621036008283 13.221417305717639 53.49572661236776 8.382034474620893 0 0 0
4701 2 -0.2046260679921046 13.221417328454589 56.65901287439115 8.382034480356763 0 0 0
4155 2 -0.20462594442282095 18.709228307096257 50.33244043333606 8.382034556771417 0 0 0
4431 2 -0.20462611886446216 18.709228318484076 53.49572670123536 8.382034606856115 0 0 0
4707 2 -0.20462620596004372 18.70922832841878 56.65901298495506 8.382034610741453 0 0 0
4976 1 0.4145015782905611 11.476963903175324 59.8208058181644 10.091766250976665 0 0 0
5260 2 -0.20985672042460574 16.140058828393546 61.40242209142983 8.434344252843934 0 0 0
4975 1 0.4145031133168907 8.7448761750111 58.24053472798069 9.90834744058809 0 0 0
5251 1 0.41450323676375106 8.7448761823158 61.40382101649252 9.908347429942824 0 0 0
4697 2 -0.2098762020528426 4.08179024994314 56.65891834129415 11.565599535119992 0 0 0
4973 2 -0.20987605291725464 4.081790252778909 59.82220467180753 11.565599484038707 0 0 0
5249 2 -0.2098759745768954 4.081790212346106 62.985490912206686 11.565599473242312 0 0 0
4703 2 -0.20987631741560633 9.569601250115449 56.65891829846475 11.565599241359548 0 0 0
4979 2 -0.2098761356592076 9.569601248445391 59.82220458341453 11.565599227779744 0 0 0
5255 2 -0.20987618005755987 9.569601216983349 62.98549087063779 11.565599224605666 0 0 0
4972 2 -0.20985633996370678 5.16443673314764 58.23913599411354 8.434344477971392 0 0 0
5248 2 -0.20985622481550714 5.1644367643632005 61.40242233787394 8.434344464634364 0 0 0
4978 2 -0.20985649587657906 10.652247717430452 58.23913573899346 8.434344119214707 0 0 0
5254 2 -0.20985638515064708 10.65224773964906 61.40242203725624 8.434344117884429 0 0 0
4970 1 0.41450183750836894 5.989152875124638 59.82080609407718 10.091766573037843 0 0 0
5246 1 0.41450184046034755 5.9891528818256825 62.98409241360894 10.091766626072866 0 0 0