./data/1T-MoS2-out.lmp (written by ASE) 

6 	 atoms 
2  atom types
0.0      5.4878110031549392  xlo xhi
0.0      3.1632862955117349  ylo yhi
0.0      19.236492664770214  zlo zhi


Atoms 

     1   2 -0.20987617179555196      4.0817902157406358      2.8830512495114826      11.565599514490625
     2   1 0.4145031371718631      3.2570651307757053      1.3013814531067409      9.9083476434731033
     3   2 -0.20985636281669895      5.1644367960407696      1.2999827263674362      8.4343444527144253
     4   1 0.4145010606353445     0.50134186984123918      2.8816526910047506      10.091766499311916
     5   2 -0.20462599863229589      2.2457953110180586       2.883145950311754      8.3820347428366002
     6   2 -0.20464587295567863      1.5126061807488227      1.2998849391695153      11.617906927054886
