 vasp.5.4.4.18Apr17-6-g9f103f2a35 (build Jan 05 2022 20:33:25) complex          
  
 03/POSCAR found :  2 types and       6 ions
 scaLAPACK will be used
 LDA part: xc-table for Pade appr. of Perdew
 00/POSCAR found :  2 types and       6 ions
 06/POSCAR found :  2 types and       6 ions
 Jacobian:    11.4326695265214     
 POSCAR, INCAR and KPOINTS ok, starting setup
 FFT: planning ...
 WAVECAR not read
 entering main loop
       N       E                     dE             d eps       ncg     rms          rms(c)
DAV:   1     0.268716466464E+03    0.26872E+03   -0.11491E+04  3264   0.117E+03
DAV:   2     0.238836577604E+01   -0.26633E+03   -0.25822E+03  5256   0.184E+02
DAV:   3    -0.332748164355E+02   -0.35663E+02   -0.35146E+02  4320   0.762E+01
DAV:   4    -0.347815066001E+02   -0.15067E+01   -0.14961E+01  5088   0.192E+01
DAV:   5    -0.348126185818E+02   -0.31112E-01   -0.31075E-01  4792   0.283E+00    0.219E+01
DAV:   6    -0.339613447483E+02    0.85127E+00   -0.35728E+00  4688   0.929E+00    0.967E+00
DAV:   7    -0.343906962166E+02   -0.42935E+00   -0.80195E+00  4312   0.131E+01    0.749E+00
DAV:   8    -0.338123616560E+02    0.57833E+00   -0.88459E+00  4576   0.942E+00    0.448E+00
DAV:   9    -0.335580467645E+02    0.25431E+00   -0.22238E+00  4536   0.530E+00    0.168E+00
DAV:  10    -0.335446554856E+02    0.13391E-01   -0.12497E-01  4056   0.173E+00    0.675E-01
DAV:  11    -0.335429517560E+02    0.17037E-02   -0.13120E-02  4296   0.634E-01    0.467E-01
DAV:  12    -0.335424624179E+02    0.48934E-03   -0.32097E-03  4576   0.236E-01    0.210E-01
DAV:  13    -0.335419370055E+02    0.52541E-03   -0.18605E-03  4848   0.230E-01    0.671E-02
DAV:  14    -0.335418382612E+02    0.98744E-04   -0.34774E-04  4008   0.839E-02    0.672E-02
DAV:  15    -0.335418032966E+02    0.34965E-04   -0.18030E-04  4384   0.539E-02    0.328E-02
DAV:  16    -0.335418425540E+02   -0.39257E-04   -0.53366E-05  4208   0.366E-02    0.292E-02
DAV:  17    -0.335419374698E+02   -0.94916E-04   -0.28191E-05  4112   0.217E-02    0.135E-02
DAV:  18    -0.335420637341E+02   -0.12626E-03   -0.53832E-05  3872   0.240E-02    0.742E-03
DAV:  19    -0.335421115083E+02   -0.47774E-04   -0.36390E-06  3752   0.878E-03    0.530E-03
DAV:  20    -0.335421907314E+02   -0.79223E-04   -0.48477E-06  3504   0.104E-02    0.353E-03
DAV:  21    -0.335422186513E+02   -0.27920E-04   -0.12744E-06  3192   0.519E-03    0.300E-03
DAV:  22    -0.335422474959E+02   -0.28845E-04   -0.83519E-07  2920   0.308E-03    0.890E-04
DAV:  23    -0.335422540986E+02   -0.66028E-05   -0.78873E-08  2296   0.121E-03    0.676E-04
DAV:  24    -0.335422661611E+02   -0.12062E-04   -0.29126E-07  2640   0.138E-03    0.432E-04
DAV:  25    -0.335422676103E+02   -0.14492E-05   -0.56568E-08  2312   0.685E-04    0.350E-04
DAV:  26    -0.335422697884E+02   -0.21781E-05   -0.35137E-08  2064   0.554E-04    0.156E-04
DAV:  27    -0.335422708638E+02   -0.10754E-05   -0.29473E-08  2096   0.417E-04    0.169E-04
DAV:  28    -0.335422710743E+02   -0.21049E-06   -0.59788E-09  1824   0.232E-04
   1 F= -.33542271E+02 E0= -.33531279E+02  d E =-.335423E+02
quench:  g(F)=  0.000E+00 g(S)=  0.000E+00 dE (1.order)= 0.000E+00
 bond charge predicted
       N       E                     dE             d eps       ncg     rms          rms(c)
DAV:   1    -0.337609955308E+02   -0.21872E+00   -0.44571E+00  3264   0.102E+01    0.950E-01
DAV:   2    -0.337679376571E+02   -0.69421E-02   -0.11450E-01  4400   0.164E+00    0.667E-01
DAV:   3    -0.337719541991E+02   -0.40165E-02   -0.11419E-01  4800   0.126E+00    0.700E-01
DAV:   4    -0.337656589747E+02    0.62952E-02   -0.84273E-02  4696   0.998E-01    0.356E-01
DAV:   5    -0.337646219005E+02    0.10371E-02   -0.87083E-03  4312   0.357E-01    0.205E-01
DAV:   6    -0.337643326876E+02    0.28921E-03   -0.15868E-03  4504   0.203E-01    0.370E-02
DAV:   7    -0.337643321997E+02    0.48792E-06   -0.14307E-04  4160   0.694E-02    0.247E-02
DAV:   8    -0.337643322315E+02   -0.31741E-07   -0.18259E-05  4968   0.214E-02    0.206E-02
DAV:   9    -0.337643311911E+02    0.10403E-05   -0.47548E-06  3704   0.111E-02    0.129E-02
DAV:  10    -0.337643299611E+02    0.12300E-05   -0.41527E-06  3088   0.106E-02    0.607E-03
DAV:  11    -0.337643300322E+02   -0.71118E-07   -0.11400E-06  2200   0.593E-03
   2 F= -.33764330E+02 E0= -.33753446E+02  d E =-.222059E+00
quench:  g(F)=  0.000E+00 g(S)=  0.000E+00 dE (1.order)= 0.000E+00
 bond charge predicted
       N       E                     dE             d eps       ncg     rms          rms(c)
DAV:   1    -0.340159194106E+02   -0.25159E+00   -0.12863E+01  3264   0.174E+01    0.159E+00
DAV:   2    -0.340344081683E+02   -0.18489E-01   -0.29528E-01  4368   0.265E+00    0.966E-01
DAV:   3    -0.340430145262E+02   -0.86064E-02   -0.19385E-01  4872   0.168E+00    0.980E-01
DAV:   4    -0.340325278534E+02    0.10487E-01   -0.18306E-01  4752   0.147E+00    0.608E-01
DAV:   5    -0.340294007259E+02    0.31271E-02   -0.26192E-02  4480   0.611E-01    0.317E-01
DAV:   6    -0.340285079001E+02    0.89283E-03   -0.48437E-03  4592   0.352E-01    0.586E-02
DAV:   7    -0.340285182047E+02   -0.10305E-04   -0.39948E-04  4240   0.113E-01    0.416E-02
DAV:   8    -0.340285172927E+02    0.91207E-06   -0.36893E-05  5072   0.306E-02    0.356E-02
DAV:   9    -0.340285143144E+02    0.29783E-05   -0.10114E-05  4384   0.155E-02    0.198E-02
DAV:  10    -0.340285120480E+02    0.22664E-05   -0.10048E-05  4144   0.155E-02    0.999E-03
DAV:  11    -0.340285124267E+02   -0.37866E-06   -0.18840E-06  2592   0.779E-03
   3 F= -.34028512E+02 E0= -.34018171E+02  d E =-.264182E+00
quench:  g(F)=  0.000E+00 g(S)=  0.000E+00 dE (1.order)= 0.000E+00
 bond charge predicted
       N       E                     dE             d eps       ncg     rms          rms(c)
DAV:   1    -0.341974219252E+02   -0.16891E+00   -0.15558E+01  3264   0.192E+01    0.177E+00
DAV:   2    -0.342191461060E+02   -0.21724E-01   -0.32759E-01  4352   0.285E+00    0.950E-01
DAV:   3    -0.342180247405E+02    0.11214E-02   -0.23697E-02  4712   0.810E-01    0.530E-01
DAV:   4    -0.342256307270E+02   -0.76060E-02   -0.82225E-02  4888   0.108E+00    0.816E-01
DAV:   5    -0.342189116834E+02    0.67190E-02   -0.89102E-02  4896   0.105E+00    0.399E-01
DAV:   6    -0.342165016647E+02    0.24100E-02   -0.14419E-02  4640   0.506E-01    0.546E-02
DAV:   7    -0.342165202859E+02   -0.18621E-04   -0.63169E-04  4096   0.138E-01    0.883E-02
DAV:   8    -0.342165197114E+02    0.57456E-06   -0.32181E-05  5336   0.290E-02    0.866E-02
DAV:   9    -0.342165190528E+02    0.65855E-06   -0.63731E-07  3008   0.476E-03
   4 F= -.34216519E+02 E0= -.34206202E+02  d E =-.188007E+00
quench:  g(F)=  0.000E+00 g(S)=  0.000E+00 dE (1.order)= 0.000E+00
 bond charge predicted
       N       E                     dE             d eps       ncg     rms          rms(c)
DAV:   1    -0.343127961856E+02   -0.96276E-01   -0.16736E+01  3264   0.199E+01    0.156E+00
DAV:   2    -0.343359930540E+02   -0.23197E-01   -0.34237E-01  4376   0.291E+00    0.970E-01
DAV:   3    -0.343380597377E+02   -0.20667E-02   -0.10761E-01  4720   0.148E+00    0.779E-01
DAV:   4    -0.343351042760E+02    0.29555E-02   -0.11094E-01  4896   0.121E+00    0.662E-01
DAV:   5    -0.343323094739E+02    0.27948E-02   -0.42595E-02  4880   0.773E-01    0.416E-01
DAV:   6    -0.343305205942E+02    0.17889E-02   -0.12163E-02  4488   0.488E-01    0.769E-02
DAV:   7    -0.343304837265E+02    0.36868E-04   -0.82533E-04  4480   0.166E-01    0.525E-02
DAV:   8    -0.343304766785E+02    0.70480E-05   -0.70662E-05  4336   0.463E-02    0.478E-02
DAV:   9    -0.343304765635E+02    0.11502E-06   -0.10810E-05  4400   0.153E-02    0.359E-02
DAV:  10    -0.343304751923E+02    0.13712E-05   -0.13240E-05  4072   0.160E-02    0.101E-02
DAV:  11    -0.343304775635E+02   -0.23712E-05   -0.35685E-06  3040   0.946E-03    0.619E-03
DAV:  12    -0.343304797681E+02   -0.22046E-05   -0.67799E-07  2088   0.424E-03    0.402E-03
DAV:  13    -0.343304835733E+02   -0.38051E-05   -0.44656E-07  2264   0.278E-03    0.241E-03
DAV:  14    -0.343304871895E+02   -0.36162E-05   -0.39432E-07  2384   0.210E-03    0.230E-03
DAV:  15    -0.343304904543E+02   -0.32649E-05   -0.24818E-07  2312   0.156E-03    0.119E-03
DAV:  16    -0.343304925265E+02   -0.20721E-05   -0.19627E-07  2208   0.130E-03    0.125E-03
DAV:  17    -0.343304938699E+02   -0.13434E-05   -0.97746E-08  1976   0.968E-04    0.118E-03
DAV:  18    -0.343304944503E+02   -0.58037E-06   -0.42256E-08  1664   0.624E-04
   5 F= -.34330494E+02 E0= -.34320256E+02  d E =-.113975E+00
quench:  g(F)=  0.000E+00 g(S)=  0.000E+00 dE (1.order)= 0.000E+00
 bond charge predicted
       N       E                     dE             d eps       ncg     rms          rms(c)
DAV:   1    -0.343771186749E+02   -0.46625E-01   -0.13525E+01  3264   0.179E+01    0.106E+00
DAV:   2    -0.343957118807E+02   -0.18593E-01   -0.24071E-01  4424   0.236E+00    0.585E-01
DAV:   3    -0.343998920093E+02   -0.41801E-02   -0.10318E-01  4792   0.138E+00    0.690E-01
DAV:   4    -0.343923556842E+02    0.75363E-02   -0.62125E-02  4976   0.939E-01    0.311E-01
DAV:   5    -0.343918977839E+02    0.45790E-03   -0.67131E-03  4296   0.348E-01    0.221E-01
DAV:   6    -0.343913229062E+02    0.57488E-03   -0.28224E-03  4384   0.266E-01    0.584E-02
DAV:   7    -0.343913354191E+02   -0.12513E-04   -0.28417E-04  4408   0.882E-02    0.336E-02
DAV:   8    -0.343913276046E+02    0.78144E-05   -0.40555E-05  4928   0.322E-02    0.212E-02
DAV:   9    -0.343913275763E+02    0.28289E-07   -0.10671E-05  4264   0.153E-02    0.967E-03
DAV:  10    -0.343913283617E+02   -0.78536E-06   -0.17419E-06  2792   0.728E-03
   6 F= -.34391328E+02 E0= -.34381010E+02  d E =-.608339E-01
quench:  g(F)=  0.000E+00 g(S)=  0.000E+00 dE (1.order)= 0.000E+00
 bond charge predicted
       N       E                     dE             d eps       ncg     rms          rms(c)
DAV:   1    -0.343989278280E+02   -0.76003E-02   -0.52499E+00  3264   0.112E+01    0.889E-01
DAV:   2    -0.344069487993E+02   -0.80210E-02   -0.10759E-01  4568   0.159E+00    0.321E-01
DAV:   3    -0.344080093016E+02   -0.10605E-02   -0.25621E-02  4616   0.720E-01    0.383E-01
DAV:   4    -0.344063112833E+02    0.16980E-02   -0.17089E-02  4896   0.520E-01    0.222E-01
DAV:   5    -0.344060506907E+02    0.26059E-03   -0.28654E-03  4912   0.221E-01    0.143E-01
DAV:   6    -0.344059577187E+02    0.92972E-04   -0.17022E-03  4488   0.187E-01    0.761E-02
DAV:   7    -0.344058835358E+02    0.74183E-04   -0.36423E-04  4424   0.990E-02    0.196E-02
DAV:   8    -0.344058807071E+02    0.28287E-05   -0.47404E-05  4752   0.369E-02    0.118E-02
DAV:   9    -0.344058814175E+02   -0.71042E-06   -0.97314E-06  4128   0.149E-02
   7 F= -.34405881E+02 E0= -.34395866E+02  d E =-.145531E-01
quench:  g(F)=  0.000E+00 g(S)=  0.000E+00 dE (1.order)= 0.000E+00
 bond charge predicted
       N       E                     dE             d eps       ncg     rms          rms(c)
DAV:   1    -0.344093696459E+02   -0.34889E-02   -0.13300E-01  3264   0.177E+00    0.159E-01
DAV:   2    -0.344095379450E+02   -0.16830E-03   -0.21455E-03  4448   0.228E-01    0.482E-02
DAV:   3    -0.344095454031E+02   -0.74581E-05   -0.27900E-04  4672   0.741E-02    0.492E-02
DAV:   4    -0.344095311735E+02    0.14230E-04   -0.22703E-04  4880   0.601E-02    0.357E-02
DAV:   5    -0.344095240670E+02    0.71065E-05   -0.59335E-05  4880   0.313E-02    0.161E-02
DAV:   6    -0.344095239312E+02    0.13581E-06   -0.16552E-05  4152   0.212E-02    0.620E-03
DAV:   7    -0.344095238980E+02    0.33150E-07   -0.23811E-06  2544   0.899E-03
   8 F= -.34409524E+02 E0= -.34399496E+02  d E =-.364248E-02
quench:  g(F)=  0.000E+00 g(S)=  0.000E+00 dE (1.order)= 0.000E+00
 bond charge predicted
       N       E                     dE             d eps       ncg     rms          rms(c)
DAV:   1    -0.344118186263E+02   -0.22947E-02   -0.28697E-01  3264   0.260E+00    0.233E-01
DAV:   2    -0.344122418605E+02   -0.42323E-03   -0.52371E-03  4472   0.352E-01    0.772E-02
DAV:   3    -0.344123292199E+02   -0.87359E-04   -0.15442E-03  4808   0.165E-01    0.988E-02
DAV:   4    -0.344122021822E+02    0.12704E-03   -0.97939E-04  4912   0.122E-01    0.484E-02
DAV:   5    -0.344121893902E+02    0.12792E-04   -0.66833E-05  4048   0.385E-02    0.195E-02
DAV:   6    -0.344121897916E+02   -0.40131E-06   -0.27179E-05  4080   0.266E-02    0.955E-03
DAV:   7    -0.344121892564E+02    0.53519E-06   -0.53380E-06  3368   0.126E-02
   9 F= -.34412189E+02 E0= -.34402165E+02  d E =-.266536E-02
quench:  g(F)=  0.000E+00 g(S)=  0.000E+00 dE (1.order)= 0.000E+00
 bond charge predicted
       N       E                     dE             d eps       ncg     rms          rms(c)
DAV:   1    -0.344124119877E+02   -0.22220E-03   -0.30617E-01  3264   0.270E+00    0.214E-01
DAV:   2    -0.344129809436E+02   -0.56896E-03   -0.68625E-03  4416   0.393E-01    0.792E-02
DAV:   3    -0.344130814569E+02   -0.10051E-03   -0.17971E-03  4840   0.181E-01    0.102E-01
DAV:   4    -0.344129349436E+02    0.14651E-03   -0.11034E-03  4832   0.130E-01    0.456E-02
DAV:   5    -0.344129198553E+02    0.15088E-04   -0.69080E-05  3824   0.391E-02    0.180E-02
DAV:   6    -0.344129206981E+02   -0.84280E-06   -0.12899E-05  4824   0.179E-02    0.832E-03
DAV:   7    -0.344129205681E+02    0.13006E-06   -0.28588E-06  2800   0.866E-03
  10 F= -.34412921E+02 E0= -.34402967E+02  d E =-.731312E-03
quench:  g(F)=  0.000E+00 g(S)=  0.000E+00 dE (1.order)= 0.000E+00
 bond charge predicted
       N       E                     dE             d eps       ncg     rms          rms(c)
DAV:   1    -0.344125910315E+02    0.32967E-03   -0.29969E-01  3264   0.267E+00    0.197E-01
DAV:   2    -0.344132002438E+02   -0.60921E-03   -0.74030E-03  4496   0.406E-01    0.737E-02
DAV:   3    -0.344132451714E+02   -0.44928E-04   -0.11226E-03  4888   0.151E-01    0.818E-02
DAV:   4    -0.344131718534E+02    0.73318E-04   -0.77008E-04  4752   0.111E-01    0.478E-02
DAV:   5    -0.344131574449E+02    0.14408E-04   -0.12975E-04  4712   0.486E-02    0.293E-02
DAV:   6    -0.344131514675E+02    0.59774E-05   -0.63860E-05  4552   0.387E-02    0.117E-02
DAV:   7    -0.344131507348E+02    0.73266E-06   -0.76469E-06  3992   0.154E-02
  11 F= -.34413151E+02 E0= -.34403346E+02  d E =-.230167E-03
quench:  g(F)=  0.000E+00 g(S)=  0.000E+00 dE (1.order)= 0.000E+00
 bond charge predicted
       N       E                     dE             d eps       ncg     rms          rms(c)
DAV:   1    -0.344124028602E+02    0.74861E-03   -0.38438E-01  3264   0.303E+00    0.214E-01
DAV:   2    -0.344131709171E+02   -0.76806E-03   -0.92010E-03  4432   0.453E-01    0.894E-02
DAV:   3    -0.344132822080E+02   -0.11129E-03   -0.22532E-03  4888   0.206E-01    0.110E-01
DAV:   4    -0.344131102779E+02    0.17193E-03   -0.13628E-03  4800   0.145E-01    0.509E-02
DAV:   5    -0.344130927041E+02    0.17574E-04   -0.11878E-04  4008   0.495E-02    0.282E-02
DAV:   6    -0.344130881482E+02    0.45559E-05   -0.55548E-05  4504   0.376E-02    0.118E-02
DAV:   7    -0.344130875514E+02    0.59682E-06   -0.74097E-06  4000   0.148E-02
  12 F= -.34413088E+02 E0= -.34403451E+02  d E =0.631834E-04
quench:  g(F)=  0.000E+00 g(S)=  0.000E+00 dE (1.order)= 0.000E+00
 bond charge predicted
       N       E                     dE             d eps       ncg     rms          rms(c)
DAV:   1    -0.344120266040E+02    0.10615E-02   -0.40947E-01  3264   0.313E+00    0.221E-01
DAV:   2    -0.344128604995E+02   -0.83390E-03   -0.99040E-03  4496   0.471E-01    0.932E-02
DAV:   3    -0.344129525299E+02   -0.92030E-04   -0.20952E-03  4888   0.202E-01    0.107E-01
DAV:   4    -0.344128033970E+02    0.14913E-03   -0.13045E-03  4784   0.143E-01    0.553E-02
DAV:   5    -0.344127852806E+02    0.18116E-04   -0.15403E-04  4408   0.549E-02    0.345E-02
DAV:   6    -0.344127764552E+02    0.88253E-05   -0.84862E-05  4456   0.449E-02    0.133E-02
DAV:   7    -0.344127757101E+02    0.74509E-06   -0.93342E-06  4048   0.171E-02
  13 F= -.34412776E+02 E0= -.34403325E+02  d E =0.311841E-03
quench:  g(F)=  0.000E+00 g(S)=  0.000E+00 dE (1.order)= 0.000E+00
 bond charge predicted
       N       E                     dE             d eps       ncg     rms          rms(c)
DAV:   1    -0.344117564570E+02    0.10200E-02   -0.34718E-01  3264   0.286E+00    0.225E-01
DAV:   2    -0.344123306334E+02   -0.57418E-03   -0.68246E-03  4480   0.401E-01    0.979E-02
DAV:   3    -0.344125122075E+02   -0.18157E-03   -0.32948E-03  4880   0.241E-01    0.132E-01
DAV:   4    -0.344122393393E+02    0.27287E-03   -0.17958E-03  4952   0.166E-01    0.503E-02
DAV:   5    -0.344122245087E+02    0.14831E-04   -0.75080E-05  3808   0.435E-02    0.215E-02
DAV:   6    -0.344122246177E+02   -0.10896E-06   -0.28938E-05  4304   0.264E-02    0.988E-03
DAV:   7    -0.344122241502E+02    0.46749E-06   -0.64173E-06  3752   0.133E-02
  14 F= -.34412224E+02 E0= -.34402858E+02  d E =0.551560E-03
quench:  g(F)=  0.000E+00 g(S)=  0.000E+00 dE (1.order)= 0.000E+00
 bond charge predicted
       N       E                     dE             d eps       ncg     rms          rms(c)
DAV:   1    -0.344124795368E+02   -0.25492E-03   -0.63689E-03  3264   0.387E-01    0.348E-02
DAV:   2    -0.344124856396E+02   -0.61029E-05   -0.90939E-05  4512   0.485E-02    0.116E-02
DAV:   3    -0.344124859807E+02   -0.34109E-06   -0.17500E-05  4384   0.191E-02    0.114E-02
DAV:   4    -0.344124850552E+02    0.92557E-06   -0.14439E-05  4088   0.158E-02    0.847E-03
DAV:   5    -0.344124844800E+02    0.57511E-06   -0.51464E-06  3208   0.978E-03
  15 F= -.34412484E+02 E0= -.34403131E+02  d E =-.260330E-03
quench:  g(F)=  0.000E+00 g(S)=  0.000E+00 dE (1.order)= 0.000E+00
 bond charge predicted
       N       E                     dE             d eps       ncg     rms          rms(c)
DAV:   1    -0.344127437254E+02   -0.25867E-03   -0.19448E-02  3264   0.677E-01    0.611E-02
DAV:   2    -0.344127649135E+02   -0.21188E-04   -0.29625E-04  4560   0.871E-02    0.224E-02
DAV:   3    -0.344127701275E+02   -0.52140E-05   -0.11639E-04  4720   0.475E-02    0.260E-02
DAV:   4    -0.344127615277E+02    0.85998E-05   -0.78043E-05  4920   0.353E-02    0.142E-02
DAV:   5    -0.344127604909E+02    0.10368E-05   -0.16214E-05  4232   0.166E-02    0.971E-03
DAV:   6    -0.344127593523E+02    0.11386E-05   -0.96120E-06  3672   0.138E-02    0.420E-03
DAV:   7    -0.344127591316E+02    0.22071E-06   -0.85690E-07  1728   0.568E-03
  16 F= -.34412759E+02 E0= -.34403425E+02  d E =-.274652E-03
quench:  g(F)=  0.000E+00 g(S)=  0.000E+00 dE (1.order)= 0.000E+00
 bond charge predicted
       N       E                     dE             d eps       ncg     rms          rms(c)
DAV:   1    -0.344128129449E+02   -0.53593E-04   -0.24558E-02  3264   0.761E-01    0.654E-02
DAV:   2    -0.344128386453E+02   -0.25700E-04   -0.34016E-04  4496   0.933E-02    0.218E-02
DAV:   3    -0.344128417452E+02   -0.30999E-05   -0.82757E-05  4672   0.405E-02    0.239E-02
DAV:   4    -0.344128360055E+02    0.57397E-05   -0.59941E-05  4880   0.313E-02    0.148E-02
DAV:   5    -0.344128347614E+02    0.12441E-05   -0.15153E-05  4056   0.160E-02    0.902E-03
DAV:   6    -0.344128337662E+02    0.99524E-06   -0.10021E-05  3648   0.144E-02    0.438E-03
DAV:   7    -0.344128334599E+02    0.30623E-06   -0.12547E-06  1784   0.653E-03
  17 F= -.34412833E+02 E0= -.34403531E+02  d E =-.743283E-04
quench:  g(F)=  0.000E+00 g(S)=  0.000E+00 dE (1.order)= 0.000E+00
 bond charge predicted
       N       E                     dE             d eps       ncg     rms          rms(c)
DAV:   1    -0.344128455388E+02   -0.11773E-04   -0.24641E-04  3264   0.759E-02    0.597E-03
DAV:   2    -0.344128458884E+02   -0.34964E-06   -0.37941E-06  4024   0.987E-03
  18 F= -.34412846E+02 E0= -.34403546E+02  d E =-.124285E-04
quench:  g(F)=  0.000E+00 g(S)=  0.000E+00 dE (1.order)= 0.000E+00
 bond charge predicted
       N       E                     dE             d eps       ncg     rms          rms(c)
DAV:   1    -0.344128642081E+02   -0.18669E-04   -0.82034E-04  3264   0.139E-01    0.103E-02
DAV:   2    -0.344128659982E+02   -0.17902E-05   -0.19992E-05  4712   0.213E-02    0.813E-03
DAV:   3    -0.344128662590E+02   -0.26077E-06   -0.19818E-05  4504   0.183E-02    0.831E-03
DAV:   4    -0.344128651285E+02    0.11305E-05   -0.61507E-06  3280   0.995E-03    0.284E-03
DAV:   5    -0.344128652263E+02   -0.97745E-07   -0.51203E-07  1672   0.389E-03
  19 F= -.34412865E+02 E0= -.34403569E+02  d E =-.193379E-04
quench:  g(F)=  0.000E+00 g(S)=  0.000E+00 dE (1.order)= 0.000E+00
 bond charge predicted
       N       E                     dE             d eps       ncg     rms          rms(c)
DAV:   1    -0.344128855863E+02   -0.20458E-04   -0.13992E-03  3264   0.181E-01    0.104E-02
DAV:   2    -0.344128872603E+02   -0.16740E-05   -0.19110E-05  4400   0.218E-02    0.397E-03
DAV:   3    -0.344128873005E+02   -0.40202E-07   -0.11116E-06  2856   0.543E-03
  20 F= -.34412887E+02 E0= -.34403599E+02  d E =-.220742E-04
quench:  g(F)=  0.000E+00 g(S)=  0.000E+00 dE (1.order)= 0.000E+00
 bond charge predicted
       N       E                     dE             d eps       ncg     rms          rms(c)
DAV:   1    -0.344129109085E+02   -0.23648E-04   -0.20807E-03  3264   0.222E-01    0.952E-03
DAV:   2    -0.344129133228E+02   -0.24143E-05   -0.28679E-05  4448   0.267E-02    0.688E-03
DAV:   3    -0.344129135607E+02   -0.23796E-06   -0.10640E-05  3952   0.141E-02    0.739E-03
DAV:   4    -0.344129128376E+02    0.72312E-06   -0.42277E-06  2976   0.902E-03
  21 F= -.34412913E+02 E0= -.34403637E+02  d E =-.255371E-04
quench:  g(F)=  0.000E+00 g(S)=  0.000E+00 dE (1.order)= 0.000E+00
 bond charge predicted
       N       E                     dE             d eps       ncg     rms          rms(c)
DAV:   1    -0.344129394218E+02   -0.25861E-04   -0.30323E-03  3264   0.268E-01    0.107E-02
DAV:   2    -0.344129424360E+02   -0.30142E-05   -0.35604E-05  4336   0.303E-02    0.561E-03
DAV:   3    -0.344129423910E+02    0.44992E-07   -0.19386E-06  3144   0.724E-03
  22 F= -.34412942E+02 E0= -.34403681E+02  d E =-.295534E-04
quench:  g(F)=  0.000E+00 g(S)=  0.000E+00 dE (1.order)= 0.000E+00
 bond charge predicted
       N       E                     dE             d eps       ncg     rms          rms(c)
DAV:   1    -0.344129711090E+02   -0.28673E-04   -0.41354E-03  3264   0.312E-01    0.133E-02
DAV:   2    -0.344129756432E+02   -0.45342E-05   -0.56073E-05  4472   0.374E-02    0.102E-02
DAV:   3    -0.344129759874E+02   -0.34425E-06   -0.22955E-05  4760   0.207E-02    0.107E-02
DAV:   4    -0.344129745167E+02    0.14707E-05   -0.89876E-06  3656   0.121E-02    0.514E-03
DAV:   5    -0.344129744721E+02    0.44609E-07   -0.16636E-06  1984   0.662E-03
  23 F= -.34412974E+02 E0= -.34403732E+02  d E =-.320811E-04
quench:  g(F)=  0.000E+00 g(S)=  0.000E+00 dE (1.order)= 0.000E+00
 bond charge predicted
       N       E                     dE             d eps       ncg     rms          rms(c)
DAV:   1    -0.344130031104E+02   -0.28594E-04   -0.51474E-03  3264   0.349E-01    0.146E-02
DAV:   2    -0.344130082961E+02   -0.51857E-05   -0.61940E-05  4336   0.400E-02    0.721E-03
DAV:   3    -0.344130081913E+02    0.10483E-06   -0.32557E-06  3416   0.946E-03
  24 F= -.34413008E+02 E0= -.34403785E+02  d E =-.337192E-04
quench:  g(F)=  0.000E+00 g(S)=  0.000E+00 dE (1.order)= 0.000E+00
 bond charge predicted
       N       E                     dE             d eps       ncg     rms          rms(c)
DAV:   1    -0.344130366180E+02   -0.28322E-04   -0.62524E-03  3264   0.384E-01    0.173E-02
DAV:   2    -0.344130431878E+02   -0.65698E-05   -0.81821E-05  4400   0.453E-02    0.116E-02
DAV:   3    -0.344130440425E+02   -0.85475E-06   -0.29304E-05  4880   0.233E-02    0.130E-02
DAV:   4    -0.344130419523E+02    0.20902E-05   -0.13941E-05  3992   0.149E-02    0.634E-03
DAV:   5    -0.344130417128E+02    0.23947E-06   -0.19282E-06  2208   0.708E-03
  25 F= -.34413042E+02 E0= -.34403840E+02  d E =-.335215E-04
quench:  g(F)=  0.000E+00 g(S)=  0.000E+00 dE (1.order)= 0.000E+00
 bond charge predicted
       N       E                     dE             d eps       ncg     rms          rms(c)
DAV:   1    -0.344130677634E+02   -0.25811E-04   -0.68867E-03  3264   0.404E-01    0.177E-02
DAV:   2    -0.344130752351E+02   -0.74717E-05   -0.89420E-05  4328   0.477E-02    0.865E-03
DAV:   3    -0.344130751685E+02    0.66575E-07   -0.59381E-06  3904   0.124E-02
  26 F= -.34413075E+02 E0= -.34403896E+02  d E =-.334557E-04
quench:  g(F)=  0.000E+00 g(S)=  0.000E+00 dE (1.order)= 0.000E+00
 bond charge predicted
       N       E                     dE             d eps       ncg     rms          rms(c)
DAV:   1    -0.344130990369E+02   -0.23802E-04   -0.76010E-03  3264   0.423E-01    0.206E-02
DAV:   2    -0.344131068998E+02   -0.78630E-05   -0.10101E-04  4352   0.506E-02    0.124E-02
DAV:   3    -0.344131071867E+02   -0.28688E-06   -0.17694E-05  4680   0.193E-02    0.116E-02
DAV:   4    -0.344131062352E+02    0.95145E-06   -0.13835E-05  4056   0.153E-02    0.803E-03
DAV:   5    -0.344131058597E+02    0.37555E-06   -0.58581E-06  3376   0.105E-02
  27 F= -.34413106E+02 E0= -.34403949E+02  d E =-.306912E-04
quench:  g(F)=  0.000E+00 g(S)=  0.000E+00 dE (1.order)= 0.000E+00
 bond charge predicted
       N       E                     dE             d eps       ncg     rms          rms(c)
DAV:   1    -0.344131233133E+02   -0.17078E-04   -0.64463E-03  3264   0.391E-01    0.185E-02
DAV:   2    -0.344131317408E+02   -0.84275E-05   -0.96994E-05  4320   0.490E-02    0.840E-03
DAV:   3    -0.344131319053E+02   -0.16456E-06   -0.61439E-06  4008   0.122E-02
  28 F= -.34413132E+02 E0= -.34404002E+02  d E =-.260456E-04
quench:  g(F)=  0.000E+00 g(S)=  0.000E+00 dE (1.order)= 0.000E+00
 bond charge predicted
       N       E                     dE             d eps       ncg     rms          rms(c)
DAV:   1    -0.344131451133E+02   -0.13373E-04   -0.45338E-03  3264   0.326E-01    0.213E-02
DAV:   2    -0.344131552524E+02   -0.10139E-04   -0.11991E-04  4792   0.520E-02    0.212E-02
DAV:   3    -0.344131526372E+02    0.26152E-05   -0.10627E-04  4880   0.422E-02    0.159E-02
DAV:   4    -0.344131484025E+02    0.42347E-05   -0.26208E-05  4696   0.198E-02    0.593E-03
DAV:   5    -0.344131482906E+02    0.11196E-06   -0.23942E-06  2584   0.778E-03
  29 F= -.34413148E+02 E0= -.34404022E+02  d E =-.163853E-04
quench:  g(F)=  0.000E+00 g(S)=  0.000E+00 dE (1.order)= 0.000E+00
 bond charge predicted
       N       E                     dE             d eps       ncg     rms          rms(c)
DAV:   1    -0.344131564831E+02   -0.80806E-05   -0.10808E-03  3264   0.160E-01    0.894E-03
DAV:   2    -0.344131576864E+02   -0.12033E-05   -0.14567E-05  4368   0.192E-02    0.345E-03
DAV:   3    -0.344131576406E+02    0.45852E-07   -0.35157E-07  2832   0.339E-03
  30 F= -.34413158E+02 E0= -.34404041E+02  d E =-.935000E-05
quench:  g(F)=  0.000E+00 g(S)=  0.000E+00 dE (1.order)= 0.000E+00
 bond charge predicted
       N       E                     dE             d eps       ncg     rms          rms(c)
DAV:   1    -0.344131649977E+02   -0.73112E-05   -0.59801E-04  3264   0.119E-01    0.629E-03
DAV:   2    -0.344131658920E+02   -0.89432E-06   -0.10401E-05  4328   0.157E-02    0.290E-03
DAV:   3    -0.344131658731E+02    0.18872E-07   -0.35729E-07  2400   0.349E-03
  31 F= -.34413166E+02 E0= -.34404054E+02  d E =-.823253E-05
quench:  g(F)=  0.000E+00 g(S)=  0.000E+00 dE (1.order)= 0.000E+00
 bond charge predicted
       N       E                     dE             d eps       ncg     rms          rms(c)
DAV:   1    -0.344131741238E+02   -0.82318E-05   -0.79206E-04  3264   0.137E-01    0.646E-03
DAV:   2    -0.344131753200E+02   -0.11962E-05   -0.14831E-05  4336   0.189E-02    0.442E-03
DAV:   3    -0.344131753276E+02   -0.75970E-08   -0.28750E-06  3136   0.822E-03
  32 F= -.34413175E+02 E0= -.34404071E+02  d E =-.945452E-05
quench:  g(F)=  0.000E+00 g(S)=  0.000E+00 dE (1.order)= 0.000E+00
 bond charge predicted
       N       E                     dE             d eps       ncg     rms          rms(c)
DAV:   1    -0.344131840736E+02   -0.87535E-05   -0.10060E-03  3264   0.154E-01    0.736E-03
DAV:   2    -0.344131857007E+02   -0.16271E-05   -0.20145E-05  4336   0.220E-02    0.622E-03
DAV:   3    -0.344131856368E+02    0.63886E-07   -0.57381E-06  3248   0.112E-02
  33 F= -.34413186E+02 E0= -.34404086E+02  d E =-.103092E-04
quench:  g(F)=  0.000E+00 g(S)=  0.000E+00 dE (1.order)= 0.000E+00
 bond charge predicted
       N       E                     dE             d eps       ncg     rms          rms(c)
DAV:   1    -0.344131945665E+02   -0.88658E-05   -0.11207E-03  3272   0.163E-01    0.838E-03
DAV:   2    -0.344131963646E+02   -0.17982E-05   -0.22483E-05  4416   0.230E-02    0.630E-03
DAV:   3    -0.344131963430E+02    0.21623E-07   -0.35361E-06  3032   0.908E-03
  34 F= -.34413196E+02 E0= -.34404103E+02  d E =-.107062E-04
quench:  g(F)=  0.000E+00 g(S)=  0.000E+00 dE (1.order)= 0.000E+00
 bond charge predicted
       N       E                     dE             d eps       ncg     rms          rms(c)
DAV:   1    -0.344132058793E+02   -0.95147E-05   -0.12999E-03  3272   0.175E-01    0.847E-03
DAV:   2    -0.344132081737E+02   -0.22944E-05   -0.28006E-05  4320   0.259E-02    0.696E-03
DAV:   3    -0.344132081705E+02    0.31760E-08   -0.85682E-06  3720   0.133E-02
  35 F= -.34413208E+02 E0= -.34404127E+02  d E =-.118275E-04
quench:  g(F)=  0.000E+00 g(S)=  0.000E+00 dE (1.order)= 0.000E+00
 bond charge predicted
       N       E                     dE             d eps       ncg     rms          rms(c)
DAV:   1    -0.344132170940E+02   -0.89203E-05   -0.14203E-03  3264   0.183E-01    0.940E-03
DAV:   2    -0.344132195639E+02   -0.24699E-05   -0.30001E-05  4288   0.265E-02    0.642E-03
DAV:   3    -0.344132194985E+02    0.65338E-07   -0.27912E-06  3216   0.862E-03
  36 F= -.34413219E+02 E0= -.34404143E+02  d E =-.113280E-04
quench:  g(F)=  0.000E+00 g(S)=  0.000E+00 dE (1.order)= 0.000E+00
 bond charge predicted
       N       E                     dE             d eps       ncg     rms          rms(c)
DAV:   1    -0.344132286459E+02   -0.90820E-05   -0.13454E-03  3264   0.178E-01    0.948E-03
DAV:   2    -0.344132309903E+02   -0.23444E-05   -0.28590E-05  4384   0.258E-02    0.613E-03
DAV:   3    -0.344132308800E+02    0.11027E-06   -0.86205E-07  2712   0.541E-03
  37 F= -.34413231E+02 E0= -.34404162E+02  d E =-.113815E-04
quench:  g(F)=  0.000E+00 g(S)=  0.000E+00 dE (1.order)= 0.000E+00
 bond charge predicted
       N       E                     dE             d eps       ncg     rms          rms(c)
DAV:   1    -0.344132399583E+02   -0.89680E-05   -0.14047E-03  3264   0.182E-01    0.935E-03
DAV:   2    -0.344132428155E+02   -0.28571E-05   -0.31765E-05  4280   0.270E-02    0.587E-03
DAV:   3    -0.344132430833E+02   -0.26782E-06   -0.81565E-06  3760   0.127E-02
  38 F= -.34413243E+02 E0= -.34404184E+02  d E =-.122033E-04
quench:  g(F)=  0.000E+00 g(S)=  0.000E+00 dE (1.order)= 0.000E+00
 bond charge predicted
       N       E                     dE             d eps       ncg     rms          rms(c)
DAV:   1    -0.344132510899E+02   -0.82744E-05   -0.14366E-03  3264   0.184E-01    0.944E-03
DAV:   2    -0.344132539311E+02   -0.28413E-05   -0.33449E-05  4336   0.280E-02    0.635E-03
DAV:   3    -0.344132539909E+02   -0.59771E-07   -0.49332E-06  3256   0.109E-02
  39 F= -.34413254E+02 E0= -.34404199E+02  d E =-.109076E-04
quench:  g(F)=  0.000E+00 g(S)=  0.000E+00 dE (1.order)= 0.000E+00
 bond charge predicted
       N       E                     dE             d eps       ncg     rms          rms(c)
DAV:   1    -0.344132605088E+02   -0.65777E-05   -0.12103E-03  3272   0.168E-01    0.125E-02
DAV:   2    -0.344132631876E+02   -0.26788E-05   -0.30927E-05  4536   0.266E-02    0.815E-03
DAV:   3    -0.344132636555E+02   -0.46792E-06   -0.13629E-05  4000   0.158E-02    0.778E-03
DAV:   4    -0.344132627850E+02    0.87054E-06   -0.90120E-06  3664   0.124E-02
  40 F= -.34413263E+02 E0= -.34404213E+02  d E =-.879408E-05
quench:  g(F)=  0.000E+00 g(S)=  0.000E+00 dE (1.order)= 0.000E+00
 bond charge predicted
       N       E                     dE             d eps       ncg     rms          rms(c)
DAV:   1    -0.344132675820E+02   -0.39265E-05   -0.58410E-04  3272   0.118E-01    0.966E-03
DAV:   2    -0.344132685427E+02   -0.96069E-06   -0.12052E-05  4352   0.168E-02    0.395E-03
DAV:   3    -0.344132688179E+02   -0.27523E-06   -0.54766E-06  3320   0.102E-02
  41 F= -.34413269E+02 E0= -.34404225E+02  d E =-.603294E-05
quench:  g(F)=  0.000E+00 g(S)=  0.000E+00 dE (1.order)= 0.000E+00
 bond charge predicted
       N       E                     dE             d eps       ncg     rms          rms(c)
DAV:   1    -0.344132725862E+02   -0.40435E-05   -0.26057E-04  3272   0.778E-02    0.592E-03
DAV:   2    -0.344132732211E+02   -0.63493E-06   -0.69168E-06  4208   0.129E-02
  42 F= -.34413273E+02 E0= -.34404230E+02  d E =-.440322E-05
quench:  g(F)=  0.000E+00 g(S)=  0.000E+00 dE (1.order)= 0.000E+00
 bond charge predicted
       N       E                     dE             d eps       ncg     rms          rms(c)
DAV:   1    -0.344132781297E+02   -0.55435E-05   -0.26467E-04  3272   0.782E-02    0.570E-03
DAV:   2    -0.344132808987E+02   -0.27691E-05   -0.29519E-05  4896   0.243E-02    0.124E-02
DAV:   3    -0.344132782693E+02    0.26294E-05   -0.15746E-05  4144   0.163E-02    0.240E-03
DAV:   4    -0.344132782503E+02    0.19076E-07   -0.54494E-07  1952   0.399E-03
  43 F= -.34413278E+02 E0= -.34404237E+02  d E =-.502915E-05
quench:  g(F)=  0.000E+00 g(S)=  0.000E+00 dE (1.order)= 0.000E+00
 bond charge predicted
       N       E                     dE             d eps       ncg     rms          rms(c)
DAV:   1    -0.344132834083E+02   -0.51390E-05   -0.33288E-04  3280   0.879E-02    0.476E-03
DAV:   2    -0.344132843338E+02   -0.92551E-06   -0.10104E-05  4320   0.152E-02    0.453E-03
DAV:   3    -0.344132842475E+02    0.86298E-07   -0.35864E-06  2952   0.882E-03
  44 F= -.34413284E+02 E0= -.34404244E+02  d E =-.599725E-05
quench:  g(F)=  0.000E+00 g(S)=  0.000E+00 dE (1.order)= 0.000E+00
 bond charge predicted
       N       E                     dE             d eps       ncg     rms          rms(c)
DAV:   1    -0.344132897669E+02   -0.54330E-05   -0.41801E-04  3272   0.986E-02    0.481E-03
DAV:   2    -0.344132907422E+02   -0.97529E-06   -0.11467E-05  4328   0.161E-02    0.422E-03
DAV:   3    -0.344132907060E+02    0.36113E-07   -0.20245E-06  2464   0.691E-03
  45 F= -.34413291E+02 E0= -.34404254E+02  d E =-.645852E-05
quench:  g(F)=  0.000E+00 g(S)=  0.000E+00 dE (1.order)= 0.000E+00
 bond charge predicted
       N       E                     dE             d eps       ncg     rms          rms(c)
DAV:   1    -0.344132967102E+02   -0.59680E-05   -0.50912E-04  3272   0.109E-01    0.544E-03
DAV:   2    -0.344132978778E+02   -0.11677E-05   -0.13410E-05  4224   0.174E-02    0.367E-03
DAV:   3    -0.344132978386E+02    0.39209E-07   -0.56569E-07  2448   0.424E-03
  46 F= -.34413298E+02 E0= -.34404265E+02  d E =-.713257E-05
quench:  g(F)=  0.000E+00 g(S)=  0.000E+00 dE (1.order)= 0.000E+00
 reached required accuracy - stopping structural energy minimisation
