Automatically generated mesh
       9
Reciprocal lattice
    0.10000000000000    0.10000000000000    0.00000000000000             6
    0.30000000000000    0.10000000000000    0.00000000000000            12
    0.50000000000000    0.10000000000000    0.00000000000000            12
   -0.30000000000000    0.10000000000001    0.00000000000000            12
   -0.10000000000000    0.10000000000001    0.00000000000000             6
    0.30000000000000    0.30000000000000    0.00000000000000             6
    0.50000000000000    0.30000000000000    0.00000000000000            12
   -0.30000000000000    0.30000000000001    0.00000000000000             6
    0.50000000000000    0.50000000000000    0.00000000000000             3
