 vasp.5.4.4.18Apr17-6-g9f103f2a35 (build Sep 16 2021 13:51:27) complex          
  
 executed on             LinuxIFC date 2023.03.16  11:28:59
 running on   24 total cores
 distrk:  each k-point on   24 cores,    1 groups
 distr:  one band on NCORES_PER_BAND=  24 cores,    1 groups


--------------------------------------------------------------------------------------------------------


 INCAR:
 POTCAR:    PAW_PBE Sn 08Apr2002                  
 POTCAR:    PAW_PBE Se 06Sep2000                  

 ----------------------------------------------------------------------------- 
|                                                                             |
|           W    W    AA    RRRRR   N    N  II  N    N   GGGG   !!!           |
|           W    W   A  A   R    R  NN   N  II  NN   N  G    G  !!!           |
|           W    W  A    A  R    R  N N  N  II  N N  N  G       !!!           |
|           W WW W  AAAAAA  RRRRR   N  N N  II  N  N N  G  GGG   !            |
|           WW  WW  A    A  R   R   N   NN  II  N   NN  G    G                |
|           W    W  A    A  R    R  N    N  II  N    N   GGGG   !!!           |
|                                                                             |
|      For optimal performance we recommend to set                            |
|        NCORE= 4 - approx SQRT( number of cores)                             |
|      NCORE specifies how many cores store one orbital (NPAR=cpu/NCORE).     |
|      This setting can  greatly improve the performance of VASP for DFT.     |
|      The default,   NCORE=1            might be grossly inefficient         |
|      on modern multi-core architectures or massively parallel machines.     |
|      Do your own testing !!!!                                               |
|      Unfortunately you need to use the default for GW and RPA calculations. |
|      (for HF NCORE is supported but not extensively tested yet)             |
|                                                                             |
 ----------------------------------------------------------------------------- 

 POTCAR:    PAW_PBE Sn 08Apr2002                  
   VRHFIN =Sn: s2p2                                                             
   LEXCH  = PE                                                                  
   EATOM  =    94.0860 eV,    6.9151 Ry                                         
                                                                                
   TITEL  = PAW_PBE Sn 08Apr2002                                                
   LULTRA =        F    use ultrasoft PP ?                                      
   IUNSCR =        1    unscreen: 0-lin 1-nonlin 2-no                           
   RPACOR =    2.000    partial core radius                                     
   POMASS =  118.710; ZVAL   =    4.000    mass and valenz                      
   RCORE  =    3.000    outmost cutoff radius                                   
   RWIGS  =    2.960; RWIGS  =    1.566    wigner-seitz radius (au A)           
   ENMAX  =  103.236; ENMIN  =   77.427 eV                                      
   ICORE  =        3    local potential                                         
   LCOR   =        T    correct aug charges                                     
   LPAW   =        T    paw PP                                                  
   EAUG   =  263.585                                                            
   DEXC   =    0.000                                                            
   RMAX   =    3.078    core radius for proj-oper                               
   RAUG   =    1.300    factor for augmentation sphere                          
   RDEP   =    3.022    radius for radial grids                                 
   RDEPT  =    2.655    core radius for aug-charge                              
                                                                                
   Atomic configuration                                                         
   13 entries                                                                   
     n  l   j            E        occ.                                          
     1  0  0.50    -29007.2859   2.0000                                         
     2  0  0.50     -4378.8056   2.0000                                         
     2  1  1.50     -3930.4293   6.0000                                         
     3  0  0.50      -845.0264   2.0000                                         
     3  1  1.50      -698.5725   6.0000                                         
     3  2  2.50      -473.2839  10.0000                                         
     4  0  0.50      -133.9036   2.0000                                         
     4  1  1.50       -89.6752   6.0000                                         
     4  2  2.50       -25.8375  10.0000                                         
     5  0  0.50       -10.5484   2.0000                                         
     5  1  0.50        -3.6940   2.0000                                         
     5  2  1.50        -1.3606   0.0000                                         
     4  3  2.50        -4.0817   0.0000                                         
   Description                                                                  
     l       E           TYP  RCUT    TYP  RCUT                                 
     0    -10.5483727     23  3.000                                             
     0     27.2116520     23  3.000                                             
     1     -3.6939829     23  3.000                                             
     1      1.9821976     23  3.000                                             
     2     -1.3605826     23  3.000                                             
     3     -2.7211652     23  3.000                                             
  local pseudopotential read in
  partial core-charges read in
  partial kinetic energy density read in
  atomic valenz-charges read in
  non local Contribution for L=           0  read in
    real space projection operators read in
  non local Contribution for L=           0  read in
    real space projection operators read in
  non local Contribution for L=           1  read in
    real space projection operators read in
  non local Contribution for L=           1  read in
    real space projection operators read in
  non local Contribution for L=           2  read in
    real space projection operators read in
    PAW grid and wavefunctions read in
 
   number of l-projection  operators is LMAX  =           5
   number of lm-projection operators is LMMAX =          13
 
 POTCAR:    PAW_PBE Se 06Sep2000                  
   VRHFIN =Se: s2p4                                                             
   LEXCH  = PE                                                                  
   EATOM  =   257.1286 eV,   18.8984 Ry                                         
                                                                                
   TITEL  = PAW_PBE Se 06Sep2000                                                
   LULTRA =        F    use ultrasoft PP ?                                      
   IUNSCR =        1    unscreen: 0-lin 1-nonlin 2-no                           
   RPACOR =    1.900    partial core radius                                     
   POMASS =   78.960; ZVAL   =    6.000    mass and valenz                      
   RCORE  =    2.100    outmost cutoff radius                                   
   RWIGS  =    2.200; RWIGS  =    1.164    wigner-seitz radius (au A)           
   ENMAX  =  211.555; ENMIN  =  158.666 eV                                      
   ICORE  =        3    local potential                                         
   LCOR   =        T    correct aug charges                                     
   LPAW   =        T    paw PP                                                  
   EAUG   =  446.842                                                            
   DEXC   =    0.000                                                            
   RMAX   =    2.147    core radius for proj-oper                               
   RAUG   =    1.300    factor for augmentation sphere                          
   RDEP   =    2.177    radius for radial grids                                 
   RDEPT  =    1.928    core radius for aug-charge                              
                                                                                
   Atomic configuration                                                         
   10 entries                                                                   
     n  l   j            E        occ.                                          
     1  0  0.50    -12503.4787   2.0000                                         
     2  0  0.50     -1606.9547   2.0000                                         
     2  1  1.50     -1413.3140   6.0000                                         
     3  0  0.50      -213.4885   2.0000                                         
     3  1  1.50      -152.9538   6.0000                                         
     3  2  2.50       -53.1221  10.0000                                         
     4  0  0.50       -17.2865   2.0000                                         
     4  1  0.50        -6.5110   4.0000                                         
     4  2  2.50        -6.8029   0.0000                                         
     4  3  2.50        -6.8029   0.0000                                         
   Description                                                                  
     l       E           TYP  RCUT    TYP  RCUT                                 
     0    -17.2865377     23  2.100                                             
     0    -15.3094411     23  2.100                                             
     1     -6.5110275     23  2.100                                             
     1     -0.0695192     23  2.100                                             
     2     -6.8029130     23  2.100                                             
     3     -1.3605826      7  2.100                                             
  local pseudopotential read in
  partial core-charges read in
  partial kinetic energy density read in
  atomic valenz-charges read in
  non local Contribution for L=           0  read in
    real space projection operators read in
  non local Contribution for L=           0  read in
    real space projection operators read in
  non local Contribution for L=           1  read in
    real space projection operators read in
  non local Contribution for L=           1  read in
    real space projection operators read in
  non local Contribution for L=           2  read in
    real space projection operators read in
    PAW grid and wavefunctions read in
 
   number of l-projection  operators is LMAX  =           5
   number of lm-projection operators is LMMAX =          13
 
 WARNING: PSMAXN for non-local potential too small
          PSMAXN should be >   12.5490833729506       NTYP=           1
  PAW_PBE Sn 08Apr2002                  :
 energy of atom  1       EATOM=  -94.0860
 kinetic energy error for atom=    0.0000 (will be added to EATOM!!)
  PAW_PBE Se 06Sep2000                  :
 energy of atom  2       EATOM= -257.1286
 kinetic energy error for atom=    0.0006 (will be added to EATOM!!)
 
 
 POSCAR:  POSCAR with strain of 0.000            
  positions in direct lattice
  No initial velocities read in
 exchange correlation table for  LEXCH =        8
   RHO(1)=    0.500       N(1)  =     2000
   RHO(2)=  100.500       N(2)  =     4000
 


--------------------------------------------------------------------------------------------------------


 ion  position               nearest neighbor table
   1  0.581  0.750  0.569-   4 2.72   3 2.92   3 2.92   3 3.22   3 3.22
   2  0.081  0.250  0.431-   3 2.72   4 2.92   4 2.92   4 3.22   4 3.22
   3  0.033  0.250  0.567-   2 2.72   1 2.92   1 2.92   1 3.22   1 3.22
   4  0.533  0.750  0.433-   1 2.72   2 2.92   2 2.92   2 3.22   2 3.22
 
  LATTYP: Found a simple orthorhombic cell.
 ALAT       =     4.2924778572
 B/A-ratio  =     1.0209387004
 C/A-ratio  =     4.6593134934
  
  Lattice vectors:
  
 A1 = (   0.0000000000,  -4.2924778572,   0.0000000000)
 A2 = (  -4.3823567649,   0.0000000000,   0.0000000000)
 A3 = (   0.0000000000,   0.0000000000, -20.0000000000)


Analysis of symmetry for initial positions (statically):
=====================================================================
 Subroutine PRICEL returns:
 Original cell was already a primitive cell.
 

 Routine SETGRP: Setting up the symmetry group for a 
 simple orthorhombic supercell.


 Subroutine GETGRP returns: Found  4 space group operations
 (whereof  1 operations were pure point group operations)
 out of a pool of  8 trial point group operations.


The static configuration has the point symmetry C_1 .
 The point group associated with its full space group is C_2v.


Analysis of symmetry for dynamics (positions and initial velocities):
=====================================================================
 Subroutine PRICEL returns:
 Original cell was already a primitive cell.
 

 Routine SETGRP: Setting up the symmetry group for a 
 simple orthorhombic supercell.


 Subroutine GETGRP returns: Found  4 space group operations
 (whereof  1 operations were pure point group operations)
 out of a pool of  8 trial point group operations.


The dynamic configuration has the point symmetry C_1 .
 The point group associated with its full space group is C_2v.


 Subroutine INISYM returns: Found  4 space group operations
 (whereof  1 operations are pure point group operations),
 and found     1 'primitive' translations

 
 
 KPOINTS: KMesh Grid                              

Automatic generation of k-mesh.
Space group operators:
 irot       det(A)        alpha          n_x          n_y          n_z        tau_x        tau_y        tau_z
    1     1.000000     0.000000     1.000000     0.000000     0.000000     0.000000     0.000000     0.000000
    2    -1.000000   180.000000     0.000000     0.000000     1.000000    -0.500000    -0.500000     0.000000
    3     1.000000   180.000000     1.000000     0.000000     0.000000    -0.500000     0.000000     0.000000
    4    -1.000000   180.000000     0.000000     1.000000     0.000000     0.000000    -0.500000     0.000000
 
 Subroutine IBZKPT returns following result:
 ===========================================
 
 Found     64 irreducible k-points:
 
 Following reciprocal coordinates:
            Coordinates               Weight
  0.000000  0.000000  0.000000      1.000000
  0.066667  0.000000  0.000000      2.000000
  0.133333  0.000000  0.000000      2.000000
  0.200000  0.000000  0.000000      2.000000
  0.266667  0.000000  0.000000      2.000000
  0.333333  0.000000  0.000000      2.000000
  0.400000  0.000000  0.000000      2.000000
  0.466667  0.000000  0.000000      2.000000
  0.000000  0.066667  0.000000      2.000000
  0.066667  0.066667  0.000000      4.000000
  0.133333  0.066667  0.000000      4.000000
  0.200000  0.066667  0.000000      4.000000
  0.266667  0.066667  0.000000      4.000000
  0.333333  0.066667  0.000000      4.000000
  0.400000  0.066667  0.000000      4.000000
  0.466667  0.066667  0.000000      4.000000
  0.000000  0.133333  0.000000      2.000000
  0.066667  0.133333  0.000000      4.000000
  0.133333  0.133333  0.000000      4.000000
  0.200000  0.133333  0.000000      4.000000
  0.266667  0.133333  0.000000      4.000000
  0.333333  0.133333  0.000000      4.000000
  0.400000  0.133333  0.000000      4.000000
  0.466667  0.133333  0.000000      4.000000
  0.000000  0.200000  0.000000      2.000000
  0.066667  0.200000  0.000000      4.000000
  0.133333  0.200000  0.000000      4.000000
  0.200000  0.200000  0.000000      4.000000
  0.266667  0.200000  0.000000      4.000000
  0.333333  0.200000  0.000000      4.000000
  0.400000  0.200000  0.000000      4.000000
  0.466667  0.200000  0.000000      4.000000
  0.000000  0.266667  0.000000      2.000000
  0.066667  0.266667  0.000000      4.000000
  0.133333  0.266667  0.000000      4.000000
  0.200000  0.266667  0.000000      4.000000
  0.266667  0.266667  0.000000      4.000000
  0.333333  0.266667  0.000000      4.000000
  0.400000  0.266667  0.000000      4.000000
  0.466667  0.266667  0.000000      4.000000
  0.000000  0.333333  0.000000      2.000000
  0.066667  0.333333  0.000000      4.000000
  0.133333  0.333333  0.000000      4.000000
  0.200000  0.333333  0.000000      4.000000
  0.266667  0.333333  0.000000      4.000000
  0.333333  0.333333  0.000000      4.000000
  0.400000  0.333333  0.000000      4.000000
  0.466667  0.333333  0.000000      4.000000
  0.000000  0.400000  0.000000      2.000000
  0.066667  0.400000  0.000000      4.000000
  0.133333  0.400000  0.000000      4.000000
  0.200000  0.400000  0.000000      4.000000
  0.266667  0.400000  0.000000      4.000000
  0.333333  0.400000  0.000000      4.000000
  0.400000  0.400000  0.000000      4.000000
  0.466667  0.400000  0.000000      4.000000
  0.000000  0.466667  0.000000      2.000000
  0.066667  0.466667  0.000000      4.000000
  0.133333  0.466667  0.000000      4.000000
  0.200000  0.466667  0.000000      4.000000
  0.266667  0.466667  0.000000      4.000000
  0.333333  0.466667  0.000000      4.000000
  0.400000  0.466667  0.000000      4.000000
  0.466667  0.466667  0.000000      4.000000
 
 Following cartesian coordinates:
            Coordinates               Weight
  0.000000  0.000000  0.000000      1.000000
  0.015213  0.000000  0.000000      2.000000
  0.030425  0.000000  0.000000      2.000000
  0.045638  0.000000  0.000000      2.000000
  0.060850  0.000000  0.000000      2.000000
  0.076063  0.000000  0.000000      2.000000
  0.091275  0.000000  0.000000      2.000000
  0.106488  0.000000  0.000000      2.000000
  0.000000  0.015531  0.000000      2.000000
  0.015213  0.015531  0.000000      4.000000
  0.030425  0.015531  0.000000      4.000000
  0.045638  0.015531  0.000000      4.000000
  0.060850  0.015531  0.000000      4.000000
  0.076063  0.015531  0.000000      4.000000
  0.091275  0.015531  0.000000      4.000000
  0.106488  0.015531  0.000000      4.000000
  0.000000  0.031062  0.000000      2.000000
  0.015213  0.031062  0.000000      4.000000
  0.030425  0.031062  0.000000      4.000000
  0.045638  0.031062  0.000000      4.000000
  0.060850  0.031062  0.000000      4.000000
  0.076063  0.031062  0.000000      4.000000
  0.091275  0.031062  0.000000      4.000000
  0.106488  0.031062  0.000000      4.000000
  0.000000  0.046593  0.000000      2.000000
  0.015213  0.046593  0.000000      4.000000
  0.030425  0.046593  0.000000      4.000000
  0.045638  0.046593  0.000000      4.000000
  0.060850  0.046593  0.000000      4.000000
  0.076063  0.046593  0.000000      4.000000
  0.091275  0.046593  0.000000      4.000000
  0.106488  0.046593  0.000000      4.000000
  0.000000  0.062124  0.000000      2.000000
  0.015213  0.062124  0.000000      4.000000
  0.030425  0.062124  0.000000      4.000000
  0.045638  0.062124  0.000000      4.000000
  0.060850  0.062124  0.000000      4.000000
  0.076063  0.062124  0.000000      4.000000
  0.091275  0.062124  0.000000      4.000000
  0.106488  0.062124  0.000000      4.000000
  0.000000  0.077655  0.000000      2.000000
  0.015213  0.077655  0.000000      4.000000
  0.030425  0.077655  0.000000      4.000000
  0.045638  0.077655  0.000000      4.000000
  0.060850  0.077655  0.000000      4.000000
  0.076063  0.077655  0.000000      4.000000
  0.091275  0.077655  0.000000      4.000000
  0.106488  0.077655  0.000000      4.000000
  0.000000  0.093186  0.000000      2.000000
  0.015213  0.093186  0.000000      4.000000
  0.030425  0.093186  0.000000      4.000000
  0.045638  0.093186  0.000000      4.000000
  0.060850  0.093186  0.000000      4.000000
  0.076063  0.093186  0.000000      4.000000
  0.091275  0.093186  0.000000      4.000000
  0.106488  0.093186  0.000000      4.000000
  0.000000  0.108717  0.000000      2.000000
  0.015213  0.108717  0.000000      4.000000
  0.030425  0.108717  0.000000      4.000000
  0.045638  0.108717  0.000000      4.000000
  0.060850  0.108717  0.000000      4.000000
  0.076063  0.108717  0.000000      4.000000
  0.091275  0.108717  0.000000      4.000000
  0.106488  0.108717  0.000000      4.000000
 


--------------------------------------------------------------------------------------------------------




 Dimension of arrays:
   k-points           NKPTS =     64   k-points in BZ     NKDIM =     64   number of bands    NBANDS=     14
   number of dos      NEDOS =    301   number of ions     NIONS =      4
   non local maximal  LDIM  =      5   non local SUM 2l+1 LMDIM =     13
   total plane-waves  NPLWV = 207360
   max r-space proj   IRMAX =      1   max aug-charges    IRDMAX=  53247
   dimension x,y,z NGX =    36 NGY =   36 NGZ =  160
   dimension x,y,z NGXF=    72 NGYF=   72 NGZF=  320
   support grid    NGXF=    72 NGYF=   72 NGZF=  320
   ions per type =               2   2
   NGX,Y,Z   is equivalent  to a cutoff of  13.66, 13.94, 13.30 a.u.
   NGXF,Y,Z  is equivalent  to a cutoff of  27.31, 27.89, 26.60 a.u.

 SYSTEM =  SnSe                                    
 POSCAR =   POSCAR with strain of 0.000            

 Startparameter for this run:
   NWRITE =      2    write-flag & timer
   PREC   = accura    normal or accurate (medium, high low for compatibility)
   ISTART =      0    job   : 0-new  1-cont  2-samecut
   ICHARG =      2    charge: 1-file 2-atom 10-const
   ISPIN  =      1    spin polarized calculation?
   LNONCOLLINEAR =      F non collinear calculations
   LSORBIT =      F    spin-orbit coupling
   INIWAV =      1    electr: 0-lowe 1-rand  2-diag
   LASPH  =      F    aspherical Exc in radial PAW
   METAGGA=      F    non-selfconsistent MetaGGA calc.

 Electronic Relaxation 1
   ENCUT  =  600.0 eV  44.10 Ry    6.64 a.u.   8.75  8.57 39.94*2*pi/ulx,y,z
   ENINI  =  600.0     initial cutoff
   ENAUG  =  446.8 eV  augmentation charge cutoff
   NELM   =     60;   NELMIN=  2; NELMDL= -5     # of ELM steps 
   EDIFF  = 0.1E-05   stopping-criterion for ELM
   LREAL  =      F    real-space projection
   NLSPLINE    = F    spline interpolate recip. space projectors
   LCOMPAT=      F    compatible to vasp.4.4
   GGA_COMPAT  = T    GGA compatible to vasp.4.4-vasp.4.6
   LMAXPAW     = -100 max onsite density
   LMAXMIX     =    2 max onsite mixed and CHGCAR
   VOSKOWN=      0    Vosko Wilk Nusair interpolation
   ROPT   =    0.00000   0.00000
 Ionic relaxation
   EDIFFG = -.1E-02   stopping-criterion for IOM
   NSW    =    100    number of steps for IOM
   NBLOCK =      1;   KBLOCK =    100    inner block; outer block 
   IBRION =      2    ionic relax: 0-MD 1-quasi-New 2-CG
   NFREE  =      1    steps in history (QN), initial steepest desc. (CG)
   ISIF   =      2    stress and relaxation
   IWAVPR =     11    prediction:  0-non 1-charg 2-wave 3-comb
   ISYM   =      2    0-nonsym 1-usesym 2-fastsym
   LCORR  =      T    Harris-Foulkes like correction to forces

   POTIM  = 0.5000    time-step for ionic-motion
   TEIN   =    0.0    initial temperature
   TEBEG  =    0.0;   TEEND  =   0.0 temperature during run
   SMASS  =  -3.00    Nose mass-parameter (am)
   estimated Nose-frequenzy (Omega)   =  0.10E-29 period in steps =****** mass=  -0.439E-27a.u.
   SCALEE = 1.0000    scale energy and forces
   NPACO  =    256;   APACO  = 16.0  distance and # of slots for P.C.
   PSTRESS=    0.0 pullay stress

  Mass of Ions in am
   POMASS = 118.71 78.96
  Ionic Valenz
   ZVAL   =   4.00  6.00
  Atomic Wigner-Seitz radii
   RWIGS  =  -1.00 -1.00
  virtual crystal weights 
   VCA    =   1.00  1.00
   NELECT =      20.0000    total number of electrons
   NUPDOWN=      -1.0000    fix difference up-down

 DOS related values:
   EMIN   =  10.00;   EMAX   =-10.00  energy-range for DOS
   EFERMI =   0.00
   ISMEAR =     0;   SIGMA  =   0.10  broadening in eV -4-tet -1-fermi 0-gaus

 Electronic relaxation 2 (details)
   IALGO  =     38    algorithm
   LDIAG  =      T    sub-space diagonalisation (order eigenvalues)
   LSUBROT=      F    optimize rotation matrix (better conditioning)
   TURBO    =      0    0=normal 1=particle mesh
   IRESTART =      0    0=no restart 2=restart with 2 vectors
   NREBOOT  =      0    no. of reboots
   NMIN     =      0    reboot dimension
   EREF     =   0.00    reference energy to select bands
   IMIX   =      4    mixing-type and parameters
     AMIX     =   0.40;   BMIX     =  1.00
     AMIX_MAG =   1.60;   BMIX_MAG =  1.00
     AMIN     =   0.10
     WC   =   100.;   INIMIX=   1;  MIXPRE=   1;  MAXMIX= -45

 Intra band minimization:
   WEIMIN = 0.0010     energy-eigenvalue tresh-hold
   EBREAK =  0.18E-07  absolut break condition
   DEPER  =   0.30     relativ break condition  

   TIME   =   0.40     timestep for ELM

  volume/ion in A,a.u.               =      94.06       634.72
  Fermi-wavevector in a.u.,A,eV,Ry     =   0.615559  1.163238  5.155420  0.378913
  Thomas-Fermi vector in A             =   1.672972
 
 Write flags
   LWAVE        =      T    write WAVECAR
   LDOWNSAMPLE  =      F    k-point downsampling of WAVECAR
   LCHARG       =      T    write CHGCAR
   LVTOT        =      F    write LOCPOT, total local potential
   LVHAR        =      F    write LOCPOT, Hartree potential only
   LELF         =      F    write electronic localiz. function (ELF)
   LORBIT       =      0    0 simple, 1 ext, 2 COOP (PROOUT), +10 PAW based schemes


 Dipole corrections
   LMONO  =      F    monopole corrections only (constant potential shift)
   LDIPOL =      F    correct potential (dipole corrections)
   IDIPOL =      0    1-x, 2-y, 3-z, 4-all directions 
   EPSILON=  1.0000000 bulk dielectric constant

 Exchange correlation treatment:
   GGA     =    PE    GGA type
   LEXCH   =     8    internal setting for exchange type
   VOSKOWN=      0    Vosko Wilk Nusair interpolation
   LHFCALC =     F    Hartree Fock is set to
   LHFONE  =     F    Hartree Fock one center treatment
   AEXX    =    0.0000 exact exchange contribution

 Linear response parameters
   LEPSILON=     F    determine dielectric tensor
   LRPA    =     F    only Hartree local field effects (RPA)
   LNABLA  =     F    use nabla operator in PAW spheres
   LVEL    =     F    velocity operator in full k-point grid
   LINTERFAST=   F  fast interpolation
   KINTER  =     0    interpolate to denser k-point grid
   CSHIFT  =0.1000    complex shift for real part using Kramers Kronig
   OMEGAMAX=  -1.0    maximum frequency
   DEG_THRESHOLD= 0.2000000E-02 threshold for treating states as degnerate
   RTIME   =   -0.100 relaxation time in fs
  (WPLASMAI=    0.000 imaginary part of plasma frequency in eV, 0.658/RTIME)
   DFIELD  = 0.0000000 0.0000000 0.0000000 field for delta impulse in time
 
 Orbital magnetization related:
   ORBITALMAG=     F  switch on orbital magnetization
   LCHIMAG   =     F  perturbation theory with respect to B field
   DQ        =  0.001000  dq finite difference perturbation B field
   LLRAUG    =     F  two centre corrections for induced B field



--------------------------------------------------------------------------------------------------------


 conjugate gradient relaxation of ions
 charge density and potential will be updated during run
 non-spin polarized calculation
 Variant of blocked Davidson
 Davidson routine will perform the subspace rotation
 perform sub-space diagonalisation
    after iterative eigenvector-optimisation
 modified Broyden-mixing scheme, WC =      100.0
 initial mixing is a Kerker type mixing with AMIX =  0.4000 and BMIX =      1.0000
 Hartree-type preconditioning will be used
 using additional bands            4
 reciprocal scheme for non local part
 use partial core corrections
 calculate Harris-corrections to forces 
   (improved forces if not selfconsistent)
 use gradient corrections 
 use of overlap-Matrix (Vanderbilt PP)
 Gauss-broadening in eV      SIGMA  =   0.10


--------------------------------------------------------------------------------------------------------


  energy-cutoff  :      600.00
  volume of cell :      376.22
      direct lattice vectors                 reciprocal lattice vectors
     4.382356765  0.000000000  0.000000000     0.228187720  0.000000000  0.000000000
     0.000000000  4.292477857  0.000000000     0.000000000  0.232965675  0.000000000
     0.000000000  0.000000000 20.000000000     0.000000000  0.000000000  0.050000000

  length of vectors
     4.382356765  4.292477857 20.000000000     0.228187720  0.232965675  0.050000000


 
 k-points in units of 2pi/SCALE and weight: KMesh Grid                              
   0.00000000  0.00000000  0.00000000       0.004
   0.01521251  0.00000000  0.00000000       0.009
   0.03042503  0.00000000  0.00000000       0.009
   0.04563754  0.00000000  0.00000000       0.009
   0.06085006  0.00000000  0.00000000       0.009
   0.07606257  0.00000000  0.00000000       0.009
   0.09127509  0.00000000  0.00000000       0.009
   0.10648760  0.00000000  0.00000000       0.009
   0.00000000  0.01553104  0.00000000       0.009
   0.01521251  0.01553104  0.00000000       0.018
   0.03042503  0.01553104  0.00000000       0.018
   0.04563754  0.01553104  0.00000000       0.018
   0.06085006  0.01553104  0.00000000       0.018
   0.07606257  0.01553104  0.00000000       0.018
   0.09127509  0.01553104  0.00000000       0.018
   0.10648760  0.01553104  0.00000000       0.018
   0.00000000  0.03106209  0.00000000       0.009
   0.01521251  0.03106209  0.00000000       0.018
   0.03042503  0.03106209  0.00000000       0.018
   0.04563754  0.03106209  0.00000000       0.018
   0.06085006  0.03106209  0.00000000       0.018
   0.07606257  0.03106209  0.00000000       0.018
   0.09127509  0.03106209  0.00000000       0.018
   0.10648760  0.03106209  0.00000000       0.018
   0.00000000  0.04659313  0.00000000       0.009
   0.01521251  0.04659313  0.00000000       0.018
   0.03042503  0.04659313  0.00000000       0.018
   0.04563754  0.04659313  0.00000000       0.018
   0.06085006  0.04659313  0.00000000       0.018
   0.07606257  0.04659313  0.00000000       0.018
   0.09127509  0.04659313  0.00000000       0.018
   0.10648760  0.04659313  0.00000000       0.018
   0.00000000  0.06212418  0.00000000       0.009
   0.01521251  0.06212418  0.00000000       0.018
   0.03042503  0.06212418  0.00000000       0.018
   0.04563754  0.06212418  0.00000000       0.018
   0.06085006  0.06212418  0.00000000       0.018
   0.07606257  0.06212418  0.00000000       0.018
   0.09127509  0.06212418  0.00000000       0.018
   0.10648760  0.06212418  0.00000000       0.018
   0.00000000  0.07765522  0.00000000       0.009
   0.01521251  0.07765522  0.00000000       0.018
   0.03042503  0.07765522  0.00000000       0.018
   0.04563754  0.07765522  0.00000000       0.018
   0.06085006  0.07765522  0.00000000       0.018
   0.07606257  0.07765522  0.00000000       0.018
   0.09127509  0.07765522  0.00000000       0.018
   0.10648760  0.07765522  0.00000000       0.018
   0.00000000  0.09318627  0.00000000       0.009
   0.01521251  0.09318627  0.00000000       0.018
   0.03042503  0.09318627  0.00000000       0.018
   0.04563754  0.09318627  0.00000000       0.018
   0.06085006  0.09318627  0.00000000       0.018
   0.07606257  0.09318627  0.00000000       0.018
   0.09127509  0.09318627  0.00000000       0.018
   0.10648760  0.09318627  0.00000000       0.018
   0.00000000  0.10871731  0.00000000       0.009
   0.01521251  0.10871731  0.00000000       0.018
   0.03042503  0.10871731  0.00000000       0.018
   0.04563754  0.10871731  0.00000000       0.018
   0.06085006  0.10871731  0.00000000       0.018
   0.07606257  0.10871731  0.00000000       0.018
   0.09127509  0.10871731  0.00000000       0.018
   0.10648760  0.10871731  0.00000000       0.018
 
 k-points in reciprocal lattice and weights: KMesh Grid                              
   0.00000000  0.00000000  0.00000000       0.004
   0.06666667  0.00000000  0.00000000       0.009
   0.13333333  0.00000000  0.00000000       0.009
   0.20000000  0.00000000  0.00000000       0.009
   0.26666667  0.00000000  0.00000000       0.009
   0.33333333  0.00000000  0.00000000       0.009
   0.40000000  0.00000000  0.00000000       0.009
   0.46666667  0.00000000  0.00000000       0.009
   0.00000000  0.06666667  0.00000000       0.009
   0.06666667  0.06666667  0.00000000       0.018
   0.13333333  0.06666667  0.00000000       0.018
   0.20000000  0.06666667  0.00000000       0.018
   0.26666667  0.06666667  0.00000000       0.018
   0.33333333  0.06666667  0.00000000       0.018
   0.40000000  0.06666667  0.00000000       0.018
   0.46666667  0.06666667  0.00000000       0.018
   0.00000000  0.13333333  0.00000000       0.009
   0.06666667  0.13333333  0.00000000       0.018
   0.13333333  0.13333333  0.00000000       0.018
   0.20000000  0.13333333  0.00000000       0.018
   0.26666667  0.13333333  0.00000000       0.018
   0.33333333  0.13333333  0.00000000       0.018
   0.40000000  0.13333333  0.00000000       0.018
   0.46666667  0.13333333  0.00000000       0.018
   0.00000000  0.20000000  0.00000000       0.009
   0.06666667  0.20000000  0.00000000       0.018
   0.13333333  0.20000000  0.00000000       0.018
   0.20000000  0.20000000  0.00000000       0.018
   0.26666667  0.20000000  0.00000000       0.018
   0.33333333  0.20000000  0.00000000       0.018
   0.40000000  0.20000000  0.00000000       0.018
   0.46666667  0.20000000  0.00000000       0.018
   0.00000000  0.26666667  0.00000000       0.009
   0.06666667  0.26666667  0.00000000       0.018
   0.13333333  0.26666667  0.00000000       0.018
   0.20000000  0.26666667  0.00000000       0.018
   0.26666667  0.26666667  0.00000000       0.018
   0.33333333  0.26666667  0.00000000       0.018
   0.40000000  0.26666667  0.00000000       0.018
   0.46666667  0.26666667  0.00000000       0.018
   0.00000000  0.33333333  0.00000000       0.009
   0.06666667  0.33333333  0.00000000       0.018
   0.13333333  0.33333333  0.00000000       0.018
   0.20000000  0.33333333  0.00000000       0.018
   0.26666667  0.33333333  0.00000000       0.018
   0.33333333  0.33333333  0.00000000       0.018
   0.40000000  0.33333333  0.00000000       0.018
   0.46666667  0.33333333  0.00000000       0.018
   0.00000000  0.40000000  0.00000000       0.009
   0.06666667  0.40000000  0.00000000       0.018
   0.13333333  0.40000000  0.00000000       0.018
   0.20000000  0.40000000  0.00000000       0.018
   0.26666667  0.40000000  0.00000000       0.018
   0.33333333  0.40000000  0.00000000       0.018
   0.40000000  0.40000000  0.00000000       0.018
   0.46666667  0.40000000  0.00000000       0.018
   0.00000000  0.46666667  0.00000000       0.009
   0.06666667  0.46666667  0.00000000       0.018
   0.13333333  0.46666667  0.00000000       0.018
   0.20000000  0.46666667  0.00000000       0.018
   0.26666667  0.46666667  0.00000000       0.018
   0.33333333  0.46666667  0.00000000       0.018
   0.40000000  0.46666667  0.00000000       0.018
   0.46666667  0.46666667  0.00000000       0.018
 
 position of ions in fractional coordinates (direct lattice) 
   0.58124336  0.75000000  0.56874314
   0.08124336  0.25000000  0.43125686
   0.03286064  0.25000000  0.56707387
   0.53286061  0.75000000  0.43292613
 
 position of ions in cartesian coordinates  (Angst):
   2.54721576  3.21935839 11.37486283
   0.35603738  1.07311946  8.62513717
   0.14400706  1.07311946 11.34147733
   2.33518532  3.21935839  8.65852267
 


--------------------------------------------------------------------------------------------------------


 k-point  1 :   0.0000 0.0000 0.0000  plane waves:   12651
 k-point  2 :   0.0667 0.0000 0.0000  plane waves:   12591
 k-point  3 :   0.1333 0.0000 0.0000  plane waves:   12573
 k-point  4 :   0.2000 0.0000 0.0000  plane waves:   12533
 k-point  5 :   0.2667 0.0000 0.0000  plane waves:   12532
 k-point  6 :   0.3333 0.0000 0.0000  plane waves:   12570
 k-point  7 :   0.4000 0.0000 0.0000  plane waves:   12602
 k-point  8 :   0.4667 0.0000 0.0000  plane waves:   12578
 k-point  9 :   0.0000 0.0667 0.0000  plane waves:   12585
 k-point 10 :   0.0667 0.0667 0.0000  plane waves:   12588
 k-point 11 :   0.1333 0.0667 0.0000  plane waves:   12570
 k-point 12 :   0.2000 0.0667 0.0000  plane waves:   12558
 k-point 13 :   0.2667 0.0667 0.0000  plane waves:   12557
 k-point 14 :   0.3333 0.0667 0.0000  plane waves:   12570
 k-point 15 :   0.4000 0.0667 0.0000  plane waves:   12590
 k-point 16 :   0.4667 0.0667 0.0000  plane waves:   12590
 k-point 17 :   0.0000 0.1333 0.0000  plane waves:   12571
 k-point 18 :   0.0667 0.1333 0.0000  plane waves:   12574
 k-point 19 :   0.1333 0.1333 0.0000  plane waves:   12547
 k-point 20 :   0.2000 0.1333 0.0000  plane waves:   12534
 k-point 21 :   0.2667 0.1333 0.0000  plane waves:   12545
 k-point 22 :   0.3333 0.1333 0.0000  plane waves:   12574
 k-point 23 :   0.4000 0.1333 0.0000  plane waves:   12579
 k-point 24 :   0.4667 0.1333 0.0000  plane waves:   12576
 k-point 25 :   0.0000 0.2000 0.0000  plane waves:   12573
 k-point 26 :   0.0667 0.2000 0.0000  plane waves:   12559
 k-point 27 :   0.1333 0.2000 0.0000  plane waves:   12566
 k-point 28 :   0.2000 0.2000 0.0000  plane waves:   12557
 k-point 29 :   0.2667 0.2000 0.0000  plane waves:   12546
 k-point 30 :   0.3333 0.2000 0.0000  plane waves:   12549
 k-point 31 :   0.4000 0.2000 0.0000  plane waves:   12562
 k-point 32 :   0.4667 0.2000 0.0000  plane waves:   12574
 k-point 33 :   0.0000 0.2667 0.0000  plane waves:   12565
 k-point 34 :   0.0667 0.2667 0.0000  plane waves:   12552
 k-point 35 :   0.1333 0.2667 0.0000  plane waves:   12557
 k-point 36 :   0.2000 0.2667 0.0000  plane waves:   12559
 k-point 37 :   0.2667 0.2667 0.0000  plane waves:   12561
 k-point 38 :   0.3333 0.2667 0.0000  plane waves:   12557
 k-point 39 :   0.4000 0.2667 0.0000  plane waves:   12559
 k-point 40 :   0.4667 0.2667 0.0000  plane waves:   12567
 k-point 41 :   0.0000 0.3333 0.0000  plane waves:   12535
 k-point 42 :   0.0667 0.3333 0.0000  plane waves:   12531
 k-point 43 :   0.1333 0.3333 0.0000  plane waves:   12534
 k-point 44 :   0.2000 0.3333 0.0000  plane waves:   12555
 k-point 45 :   0.2667 0.3333 0.0000  plane waves:   12542
 k-point 46 :   0.3333 0.3333 0.0000  plane waves:   12540
 k-point 47 :   0.4000 0.3333 0.0000  plane waves:   12552
 k-point 48 :   0.4667 0.3333 0.0000  plane waves:   12557
 k-point 49 :   0.0000 0.4000 0.0000  plane waves:   12509
 k-point 50 :   0.0667 0.4000 0.0000  plane waves:   12532
 k-point 51 :   0.1333 0.4000 0.0000  plane waves:   12546
 k-point 52 :   0.2000 0.4000 0.0000  plane waves:   12535
 k-point 53 :   0.2667 0.4000 0.0000  plane waves:   12550
 k-point 54 :   0.3333 0.4000 0.0000  plane waves:   12535
 k-point 55 :   0.4000 0.4000 0.0000  plane waves:   12527
 k-point 56 :   0.4667 0.4000 0.0000  plane waves:   12541
 k-point 57 :   0.0000 0.4667 0.0000  plane waves:   12528
 k-point 58 :   0.0667 0.4667 0.0000  plane waves:   12532
 k-point 59 :   0.1333 0.4667 0.0000  plane waves:   12532
 k-point 60 :   0.2000 0.4667 0.0000  plane waves:   12540
 k-point 61 :   0.2667 0.4667 0.0000  plane waves:   12520
 k-point 62 :   0.3333 0.4667 0.0000  plane waves:   12531
 k-point 63 :   0.4000 0.4667 0.0000  plane waves:   12516
 k-point 64 :   0.4667 0.4667 0.0000  plane waves:   12535

 maximum and minimum number of plane-waves per node :       545      503

 maximum number of plane-waves:     12651
 maximum index in each direction: 
   IXMAX=    8   IYMAX=    8   IZMAX=   39
   IXMIN=   -9   IYMIN=   -9   IZMIN=  -39


 parallel 3D FFT for wavefunctions:
    minimum data exchange during FFTs selected (reduces bandwidth)
 parallel 3D FFT for charge:
    minimum data exchange during FFTs selected (reduces bandwidth)


 total amount of memory used by VASP MPI-rank0    52047. kBytes
=======================================================================

   base      :      30000. kBytes
   nonl-proj :       7156. kBytes
   fftplans  :       2678. kBytes
   grid      :       4349. kBytes
   one-center:          8. kBytes
   wavefun   :       7856. kBytes
 
     INWAV:  cpu time    0.0000: real time    0.0000
 Broyden mixing: mesh for mixing (old mesh)
   NGX = 17   NGY = 17   NGZ = 79
  (NGX  = 72   NGY  = 72   NGZ  =320)
  gives a total of  22831 points

 initial charge density was supplied:
 charge density of overlapping atoms calculated
 number of electron      20.0000000 magnetization 
 keeping initial charge density in first step


--------------------------------------------------------------------------------------------------------


 Maximum index for augmentation-charges         2228 (set IRDMAX)


--------------------------------------------------------------------------------------------------------


 First call to EWALD:  gamma=   0.246
 Maximum number of real-space cells 4x 4x 1
 Maximum number of reciprocal cells 2x 2x 7

    FEWALD:  cpu time    0.0013: real time    0.0013


--------------------------------------- Iteration      1(   1)  ---------------------------------------


    POTLOK:  cpu time    0.0611: real time    0.1765
    SETDIJ:  cpu time    0.0049: real time    0.0057
     EDDAV:  cpu time    1.5273: real time    1.5327
       DOS:  cpu time    0.0032: real time    0.0033
    --------------------------------------------
      LOOP:  cpu time    1.5964: real time    1.7183

 eigenvalue-minimisations  :  1792
 total energy-change (2. order) : 0.1459835E+03  (-0.6276404E+03)
 number of electron      20.0000000 magnetization 
 augmentation part       20.0000000 magnetization 

 Free energy of the ion-electron system (eV)
  ---------------------------------------------------
  alpha Z        PSCENC =         9.50421754
  Ewald energy   TEWEN  =      1152.71885526
  -Hartree energ DENC   =     -1754.61169093
  -exchange      EXHF   =         0.00000000
  -V(xc)+E(xc)   XCENC  =      -238.58756104
  PAW double counting   =       799.43158084     -524.17639913
  entropy T*S    EENTRO =        -0.00953857
  eigenvalues    EBANDS =        -0.71381544
  atomic energy  EATOM  =       702.42789710
  Solvation  Ediel_sol  =         0.00000000
  ---------------------------------------------------
  free energy    TOTEN  =       145.98354565 eV

  energy without entropy =      145.99308422  energy(sigma->0) =      145.98831493


--------------------------------------------------------------------------------------------------------




--------------------------------------- Iteration      1(   2)  ---------------------------------------


     EDDAV:  cpu time    2.1720: real time    2.1767
       DOS:  cpu time    0.0030: real time    0.0030
    --------------------------------------------
      LOOP:  cpu time    2.1750: real time    2.1797

 eigenvalue-minimisations  :  2940
 total energy-change (2. order) :-0.1407319E+03  (-0.1364311E+03)
 number of electron      20.0000000 magnetization 
 augmentation part       20.0000000 magnetization 

 Free energy of the ion-electron system (eV)
  ---------------------------------------------------
  alpha Z        PSCENC =         9.50421754
  Ewald energy   TEWEN  =      1152.71885526
  -Hartree energ DENC   =     -1754.61169093
  -exchange      EXHF   =         0.00000000
  -V(xc)+E(xc)   XCENC  =      -238.58756104
  PAW double counting   =       799.43158084     -524.17639913
  entropy T*S    EENTRO =        -0.00034202
  eigenvalues    EBANDS =      -141.45491011
  atomic energy  EATOM  =       702.42789710
  Solvation  Ediel_sol  =         0.00000000
  ---------------------------------------------------
  free energy    TOTEN  =         5.25164752 eV

  energy without entropy =        5.25198954  energy(sigma->0) =        5.25181853


--------------------------------------------------------------------------------------------------------




--------------------------------------- Iteration      1(   3)  ---------------------------------------


     EDDAV:  cpu time    1.7496: real time    1.7534
       DOS:  cpu time    0.0022: real time    0.0021
    --------------------------------------------
      LOOP:  cpu time    1.7517: real time    1.7556

 eigenvalue-minimisations  :  2266
 total energy-change (2. order) :-0.2120708E+02  (-0.2106704E+02)
 number of electron      20.0000000 magnetization 
 augmentation part       20.0000000 magnetization 

 Free energy of the ion-electron system (eV)
  ---------------------------------------------------
  alpha Z        PSCENC =         9.50421754
  Ewald energy   TEWEN  =      1152.71885526
  -Hartree energ DENC   =     -1754.61169093
  -exchange      EXHF   =         0.00000000
  -V(xc)+E(xc)   XCENC  =      -238.58756104
  PAW double counting   =       799.43158084     -524.17639913
  entropy T*S    EENTRO =        -0.00000000
  eigenvalues    EBANDS =      -162.66232803
  atomic energy  EATOM  =       702.42789710
  Solvation  Ediel_sol  =         0.00000000
  ---------------------------------------------------
  free energy    TOTEN  =       -15.95542838 eV

  energy without entropy =      -15.95542838  energy(sigma->0) =      -15.95542838


--------------------------------------------------------------------------------------------------------




--------------------------------------- Iteration      1(   4)  ---------------------------------------


     EDDAV:  cpu time    1.9692: real time    1.9735
       DOS:  cpu time    0.0022: real time    0.0023
    --------------------------------------------
      LOOP:  cpu time    1.9714: real time    1.9758

 eigenvalue-minimisations  :  2586
 total energy-change (2. order) :-0.8218369E+00  (-0.8189952E+00)
 number of electron      20.0000000 magnetization 
 augmentation part       20.0000000 magnetization 

 Free energy of the ion-electron system (eV)
  ---------------------------------------------------
  alpha Z        PSCENC =         9.50421754
  Ewald energy   TEWEN  =      1152.71885526
  -Hartree energ DENC   =     -1754.61169093
  -exchange      EXHF   =         0.00000000
  -V(xc)+E(xc)   XCENC  =      -238.58756104
  PAW double counting   =       799.43158084     -524.17639913
  entropy T*S    EENTRO =        -0.00000000
  eigenvalues    EBANDS =      -163.48416489
  atomic energy  EATOM  =       702.42789710
  Solvation  Ediel_sol  =         0.00000000
  ---------------------------------------------------
  free energy    TOTEN  =       -16.77726524 eV

  energy without entropy =      -16.77726524  energy(sigma->0) =      -16.77726524


--------------------------------------------------------------------------------------------------------




--------------------------------------- Iteration      1(   5)  ---------------------------------------


     EDDAV:  cpu time    1.7793: real time    1.7832
       DOS:  cpu time    0.0022: real time    0.0022
    CHARGE:  cpu time    0.1408: real time    0.1411
    MIXING:  cpu time    0.0089: real time    0.0095
    --------------------------------------------
      LOOP:  cpu time    1.9313: real time    1.9360

 eigenvalue-minimisations  :  2256
 total energy-change (2. order) :-0.1912485E-01  (-0.1910445E-01)
 number of electron      20.0000000 magnetization 
 augmentation part       -4.5229475 magnetization 

 Broyden mixing:
  rms(total) = 0.45149E+00    rms(broyden)= 0.45148E+00
  rms(prec ) = 0.49199E+00
  weight for this iteration     100.00

 Free energy of the ion-electron system (eV)
  ---------------------------------------------------
  alpha Z        PSCENC =         9.50421754
  Ewald energy   TEWEN  =      1152.71885526
  -Hartree energ DENC   =     -1754.61169093
  -exchange      EXHF   =         0.00000000
  -V(xc)+E(xc)   XCENC  =      -238.58756104
  PAW double counting   =       799.43158084     -524.17639913
  entropy T*S    EENTRO =        -0.00000000
  eigenvalues    EBANDS =      -163.50328974
  atomic energy  EATOM  =       702.42789710
  Solvation  Ediel_sol  =         0.00000000
  ---------------------------------------------------
  free energy    TOTEN  =       -16.79639009 eV

  energy without entropy =      -16.79639009  energy(sigma->0) =      -16.79639009


--------------------------------------------------------------------------------------------------------




--------------------------------------- Iteration      1(   6)  ---------------------------------------


    POTLOK:  cpu time    0.0473: real time    0.0475
    SETDIJ:  cpu time    0.0041: real time    0.0041
     EDDAV:  cpu time    1.7709: real time    1.7747
       DOS:  cpu time    0.0023: real time    0.0022
    CHARGE:  cpu time    0.1461: real time    0.1464
    MIXING:  cpu time    0.0017: real time    0.0017
    --------------------------------------------
      LOOP:  cpu time    1.9724: real time    1.9767

 eigenvalue-minimisations  :  2262
 total energy-change (2. order) : 0.4905406E+00  (-0.1234740E+00)
 number of electron      20.0000000 magnetization 
 augmentation part       -4.4903571 magnetization 

 Broyden mixing:
  rms(total) = 0.27670E+00    rms(broyden)= 0.27670E+00
  rms(prec ) = 0.28590E+00
  weight for this iteration     100.00

 eigenvalues of (default mixing * dielectric matrix)
  average eigenvalue GAMMA=   1.8064
  1.8064

 Free energy of the ion-electron system (eV)
  ---------------------------------------------------
  alpha Z        PSCENC =         9.50421754
  Ewald energy   TEWEN  =      1152.71885526
  -Hartree energ DENC   =     -1762.48891196
  -exchange      EXHF   =         0.00000000
  -V(xc)+E(xc)   XCENC  =      -238.10475196
  PAW double counting   =       924.35764081     -649.28431949
  entropy T*S    EENTRO =        -0.00000000
  eigenvalues    EBANDS =      -155.43647676
  atomic energy  EATOM  =       702.42789710
  Solvation  Ediel_sol  =         0.00000000
  ---------------------------------------------------
  free energy    TOTEN  =       -16.30584945 eV

  energy without entropy =      -16.30584945  energy(sigma->0) =      -16.30584945


--------------------------------------------------------------------------------------------------------




--------------------------------------- Iteration      1(   7)  ---------------------------------------


    POTLOK:  cpu time    0.0467: real time    0.0469
    SETDIJ:  cpu time    0.0041: real time    0.0041
     EDDAV:  cpu time    1.8951: real time    1.8991
       DOS:  cpu time    0.0023: real time    0.0023
    CHARGE:  cpu time    0.1488: real time    0.1491
    MIXING:  cpu time    0.0017: real time    0.0019
    --------------------------------------------
      LOOP:  cpu time    2.0986: real time    2.1034

 eigenvalue-minimisations  :  2426
 total energy-change (2. order) : 0.2768492E-01  (-0.3181926E-01)
 number of electron      20.0000000 magnetization 
 augmentation part       -4.4820963 magnetization 

 Broyden mixing:
  rms(total) = 0.10455E+00    rms(broyden)= 0.10455E+00
  rms(prec ) = 0.10999E+00
  weight for this iteration     100.00

 eigenvalues of (default mixing * dielectric matrix)
  average eigenvalue GAMMA=   1.7326
  1.3771  2.0880

 Free energy of the ion-electron system (eV)
  ---------------------------------------------------
  alpha Z        PSCENC =         9.50421754
  Ewald energy   TEWEN  =      1152.71885526
  -Hartree energ DENC   =     -1767.54591754
  -exchange      EXHF   =         0.00000000
  -V(xc)+E(xc)   XCENC  =      -237.77884736
  PAW double counting   =      1065.81018689     -790.87594860
  entropy T*S    EENTRO =        -0.00000000
  eigenvalues    EBANDS =      -150.53860784
  atomic energy  EATOM  =       702.42789710
  Solvation  Ediel_sol  =         0.00000000
  ---------------------------------------------------
  free energy    TOTEN  =       -16.27816454 eV

  energy without entropy =      -16.27816454  energy(sigma->0) =      -16.27816454


--------------------------------------------------------------------------------------------------------




--------------------------------------- Iteration      1(   8)  ---------------------------------------


    POTLOK:  cpu time    0.0473: real time    0.0475
    SETDIJ:  cpu time    0.0042: real time    0.0042
     EDDAV:  cpu time    1.9309: real time    1.9349
       DOS:  cpu time    0.0023: real time    0.0023
    CHARGE:  cpu time    0.1443: real time    0.1446
    MIXING:  cpu time    0.0016: real time    0.0016
    --------------------------------------------
      LOOP:  cpu time    2.1306: real time    2.1350

 eigenvalue-minimisations  :  2522
 total energy-change (2. order) : 0.9671699E-02  (-0.3988554E-02)
 number of electron      20.0000000 magnetization 
 augmentation part       -4.4863811 magnetization 

 Broyden mixing:
  rms(total) = 0.20484E-01    rms(broyden)= 0.20484E-01
  rms(prec ) = 0.27962E-01
  weight for this iteration     100.00

 eigenvalues of (default mixing * dielectric matrix)
  average eigenvalue GAMMA=   1.7029
  2.5222  1.2933  1.2933

 Free energy of the ion-electron system (eV)
  ---------------------------------------------------
  alpha Z        PSCENC =         9.50421754
  Ewald energy   TEWEN  =      1152.71885526
  -Hartree energ DENC   =     -1769.22098449
  -exchange      EXHF   =         0.00000000
  -V(xc)+E(xc)   XCENC  =      -237.70173918
  PAW double counting   =      1131.22670900     -856.33057668
  entropy T*S    EENTRO =        -0.00000000
  eigenvalues    EBANDS =      -148.89287140
  atomic energy  EATOM  =       702.42789710
  Solvation  Ediel_sol  =         0.00000000
  ---------------------------------------------------
  free energy    TOTEN  =       -16.26849284 eV

  energy without entropy =      -16.26849284  energy(sigma->0) =      -16.26849284


--------------------------------------------------------------------------------------------------------




--------------------------------------- Iteration      1(   9)  ---------------------------------------


    POTLOK:  cpu time    0.0472: real time    0.0473
    SETDIJ:  cpu time    0.0042: real time    0.0042
     EDDAV:  cpu time    1.8752: real time    1.8792
       DOS:  cpu time    0.0023: real time    0.0023
    CHARGE:  cpu time    0.1440: real time    0.1442
    MIXING:  cpu time    0.0017: real time    0.0017
    --------------------------------------------
      LOOP:  cpu time    2.0745: real time    2.0788

 eigenvalue-minimisations  :  2446
 total energy-change (2. order) : 0.3744519E-02  (-0.6961727E-03)
 number of electron      20.0000000 magnetization 
 augmentation part       -4.4844292 magnetization 

 Broyden mixing:
  rms(total) = 0.10006E-01    rms(broyden)= 0.10006E-01
  rms(prec ) = 0.15660E-01
  weight for this iteration     100.00

 eigenvalues of (default mixing * dielectric matrix)
  average eigenvalue GAMMA=   1.7126
  2.2347  2.2347  1.1906  1.1906

 Free energy of the ion-electron system (eV)
  ---------------------------------------------------
  alpha Z        PSCENC =         9.50421754
  Ewald energy   TEWEN  =      1152.71885526
  -Hartree energ DENC   =     -1771.19353289
  -exchange      EXHF   =         0.00000000
  -V(xc)+E(xc)   XCENC  =      -237.62832359
  PAW double counting   =      1149.18116860     -874.29707894
  entropy T*S    EENTRO =        -0.00000000
  eigenvalues    EBANDS =      -146.97795141
  atomic energy  EATOM  =       702.42789710
  Solvation  Ediel_sol  =         0.00000000
  ---------------------------------------------------
  free energy    TOTEN  =       -16.26474832 eV

  energy without entropy =      -16.26474832  energy(sigma->0) =      -16.26474832


--------------------------------------------------------------------------------------------------------




--------------------------------------- Iteration      1(  10)  ---------------------------------------


    POTLOK:  cpu time    0.0478: real time    0.0479
    SETDIJ:  cpu time    0.0041: real time    0.0042
     EDDAV:  cpu time    1.9367: real time    1.9409
       DOS:  cpu time    0.0024: real time    0.0024
    CHARGE:  cpu time    0.1435: real time    0.1437
    MIXING:  cpu time    0.0017: real time    0.0017
    --------------------------------------------
      LOOP:  cpu time    2.1362: real time    2.1408

 eigenvalue-minimisations  :  2482
 total energy-change (2. order) : 0.1326712E-02  (-0.1304491E-03)
 number of electron      20.0000000 magnetization 
 augmentation part       -4.4831905 magnetization 

 Broyden mixing:
  rms(total) = 0.50556E-02    rms(broyden)= 0.50556E-02
  rms(prec ) = 0.93285E-02
  weight for this iteration     100.00

 eigenvalues of (default mixing * dielectric matrix)
  average eigenvalue GAMMA=   1.8637
  3.3473  2.5907  1.2347  1.2347  0.9108

 Free energy of the ion-electron system (eV)
  ---------------------------------------------------
  alpha Z        PSCENC =         9.50421754
  Ewald energy   TEWEN  =      1152.71885526
  -Hartree energ DENC   =     -1772.48749754
  -exchange      EXHF   =         0.00000000
  -V(xc)+E(xc)   XCENC  =      -237.61676903
  PAW double counting   =      1138.90390217     -864.00965253
  entropy T*S    EENTRO =        -0.00000000
  eigenvalues    EBANDS =      -145.70437459
  atomic energy  EATOM  =       702.42789710
  Solvation  Ediel_sol  =         0.00000000
  ---------------------------------------------------
  free energy    TOTEN  =       -16.26342161 eV

  energy without entropy =      -16.26342161  energy(sigma->0) =      -16.26342161


--------------------------------------------------------------------------------------------------------




--------------------------------------- Iteration      1(  11)  ---------------------------------------


    POTLOK:  cpu time    0.0471: real time    0.0473
    SETDIJ:  cpu time    0.0041: real time    0.0041
     EDDAV:  cpu time    1.8812: real time    1.8852
       DOS:  cpu time    0.0023: real time    0.0023
    CHARGE:  cpu time    0.1407: real time    0.1409
    MIXING:  cpu time    0.0020: real time    0.0020
    --------------------------------------------
      LOOP:  cpu time    2.0773: real time    2.0818

 eigenvalue-minimisations  :  2428
 total energy-change (2. order) : 0.7258067E-03  (-0.1246609E-03)
 number of electron      20.0000000 magnetization 
 augmentation part       -4.4818050 magnetization 

 Broyden mixing:
  rms(total) = 0.32659E-02    rms(broyden)= 0.32659E-02
  rms(prec ) = 0.50035E-02
  weight for this iteration     100.00

 eigenvalues of (default mixing * dielectric matrix)
  average eigenvalue GAMMA=   1.8429
  3.3994  2.3207  2.0687  1.1897  1.1897  0.8890

 Free energy of the ion-electron system (eV)
  ---------------------------------------------------
  alpha Z        PSCENC =         9.50421754
  Ewald energy   TEWEN  =      1152.71885526
  -Hartree energ DENC   =     -1774.08212403
  -exchange      EXHF   =         0.00000000
  -V(xc)+E(xc)   XCENC  =      -237.58508320
  PAW double counting   =      1140.42470187     -865.52956597
  entropy T*S    EENTRO =        -0.00000000
  eigenvalues    EBANDS =      -144.14159438
  atomic energy  EATOM  =       702.42789710
  Solvation  Ediel_sol  =         0.00000000
  ---------------------------------------------------
  free energy    TOTEN  =       -16.26269580 eV

  energy without entropy =      -16.26269580  energy(sigma->0) =      -16.26269580


--------------------------------------------------------------------------------------------------------




--------------------------------------- Iteration      1(  12)  ---------------------------------------


    POTLOK:  cpu time    0.0493: real time    0.0496
    SETDIJ:  cpu time    0.0041: real time    0.0041
     EDDAV:  cpu time    1.6432: real time    1.6466
       DOS:  cpu time    0.0023: real time    0.0023
    CHARGE:  cpu time    0.1471: real time    0.1473
    MIXING:  cpu time    0.0021: real time    0.0021
    --------------------------------------------
      LOOP:  cpu time    1.8481: real time    1.8520

 eigenvalue-minimisations  :  2008
 total energy-change (2. order) :-0.8293736E-03  (-0.3065033E-04)
 number of electron      20.0000000 magnetization 
 augmentation part       -4.4811398 magnetization 

 Broyden mixing:
  rms(total) = 0.17781E-02    rms(broyden)= 0.17781E-02
  rms(prec ) = 0.27731E-02
  weight for this iteration     100.00

 eigenvalues of (default mixing * dielectric matrix)
  average eigenvalue GAMMA=   2.0631
  4.5735  3.0866  2.5061  1.2031  1.2031  1.0265  0.8426

 Free energy of the ion-electron system (eV)
  ---------------------------------------------------
  alpha Z        PSCENC =         9.50421754
  Ewald energy   TEWEN  =      1152.71885526
  -Hartree energ DENC   =     -1774.73108510
  -exchange      EXHF   =         0.00000000
  -V(xc)+E(xc)   XCENC  =      -237.57558402
  PAW double counting   =      1141.99127404     -867.09864251
  entropy T*S    EENTRO =        -0.00000000
  eigenvalues    EBANDS =      -143.50045748
  atomic energy  EATOM  =       702.42789710
  Solvation  Ediel_sol  =         0.00000000
  ---------------------------------------------------
  free energy    TOTEN  =       -16.26352517 eV

  energy without entropy =      -16.26352517  energy(sigma->0) =      -16.26352517


--------------------------------------------------------------------------------------------------------




--------------------------------------- Iteration      1(  13)  ---------------------------------------


    POTLOK:  cpu time    0.0510: real time    0.0512
    SETDIJ:  cpu time    0.0041: real time    0.0042
     EDDAV:  cpu time    1.6924: real time    1.6958
       DOS:  cpu time    0.0023: real time    0.0023
    CHARGE:  cpu time    0.1492: real time    0.1495
    MIXING:  cpu time    0.0021: real time    0.0021
    --------------------------------------------
      LOOP:  cpu time    1.9011: real time    1.9050

 eigenvalue-minimisations  :  2074
 total energy-change (2. order) :-0.4276009E-03  (-0.7888269E-05)
 number of electron      20.0000000 magnetization 
 augmentation part       -4.4809555 magnetization 

 Broyden mixing:
  rms(total) = 0.11640E-02    rms(broyden)= 0.11640E-02
  rms(prec ) = 0.15386E-02
  weight for this iteration     100.00

 eigenvalues of (default mixing * dielectric matrix)
  average eigenvalue GAMMA=   2.2391
  5.6716  3.2690  2.4534  2.2341  1.1597  1.1597  1.0539  0.9115

 Free energy of the ion-electron system (eV)
  ---------------------------------------------------
  alpha Z        PSCENC =         9.50421754
  Ewald energy   TEWEN  =      1152.71885526
  -Hartree energ DENC   =     -1775.13273584
  -exchange      EXHF   =         0.00000000
  -V(xc)+E(xc)   XCENC  =      -237.57426600
  PAW double counting   =      1141.02731721     -866.13362163
  entropy T*S    EENTRO =        -0.00000000
  eigenvalues    EBANDS =      -143.10161643
  atomic energy  EATOM  =       702.42789710
  Solvation  Ediel_sol  =         0.00000000
  ---------------------------------------------------
  free energy    TOTEN  =       -16.26395278 eV

  energy without entropy =      -16.26395278  energy(sigma->0) =      -16.26395278


--------------------------------------------------------------------------------------------------------




--------------------------------------- Iteration      1(  14)  ---------------------------------------


    POTLOK:  cpu time    0.0496: real time    0.0497
    SETDIJ:  cpu time    0.0042: real time    0.0042
     EDDAV:  cpu time    1.7330: real time    1.7366
       DOS:  cpu time    0.0023: real time    0.0023
    CHARGE:  cpu time    0.1403: real time    0.1405
    MIXING:  cpu time    0.0020: real time    0.0020
    --------------------------------------------
      LOOP:  cpu time    1.9314: real time    1.9353

 eigenvalue-minimisations  :  2188
 total energy-change (2. order) :-0.2660778E-03  (-0.4417525E-05)
 number of electron      20.0000000 magnetization 
 augmentation part       -4.4809310 magnetization 

 Broyden mixing:
  rms(total) = 0.40323E-03    rms(broyden)= 0.40323E-03
  rms(prec ) = 0.62601E-03
  weight for this iteration     100.00

 eigenvalues of (default mixing * dielectric matrix)
  average eigenvalue GAMMA=   2.2438
  6.7455  3.0633  2.5287  2.5287  1.1815  1.1815  1.0419  0.9617  0.9617

 Free energy of the ion-electron system (eV)
  ---------------------------------------------------
  alpha Z        PSCENC =         9.50421754
  Ewald energy   TEWEN  =      1152.71885526
  -Hartree energ DENC   =     -1775.34295497
  -exchange      EXHF   =         0.00000000
  -V(xc)+E(xc)   XCENC  =      -237.57418496
  PAW double counting   =      1141.23892281     -866.34461128
  entropy T*S    EENTRO =        -0.00000000
  eigenvalues    EBANDS =      -142.89236036
  atomic energy  EATOM  =       702.42789710
  Solvation  Ediel_sol  =         0.00000000
  ---------------------------------------------------
  free energy    TOTEN  =       -16.26421885 eV

  energy without entropy =      -16.26421885  energy(sigma->0) =      -16.26421885


--------------------------------------------------------------------------------------------------------




--------------------------------------- Iteration      1(  15)  ---------------------------------------


    POTLOK:  cpu time    0.0506: real time    0.0507
    SETDIJ:  cpu time    0.0042: real time    0.0042
     EDDAV:  cpu time    1.7339: real time    1.7375
       DOS:  cpu time    0.0023: real time    0.0024
    CHARGE:  cpu time    0.1441: real time    0.1443
    MIXING:  cpu time    0.0022: real time    0.0022
    --------------------------------------------
      LOOP:  cpu time    1.9372: real time    1.9412

 eigenvalue-minimisations  :  2182
 total energy-change (2. order) :-0.5710592E-04  (-0.2126295E-06)
 number of electron      20.0000000 magnetization 
 augmentation part       -4.4809493 magnetization 

 Broyden mixing:
  rms(total) = 0.33219E-03    rms(broyden)= 0.33219E-03
  rms(prec ) = 0.50527E-03
  weight for this iteration     100.00

 eigenvalues of (default mixing * dielectric matrix)
  average eigenvalue GAMMA=   2.3615
  6.5544  4.3046  2.7074  2.7074  1.9878  1.1397  1.1397  1.2018  0.9360  0.9360

 Free energy of the ion-electron system (eV)
  ---------------------------------------------------
  alpha Z        PSCENC =         9.50421754
  Ewald energy   TEWEN  =      1152.71885526
  -Hartree energ DENC   =     -1775.35673269
  -exchange      EXHF   =         0.00000000
  -V(xc)+E(xc)   XCENC  =      -237.57450023
  PAW double counting   =      1141.09093233     -866.19653867
  entropy T*S    EENTRO =        -0.00000000
  eigenvalues    EBANDS =      -142.87840662
  atomic energy  EATOM  =       702.42789710
  Solvation  Ediel_sol  =         0.00000000
  ---------------------------------------------------
  free energy    TOTEN  =       -16.26427596 eV

  energy without entropy =      -16.26427596  energy(sigma->0) =      -16.26427596


--------------------------------------------------------------------------------------------------------




--------------------------------------- Iteration      1(  16)  ---------------------------------------


    POTLOK:  cpu time    0.0483: real time    0.0484
    SETDIJ:  cpu time    0.0041: real time    0.0041
     EDDAV:  cpu time    1.6244: real time    1.6278
       DOS:  cpu time    0.0023: real time    0.0023
    CHARGE:  cpu time    0.1409: real time    0.1412
    MIXING:  cpu time    0.0023: real time    0.0023
    --------------------------------------------
      LOOP:  cpu time    1.8224: real time    1.8262

 eigenvalue-minimisations  :  1986
 total energy-change (2. order) :-0.4616149E-04  (-0.8594811E-06)
 number of electron      20.0000000 magnetization 
 augmentation part       -4.4809607 magnetization 

 Broyden mixing:
  rms(total) = 0.12173E-03    rms(broyden)= 0.12173E-03
  rms(prec ) = 0.22284E-03
  weight for this iteration     100.00

 eigenvalues of (default mixing * dielectric matrix)
  average eigenvalue GAMMA=   2.2818
  6.7924  4.5182  2.6463  2.6463  2.2595  1.1527  1.1527  1.1941  0.9395  0.9395
  0.8585

 Free energy of the ion-electron system (eV)
  ---------------------------------------------------
  alpha Z        PSCENC =         9.50421754
  Ewald energy   TEWEN  =      1152.71885526
  -Hartree energ DENC   =     -1775.41034140
  -exchange      EXHF   =         0.00000000
  -V(xc)+E(xc)   XCENC  =      -237.57457895
  PAW double counting   =      1140.94178973     -866.04740775
  entropy T*S    EENTRO =        -0.00000000
  eigenvalues    EBANDS =      -142.82475366
  atomic energy  EATOM  =       702.42789710
  Solvation  Ediel_sol  =         0.00000000
  ---------------------------------------------------
  free energy    TOTEN  =       -16.26432212 eV

  energy without entropy =      -16.26432212  energy(sigma->0) =      -16.26432212


--------------------------------------------------------------------------------------------------------




--------------------------------------- Iteration      1(  17)  ---------------------------------------


    POTLOK:  cpu time    0.0473: real time    0.0475
    SETDIJ:  cpu time    0.0042: real time    0.0042
     EDDAV:  cpu time    1.5560: real time    1.5593
       DOS:  cpu time    0.0023: real time    0.0023
    CHARGE:  cpu time    0.1428: real time    0.1430
    MIXING:  cpu time    0.0022: real time    0.0022
    --------------------------------------------
      LOOP:  cpu time    1.7548: real time    1.7585

 eigenvalue-minimisations  :  1886
 total energy-change (2. order) :-0.2362510E-04  (-0.1187213E-06)
 number of electron      20.0000000 magnetization 
 augmentation part       -4.4809407 magnetization 

 Broyden mixing:
  rms(total) = 0.12823E-03    rms(broyden)= 0.12823E-03
  rms(prec ) = 0.18687E-03
  weight for this iteration     100.00

 eigenvalues of (default mixing * dielectric matrix)
  average eigenvalue GAMMA=   2.3991
  6.9614  5.2289  2.9509  2.9509  2.3319  2.0248  1.1477  1.1477  0.9205  0.9717
  1.0764  1.0764

 Free energy of the ion-electron system (eV)
  ---------------------------------------------------
  alpha Z        PSCENC =         9.50421754
  Ewald energy   TEWEN  =      1152.71885526
  -Hartree energ DENC   =     -1775.42612281
  -exchange      EXHF   =         0.00000000
  -V(xc)+E(xc)   XCENC  =      -237.57443063
  PAW double counting   =      1141.01023374     -866.11596125
  entropy T*S    EENTRO =        -0.00000000
  eigenvalues    EBANDS =      -142.80903470
  atomic energy  EATOM  =       702.42789710
  Solvation  Ediel_sol  =         0.00000000
  ---------------------------------------------------
  free energy    TOTEN  =       -16.26434575 eV

  energy without entropy =      -16.26434575  energy(sigma->0) =      -16.26434575


--------------------------------------------------------------------------------------------------------




--------------------------------------- Iteration      1(  18)  ---------------------------------------


    POTLOK:  cpu time    0.0499: real time    0.0501
    SETDIJ:  cpu time    0.0042: real time    0.0042
     EDDAV:  cpu time    1.6467: real time    1.6503
       DOS:  cpu time    0.0023: real time    0.0022
    CHARGE:  cpu time    0.1482: real time    0.1485
    MIXING:  cpu time    0.0023: real time    0.0023
    --------------------------------------------
      LOOP:  cpu time    1.8537: real time    1.8577

 eigenvalue-minimisations  :  2062
 total energy-change (2. order) :-0.3806153E-04  (-0.3918535E-06)
 number of electron      20.0000000 magnetization 
 augmentation part       -4.4809314 magnetization 

 Broyden mixing:
  rms(total) = 0.60629E-04    rms(broyden)= 0.60629E-04
  rms(prec ) = 0.76066E-04
  weight for this iteration     100.00

 eigenvalues of (default mixing * dielectric matrix)
  average eigenvalue GAMMA=   2.3442
  7.0877  5.4401  2.9859  2.8315  2.5147  2.0715  1.1576  1.1576  1.2715  0.8997
  0.9853  1.0360  1.0360

 Free energy of the ion-electron system (eV)
  ---------------------------------------------------
  alpha Z        PSCENC =         9.50421754
  Ewald energy   TEWEN  =      1152.71885526
  -Hartree energ DENC   =     -1775.44864077
  -exchange      EXHF   =         0.00000000
  -V(xc)+E(xc)   XCENC  =      -237.57442754
  PAW double counting   =      1140.99945057     -866.10514452
  entropy T*S    EENTRO =        -0.00000000
  eigenvalues    EBANDS =      -142.78659145
  atomic energy  EATOM  =       702.42789710
  Solvation  Ediel_sol  =         0.00000000
  ---------------------------------------------------
  free energy    TOTEN  =       -16.26438381 eV

  energy without entropy =      -16.26438381  energy(sigma->0) =      -16.26438381


--------------------------------------------------------------------------------------------------------




--------------------------------------- Iteration      1(  19)  ---------------------------------------


    POTLOK:  cpu time    0.0516: real time    0.0518
    SETDIJ:  cpu time    0.0042: real time    0.0042
     EDDAV:  cpu time    1.5360: real time    1.5393
       DOS:  cpu time    0.0023: real time    0.0023
    CHARGE:  cpu time    0.1407: real time    0.1409
    MIXING:  cpu time    0.0023: real time    0.0023
    --------------------------------------------
      LOOP:  cpu time    1.7370: real time    1.7408

 eigenvalue-minimisations  :  1868
 total energy-change (2. order) :-0.6013026E-05  (-0.1674991E-07)
 number of electron      20.0000000 magnetization 
 augmentation part       -4.4809391 magnetization 

 Broyden mixing:
  rms(total) = 0.35958E-04    rms(broyden)= 0.35958E-04
  rms(prec ) = 0.44370E-04
  weight for this iteration     100.00

 eigenvalues of (default mixing * dielectric matrix)
  average eigenvalue GAMMA=   2.5811
  7.5157  7.5157  3.8631  3.0500  2.4132  2.4132  1.9854  1.1508  1.1508  1.0806
  1.0806  0.9263  0.9465  1.0433

 Free energy of the ion-electron system (eV)
  ---------------------------------------------------
  alpha Z        PSCENC =         9.50421754
  Ewald energy   TEWEN  =      1152.71885526
  -Hartree energ DENC   =     -1775.44819690
  -exchange      EXHF   =         0.00000000
  -V(xc)+E(xc)   XCENC  =      -237.57446336
  PAW double counting   =      1141.04012731     -866.14583724
  entropy T*S    EENTRO =        -0.00000000
  eigenvalues    EBANDS =      -142.78698955
  atomic energy  EATOM  =       702.42789710
  Solvation  Ediel_sol  =         0.00000000
  ---------------------------------------------------
  free energy    TOTEN  =       -16.26438982 eV

  energy without entropy =      -16.26438982  energy(sigma->0) =      -16.26438982


--------------------------------------------------------------------------------------------------------




--------------------------------------- Iteration      1(  20)  ---------------------------------------


    POTLOK:  cpu time    0.0495: real time    0.0497
    SETDIJ:  cpu time    0.0041: real time    0.0041
     EDDAV:  cpu time    1.4035: real time    1.4066
       DOS:  cpu time    0.0023: real time    0.0023
    CHARGE:  cpu time    0.1445: real time    0.1448
    MIXING:  cpu time    0.0025: real time    0.0024
    --------------------------------------------
      LOOP:  cpu time    1.6064: real time    1.6100

 eigenvalue-minimisations  :  1532
 total energy-change (2. order) :-0.6295671E-05  (-0.3501257E-07)
 number of electron      20.0000000 magnetization 
 augmentation part       -4.4809406 magnetization 

 Broyden mixing:
  rms(total) = 0.20965E-04    rms(broyden)= 0.20965E-04
  rms(prec ) = 0.23349E-04
  weight for this iteration     100.00

 eigenvalues of (default mixing * dielectric matrix)
  average eigenvalue GAMMA=   2.5649
  7.7751  7.7751  4.0164  3.0040  2.3176  2.2757  2.2757  1.6583  1.1478  1.1478
  0.9122  1.0144  1.0144  1.0697  1.0697

 Free energy of the ion-electron system (eV)
  ---------------------------------------------------
  alpha Z        PSCENC =         9.50421754
  Ewald energy   TEWEN  =      1152.71885526
  -Hartree energ DENC   =     -1775.45229733
  -exchange      EXHF   =         0.00000000
  -V(xc)+E(xc)   XCENC  =      -237.57446545
  PAW double counting   =      1141.01919826     -866.12487992
  entropy T*S    EENTRO =        -0.00000000
  eigenvalues    EBANDS =      -142.78292159
  atomic energy  EATOM  =       702.42789710
  Solvation  Ediel_sol  =         0.00000000
  ---------------------------------------------------
  free energy    TOTEN  =       -16.26439612 eV

  energy without entropy =      -16.26439612  energy(sigma->0) =      -16.26439612


--------------------------------------------------------------------------------------------------------




--------------------------------------- Iteration      1(  21)  ---------------------------------------


    POTLOK:  cpu time    0.0473: real time    0.0481
    SETDIJ:  cpu time    0.0063: real time    0.0063
     EDDAV:  cpu time    1.4980: real time    1.5012
       DOS:  cpu time    0.0023: real time    0.0022
    --------------------------------------------
      LOOP:  cpu time    1.5538: real time    1.5578

 eigenvalue-minimisations  :  1802
 total energy-change (2. order) :-0.7544836E-06  (-0.3595352E-08)
 number of electron      20.0000000 magnetization 
 augmentation part       -4.4809406 magnetization 

 Free energy of the ion-electron system (eV)
  ---------------------------------------------------
  alpha Z        PSCENC =         9.50421754
  Ewald energy   TEWEN  =      1152.71885526
  -Hartree energ DENC   =     -1775.45381333
  -exchange      EXHF   =         0.00000000
  -V(xc)+E(xc)   XCENC  =      -237.57444189
  PAW double counting   =      1141.01525597     -866.12093830
  entropy T*S    EENTRO =        -0.00000000
  eigenvalues    EBANDS =      -142.78142923
  atomic energy  EATOM  =       702.42789710
  Solvation  Ediel_sol  =         0.00000000
  ---------------------------------------------------
  free energy    TOTEN  =       -16.26439687 eV

  energy without entropy =      -16.26439687  energy(sigma->0) =      -16.26439687


--------------------------------------------------------------------------------------------------------




 average (electrostatic) potential at core
  the test charge radii are     1.4072  1.0808
  (the norm of the test charge is              1.0000)
       1 -51.2573       2 -51.2573       3 -59.9439       4 -59.9439
 
 
 
 E-fermi :  -1.4982     XC(G=0):  -3.3392     alpha+bet : -2.6745


 k-point     1 :       0.0000    0.0000    0.0000
  band No.  band energies     occupation 
      1     -15.3158      2.00000
      2     -14.3227      2.00000
      3      -8.2570      2.00000
      4      -7.2798      2.00000
      5      -5.4185      2.00000
      6      -5.0718      2.00000
      7      -5.0304      2.00000
      8      -3.8444      2.00000
      9      -3.8377      2.00000
     10      -2.6130      2.00000
     11      -0.4694      0.00000
     12       1.3489      0.00000
     13       1.8043      0.00000
     14       1.9806      0.00000

 k-point     2 :       0.0667    0.0000    0.0000
  band No.  band energies     occupation 
      1     -15.2976      2.00000
      2     -14.3205      2.00000
      3      -8.3265      2.00000
      4      -7.3608      2.00000
      5      -5.4211      2.00000
      6      -5.0015      2.00000
      7      -4.9998      2.00000
      8      -3.8235      2.00000
      9      -3.7272      2.00000
     10      -2.6308      2.00000
     11      -0.4581      0.00000
     12       1.4000      0.00000
     13       1.6779      0.00000
     14       1.9152      0.00000

 k-point     3 :       0.1333    0.0000    0.0000
  band No.  band energies     occupation 
      1     -15.2440      2.00000
      2     -14.3157      2.00000
[...]

 k-point    45 :       0.2667    0.3333    0.0000
  band No.  band energies     occupation 
      1     -14.6794      2.00000
      2     -14.2788      2.00000
      3      -8.8469      2.00000
      4      -8.4885      2.00000
      5      -6.1731      2.00000
      6      -4.9558      2.00000
      7      -4.8336      2.00000
      8      -3.8662      2.00000
      9      -3.8055      2.00000
     10      -2.7146      2.00000
     11      -0.2227      0.00000
     12       0.7276      0.00000
     13       1.0614      0.00000
     14       1.5373      0.00000

 k-point    46 :       0.3333    0.3333    0.0000
  band No.  band energies     occupation 
      1     -14.5864      2.00000
      2     -14.2801      2.00000
      3      -8.7341      2.00000
      4      -8.4820      2.00000
      5      -6.3752      2.00000
      6      -5.1775      2.00000
      7      -5.0106      2.00000
      8      -4.0608      2.00000
      9      -3.9977      2.00000
     10      -3.0742      2.00000
     11       0.1756      0.00000
     12       1.1396      0.00000
     13       1.4782      0.00000
     14       1.7638      0.00000

 k-point    47 :       0.4000    0.3333    0.0000
  band No.  band energies     occupation 
      1     -14.4930      2.00000
      2     -14.3002      2.00000
      3      -8.6425      2.00000
      4      -8.4978      2.00000
      5      -6.4017      2.00000
      6      -5.5786      2.00000
      7      -5.0024      2.00000
      8      -4.3353      2.00000
      9      -3.9557      2.00000
     10      -3.3752      2.00000
     11       0.5332      0.00000
     12       1.3355      0.00000
     13       1.6018      0.00000
     14       2.3088      0.00000

 k-point    48 :       0.4667    0.3333    0.0000
  band No.  band energies     occupation 
      1     -14.4092      2.00000
      2     -14.3432      2.00000
      3      -8.5775      2.00000
      4      -8.5310      2.00000
      5      -6.2540      2.00000
      6      -5.9631      2.00000
      7      -4.8667      2.00000
      8      -4.6277      2.00000
      9      -3.8087      2.00000
     10      -3.6130      2.00000
     11       0.8456      0.00000
     12       1.1166      0.00000
     13       2.0172      0.00000
     14       2.3095      0.00000

 k-point    49 :       0.0000    0.4000    0.0000
  band No.  band energies     occupation 
      1     -14.7331      2.00000
      2     -14.3738      2.00000
      3      -9.2323      2.00000
      4      -8.8735      2.00000
      5      -4.7835      2.00000
      6      -4.2369      2.00000
      7      -4.0548      2.00000
      8      -3.5556      2.00000
      9      -2.8351      2.00000
     10      -2.0865      2.00000
     11      -1.0116      0.00000
     12      -0.0641      0.00000
     13       0.0444      0.00000
     14       0.3374      0.00000

 k-point    50 :       0.0667    0.4000    0.0000
  band No.  band energies     occupation 
      1     -14.7208      2.00000
      2     -14.3679      2.00000
      3      -9.2053      2.00000
      4      -8.8546      2.00000
      5      -4.7779      2.00000
      6      -4.5896      2.00000
      7      -3.9465      2.00000
      8      -3.7433      2.00000
      9      -2.6533      2.00000
     10      -2.3699      2.00000
     11      -0.7638      0.00000
     12      -0.3850      0.00000
     13       0.2282      0.00000
     14       0.3678      0.00000

 k-point    51 :       0.1333    0.4000    0.0000
  band No.  band energies     occupation 
      1     -14.6852      2.00000
      2     -14.3518      2.00000
      3      -9.1259      2.00000
      4      -8.7998      2.00000
      5      -5.1221      2.00000
      6      -4.7732      2.00000
      7      -4.1505      2.00000
      8      -3.9206      2.00000
      9      -2.9405      2.00000
     10      -2.4884      2.00000
     11      -0.6297      0.00000
     12      -0.1696      0.00000
     13       0.4859      0.00000
     14       0.7861      0.00000

 k-point    52 :       0.2000    0.4000    0.0000
  band No.  band energies     occupation 
      1     -14.6298      2.00000
      2     -14.3293      2.00000
      3      -8.9989      2.00000
      4      -8.7157      2.00000
      5      -5.6379      2.00000
      6      -4.8343      2.00000
      7      -4.5625      2.00000
      8      -3.9646      2.00000
      9      -3.5027      2.00000
     10      -2.7171      2.00000
     11      -0.3506      0.00000
     12       0.5583      0.00000
     13       0.7057      0.00000
     14       1.2187      0.00000

 k-point    53 :       0.2667    0.4000    0.0000
  band No.  band energies     occupation 
      1     -14.5605      2.00000
      2     -14.3067      2.00000
      3      -8.8351      2.00000
      4      -8.6134      2.00000
      5      -6.0737      2.00000
      6      -5.1201      2.00000
      7      -4.8321      2.00000
      8      -4.0982      2.00000
      9      -3.8684      2.00000
     10      -3.0924      2.00000
     11       0.1218      0.00000
     12       1.0703      0.00000
     13       1.1651      0.00000
     14       1.5780      0.00000

 k-point    54 :       0.3333    0.4000    0.0000
  band No.  band energies     occupation 
      1     -14.4853      2.00000
      2     -14.2916      2.00000
      3      -8.6553      2.00000
      4      -8.5091      2.00000
      5      -6.3888      2.00000
      6      -5.5149      2.00000
      7      -5.0710      2.00000
      8      -4.3552      2.00000
      9      -3.9625      2.00000
     10      -3.3776      2.00000
     11       0.5222      0.00000
     12       1.3296      0.00000
     13       1.5776      0.00000
     14       2.2335      0.00000

 k-point    55 :       0.4000    0.4000    0.0000
  band No.  band energies     occupation 
      1     -14.4132      2.00000
      2     -14.2914      2.00000
      3      -8.4948      2.00000
      4      -8.4229      2.00000
      5      -6.5441      2.00000
      6      -5.9278      2.00000
      7      -5.1982      2.00000
      8      -4.6814      2.00000
      9      -3.9100      2.00000
     10      -3.5549      2.00000
     11       0.8312      0.00000
     12       1.3314      0.00000
     13       2.0924      0.00000
     14       2.7200      0.00000

 k-point    56 :       0.4667    0.4000    0.0000
  band No.  band energies     occupation 
      1     -14.3529      2.00000
      2     -14.3113      2.00000
      3      -8.3959      2.00000
      4      -8.3770      2.00000
      5      -6.5073      2.00000
      6      -6.2842      2.00000
      7      -5.1597      2.00000
      8      -4.9733      2.00000
      9      -3.8069      2.00000
     10      -3.6876      2.00000
     11       1.0730      0.00000
     12       1.2430      0.00000
     13       2.4725      0.00000
     14       2.6986      0.00000

 k-point    57 :       0.0000    0.4667    0.0000
  band No.  band energies     occupation 
      1     -14.5890      2.00000
      2     -14.4654      2.00000
      3      -9.2170      2.00000
      4      -9.0937      2.00000
      5      -4.5393      2.00000
      6      -4.3208      2.00000
      7      -3.8585      2.00000
      8      -3.6643      2.00000
      9      -2.5646      2.00000
     10      -2.2242      2.00000
     11      -0.9019      0.00000
     12      -0.4648      0.00000
     13      -0.0731      0.00000
     14       0.1251      0.00000

 k-point    58 :       0.0667    0.4667    0.0000
  band No.  band energies     occupation 
      1     -14.5789      2.00000
      2     -14.4575      2.00000
      3      -9.1893      2.00000
      4      -9.0687      2.00000
      5      -4.5531      2.00000
      6      -4.4331      2.00000
      7      -4.0089      2.00000
      8      -3.8734      2.00000
      9      -2.4817      2.00000
     10      -2.3814      2.00000
     11      -0.8064      0.00000
     12      -0.6967      0.00000
     13       0.2856      0.00000
     14       0.5891      0.00000

 k-point    59 :       0.1333    0.4667    0.0000
  band No.  band energies     occupation 
      1     -14.5498      2.00000
      2     -14.4352      2.00000
      3      -9.1072      2.00000
      4      -8.9952      2.00000
      5      -4.8442      2.00000
      6      -4.6618      2.00000
      7      -4.2444      2.00000
      8      -4.1253      2.00000
      9      -2.8488      2.00000
     10      -2.6418      2.00000
     11      -0.5545      0.00000
     12      -0.3206      0.00000
     13       0.7856      0.00000
     14       0.8845      0.00000

 k-point    60 :       0.2000    0.4667    0.0000
  band No.  band energies     occupation 
      1     -14.5054      2.00000
      2     -14.4022      2.00000
      3      -8.9745      2.00000
      4      -8.8775      2.00000
      5      -5.3571      2.00000
      6      -5.0339      2.00000
      7      -4.4362      2.00000
      8      -4.2019      2.00000
      9      -3.3626      2.00000
     10      -3.0647      2.00000
     11      -0.0293      0.00000
     12       0.3302      0.00000
     13       1.0093      0.00000
     14       1.2345      0.00000

 k-point    61 :       0.2667    0.4667    0.0000
  band No.  band energies     occupation 
      1     -14.4518      2.00000
      2     -14.3647      2.00000
      3      -8.7996      2.00000
      4      -8.7244      2.00000
      5      -5.8318      2.00000
      6      -5.4909      2.00000
      7      -4.6333      2.00000
      8      -4.3709      2.00000
      9      -3.7030      2.00000
     10      -3.4313      2.00000
     11       0.4843      0.00000
     12       0.8425      0.00000
     13       1.4122      0.00000
     14       1.6581      0.00000

 k-point    62 :       0.3333    0.4667    0.0000
  band No.  band energies     occupation 
      1     -14.3966      2.00000
      2     -14.3303      2.00000
      3      -8.5991      2.00000
      4      -8.5517      2.00000
      5      -6.2200      2.00000
      6      -5.9081      2.00000
      7      -4.9330      2.00000
      8      -4.6734      2.00000
      9      -3.8109      2.00000
     10      -3.6135      2.00000
     11       0.8314      0.00000
     12       1.1048      0.00000
     13       1.9689      0.00000
     14       2.2397      0.00000

 k-point    63 :       0.4000    0.4667    0.0000
  band No.  band energies     occupation 
      1     -14.3483      2.00000
      2     -14.3067      2.00000
      3      -8.4071      2.00000
      4      -8.3877      2.00000
      5      -6.4873      2.00000
      6      -6.2570      2.00000
      7      -5.1896      2.00000
      8      -4.9957      2.00000
      9      -3.8049      2.00000
     10      -3.6852      2.00000
     11       1.0682      0.00000
     12       1.2385      0.00000
     13       2.4606      0.00000
     14       2.6881      0.00000

 k-point    64 :       0.4667    0.4667    0.0000
  band No.  band energies     occupation 
      1     -14.3146      2.00000
      2     -14.3004      2.00000
      3      -8.2820      2.00000
      4      -8.2791      2.00000
      5      -6.5919      2.00000
      6      -6.5045      2.00000
      7      -5.2960      2.00000
      8      -5.2239      2.00000
      9      -3.7674      2.00000
     10      -3.7270      2.00000
     11       1.2219      0.00000
     12       1.2799      0.00000
     13       2.6916      0.00000
     14       2.7983      0.00000


--------------------------------------------------------------------------------------------------------


 soft charge-density along one line, spin component           1
         0         1         2         3         4         5         6         7         8         9
 total charge-density along one line
 
 pseudopotential strength for first ion, spin component:           1
 30.085 -23.436   0.000  -0.089   0.035   0.000  -0.141   0.055
-23.436  28.117  -0.000   0.051  -0.019  -0.000   0.082  -0.031
  0.000  -0.000   6.332  -0.000  -0.000   9.795  -0.000  -0.000
 -0.089   0.051  -0.000   6.329   0.002  -0.000   9.791   0.003
  0.035  -0.019  -0.000   0.002   6.331  -0.000   0.003   9.795
  0.000  -0.000   9.795  -0.000  -0.000  15.225  -0.000  -0.000
 -0.141   0.082  -0.000   9.791   0.003  -0.000  15.218   0.004
  0.055  -0.031  -0.000   0.003   9.795  -0.000   0.004  15.224
 -0.000   0.000   0.007  -0.000   0.000   0.011  -0.000   0.000
 -0.000   0.000  -0.020   0.000  -0.000  -0.031   0.000  -0.000
 -0.003   0.003  -0.000  -0.023  -0.004  -0.000  -0.035  -0.006
  0.003  -0.002  -0.000   0.008  -0.020  -0.000   0.013  -0.031
 -0.000   0.000  -0.000  -0.000   0.008  -0.000  -0.000   0.013
 total augmentation occupancy for first ion, spin component:           1
  2.025  -0.015  -0.000   0.238  -0.087   0.000  -0.042   0.016   0.000   0.000   0.023   0.002  -0.000
 -0.015   0.009   0.000  -0.073   0.027  -0.000   0.018  -0.006   0.000  -0.000  -0.002   0.001  -0.000
  0.000  -0.000   1.508   0.000   0.000  -0.406   0.000   0.000   0.123  -0.043   0.000   0.000  -0.000
  0.238  -0.073   0.000   1.840   0.000   0.000  -0.486  -0.014   0.000   0.000  -0.267  -0.018  -0.000
 -0.087   0.027   0.000   0.000   1.491   0.000  -0.015  -0.395   0.000  -0.000  -0.079  -0.045  -0.006
  0.000  -0.000  -0.406   0.000   0.000   0.118  -0.000   0.000  -0.033   0.012   0.000   0.000  -0.000
 -0.042   0.018   0.000  -0.486  -0.015   0.000   0.140   0.007  -0.000  -0.000   0.074   0.005   0.000
  0.016  -0.006   0.000  -0.014  -0.395   0.000   0.007   0.113   0.000   0.000   0.021   0.012   0.002
 -0.000   0.000   0.123   0.000   0.000  -0.033   0.000   0.000   0.076   0.000  -0.000  -0.000   0.000
  0.000   0.000  -0.043   0.000   0.000   0.012  -0.000   0.000   0.000   0.021  -0.000   0.000  -0.000
  0.023  -0.002   0.000  -0.267  -0.079   0.000   0.074   0.021   0.000   0.000   0.078   0.006   0.002
  0.002   0.001   0.000  -0.018  -0.045   0.000   0.005   0.012   0.000   0.000   0.006   0.022   0.001
 -0.000  -0.000  -0.000  -0.000  -0.006   0.000   0.000   0.002   0.000  -0.000   0.002   0.001   0.017


------------------------ aborting loop because EDIFF is reached ----------------------------------------


    CHARGE:  cpu time    0.1422: real time    0.1425
    FORLOC:  cpu time    0.0021: real time    0.0021
    FORNL :  cpu time    0.2381: real time    0.2385
    STRESS:  cpu time    0.4819: real time    0.4829
    FORCOR:  cpu time    0.0501: real time    0.0502
    FORHAR:  cpu time    0.0132: real time    0.0132
    MIXING:  cpu time    0.0021: real time    0.0021
    OFIELD:  cpu time    0.0001: real time    0.0001

  FORCE on cell =-STRESS in cart. coord.  units (eV):
  Direction    XX          YY          ZZ          XY          YZ          ZX
  --------------------------------------------------------------------------------------
  Alpha Z     9.50422     9.50422     9.50422
  Ewald    1606.13909  1610.59190 -2064.01218     0.00000    -0.00000     0.00000
  Hartree  1727.11066  1728.75769 -1680.41487    -0.00000    -0.00000     0.00000
  E(xc)     -77.66415   -77.67728   -78.88707     0.00000    -0.00000     0.00000
  Local   -3585.98238 -3591.51380  3489.60056    -0.00000    -0.00000     0.00000
  n-local   162.51605   162.70234   167.20941    -0.40116    -0.00000     0.00000
  augment   -31.87673   -31.81964   -32.80217     0.00000     0.00000     0.00000
  Kinetic   190.25118   189.45473   189.79878     5.52677    -0.00000    -0.00000
  Fock        0.00000     0.00000     0.00000     0.00000     0.00000     0.00000
  -------------------------------------------------------------------------------------
  Total      -0.00206     0.00015    -0.00333     0.00000     0.00000     0.00000
  in kB      -0.00878     0.00064    -0.01418     0.00000     0.00000     0.00000
  external pressure =       -0.01 kB  Pullay stress =        0.00 kB


 VOLUME and BASIS-vectors are now :
 -----------------------------------------------------------------------------
  energy-cutoff  :      600.00
  volume of cell :      376.22
      direct lattice vectors                 reciprocal lattice vectors
     4.382356765  0.000000000  0.000000000     0.228187720  0.000000000  0.000000000
     0.000000000  4.292477857  0.000000000     0.000000000  0.232965675  0.000000000
     0.000000000  0.000000000 20.000000000     0.000000000  0.000000000  0.050000000

  length of vectors
     4.382356765  4.292477857 20.000000000     0.228187720  0.232965675  0.050000000


 FORCES acting on ions
    electron-ion (+dipol)            ewald-force                    non-local-force                 convergence-correction
 -----------------------------------------------------------------------------------------------
   0.423E+01 -.195E-12 -.144E+03   -.572E+01 0.154E-14 0.148E+03   0.149E+01 0.278E-16 -.381E+01   -.194E-05 0.760E-16 -.126E-04
   0.423E+01 -.138E-12 0.144E+03   -.572E+01 -.391E-15 -.148E+03   0.149E+01 0.278E-16 0.381E+01   -.194E-05 0.138E-14 0.126E-04
   -.528E+01 -.745E-13 -.206E+03   0.572E+01 -.177E-14 0.208E+03   -.445E+00 -.278E-16 -.204E+01   0.113E-04 0.407E-15 -.488E-05
   -.528E+01 -.247E-12 0.206E+03   0.572E+01 0.349E-15 -.208E+03   -.445E+00 -.278E-16 0.204E+01   0.113E-04 -.295E-14 0.488E-05
 -----------------------------------------------------------------------------------------------
   -.209E+01 -.654E-12 -.765E-06   -.355E-14 -.275E-15 -.284E-13   0.209E+01 0.000E+00 0.000E+00   0.188E-04 -.109E-14 -.155E-10
 
 
 POSITION                                       TOTAL-FORCE (eV/Angst)
 -----------------------------------------------------------------------------------
      2.54722      3.21936     11.37486        -0.000495     -0.000000     -0.000340
      0.35604      1.07312      8.62514        -0.000495     -0.000000      0.000340
      0.14401      1.07312     11.34148         0.000495      0.000000     -0.000510
      2.33519      3.21936      8.65852         0.000495      0.000000      0.000510
 -----------------------------------------------------------------------------------
    total drift:                               -0.000233     -0.000000     -0.000001


--------------------------------------------------------------------------------------------------------



  FREE ENERGIE OF THE ION-ELECTRON SYSTEM (eV)
  ---------------------------------------------------
  free  energy   TOTEN  =       -16.26439687 eV

  energy  without entropy=      -16.26439687  energy(sigma->0) =      -16.26439687
 


--------------------------------------------------------------------------------------------------------


    POTLOK:  cpu time    0.0520: real time    0.0522


--------------------------------------------------------------------------------------------------------




--------------------------------------------------------------------------------------------------------


  
 reached required accuracy - stopping structural energy minimisation
 writing wavefunctions
     LOOP+:  cpu time   43.2348: real time   43.6763
    4ORBIT:  cpu time    0.0000: real time    0.0000

 total amount of memory used by VASP MPI-rank0    52047. kBytes
=======================================================================

   base      :      30000. kBytes
   nonl-proj :       7156. kBytes
   fftplans  :       2678. kBytes
   grid      :       4349. kBytes
   one-center:          8. kBytes
   wavefun   :       7856. kBytes
 
  
  
 General timing and accounting informations for this job:
 ========================================================
  
                  Total CPU time used (sec):       47.669
                            User time (sec):       46.649
                          System time (sec):        1.020
                         Elapsed time (sec):       52.783
  
                   Maximum memory used (kb):      198980.
                   Average memory used (kb):           0.
  
                          Minor page faults:       251533
                          Major page faults:           92
                 Voluntary context switches:         7316
