 running on  192 total cores
 distrk:  each k-point on  192 cores,    1 groups
 distr:  one band on   24 cores,    8 groups
 using from now: INCAR     
 vasp.5.4.4.18Apr17-6-g9f103f2a35 (build Oct 01 2024 10:11:53) complex          
  
 POSCAR found type information on POSCAR  Mo S  Te
 POSCAR found :  3 types and       6 ions
 scaLAPACK will be used
 LDA part: xc-table for Pade appr. of Perdew
 WARNING: stress and forces are not correct
 POSCAR, INCAR and KPOINTS ok, starting setup
 FFT: planning ...
 WAVECAR not read
 charge-density read from file: unknown                                 
 WARNING: random wavefunctions but no delay for mixing, default for NELMDL
 entering main loop
       N       E                     dE             d eps       ncg     rms          rms(c)
DAV:   1     0.260383329510E+03    0.26038E+03   -0.13003E+04  3840   0.124E+03
DAV:   2    -0.590695406697E+01   -0.26629E+03   -0.25776E+03  6136   0.206E+02
DAV:   3    -0.383310741308E+02   -0.32424E+02   -0.32084E+02  5056   0.818E+01
DAV:   4    -0.393980857373E+02   -0.10670E+01   -0.10624E+01  5904   0.174E+01
DAV:   5    -0.394223545382E+02   -0.24269E-01   -0.24254E-01  5656   0.250E+00
DAV:   6    -0.394227851804E+02   -0.43064E-03   -0.43042E-03  5936   0.304E-01
DAV:   7    -0.394227966737E+02   -0.11493E-04   -0.11493E-04  5648   0.497E-02
DAV:   8    -0.394227970008E+02   -0.32714E-06   -0.32709E-06  5984   0.694E-03
DAV:   9    -0.394227970091E+02   -0.82136E-08   -0.82542E-08  3848   0.120E-03
   1 F= -.39422797E+02 E0= -.39422797E+02  d E =0.000000E+00
