 running on  192 total cores
 distrk:  each k-point on  192 cores,    1 groups
 distr:  one band on   24 cores,    8 groups
 using from now: INCAR     
 vasp.5.4.4.18Apr17-6-g9f103f2a35 (build Oct 01 2024 10:11:53) complex          
  
 POSCAR found type information on POSCAR  Mo S  Te
 POSCAR found :  3 types and       6 ions
 scaLAPACK will be used
 LDA part: xc-table for Pade appr. of Perdew
 WARNING: stress and forces are not correct
 POSCAR, INCAR and KPOINTS ok, starting setup
 FFT: planning ...
 WAVECAR not read
 charge-density read from file: unknown                                 
 WARNING: random wavefunctions but no delay for mixing, default for NELMDL
 entering main loop
       N       E                     dE             d eps       ncg     rms          rms(c)
DAV:   1     0.260308959790E+03    0.26031E+03   -0.12971E+04  3840   0.124E+03
DAV:   2    -0.569430388536E+01   -0.26600E+03   -0.25751E+03  6136   0.206E+02
DAV:   3    -0.383279921460E+02   -0.32634E+02   -0.32297E+02  5056   0.817E+01
DAV:   4    -0.393977870810E+02   -0.10698E+01   -0.10648E+01  5816   0.173E+01
DAV:   5    -0.394241282120E+02   -0.26341E-01   -0.26328E-01  5768   0.259E+00
DAV:   6    -0.394245483699E+02   -0.42016E-03   -0.42000E-03  5872   0.305E-01
DAV:   7    -0.394245602858E+02   -0.11916E-04   -0.11915E-04  5760   0.512E-02
DAV:   8    -0.394245606316E+02   -0.34579E-06   -0.34574E-06  5936   0.720E-03
DAV:   9    -0.394245606399E+02   -0.83728E-08   -0.83966E-08  3904   0.125E-03
   1 F= -.39424561E+02 E0= -.39424561E+02  d E =0.000000E+00
