 vasp.5.4.4.18Apr17-6-g9f103f2a35 (build Sep 16 2021 13:51:27) complex          
  
 executed on             LinuxIFC date 2023.03.16  13:02:09
 running on   24 total cores
 distrk:  each k-point on   24 cores,    1 groups
 distr:  one band on NCORES_PER_BAND=  24 cores,    1 groups


--------------------------------------------------------------------------------------------------------


 INCAR:
 POTCAR:    PAW_PBE Sn 08Apr2002                  
 POTCAR:    PAW_PBE Se 06Sep2000                  

 ----------------------------------------------------------------------------- 
|                                                                             |
|           W    W    AA    RRRRR   N    N  II  N    N   GGGG   !!!           |
|           W    W   A  A   R    R  NN   N  II  NN   N  G    G  !!!           |
|           W    W  A    A  R    R  N N  N  II  N N  N  G       !!!           |
|           W WW W  AAAAAA  RRRRR   N  N N  II  N  N N  G  GGG   !            |
|           WW  WW  A    A  R   R   N   NN  II  N   NN  G    G                |
|           W    W  A    A  R    R  N    N  II  N    N   GGGG   !!!           |
|                                                                             |
|      For optimal performance we recommend to set                            |
|        NCORE= 4 - approx SQRT( number of cores)                             |
|      NCORE specifies how many cores store one orbital (NPAR=cpu/NCORE).     |
|      This setting can  greatly improve the performance of VASP for DFT.     |
|      The default,   NCORE=1            might be grossly inefficient         |
|      on modern multi-core architectures or massively parallel machines.     |
|      Do your own testing !!!!                                               |
|      Unfortunately you need to use the default for GW and RPA calculations. |
|      (for HF NCORE is supported but not extensively tested yet)             |
|                                                                             |
 ----------------------------------------------------------------------------- 

 POTCAR:    PAW_PBE Sn 08Apr2002                  
   VRHFIN =Sn: s2p2                                                             
   LEXCH  = PE                                                                  
   EATOM  =    94.0860 eV,    6.9151 Ry                                         
                                                                                
   TITEL  = PAW_PBE Sn 08Apr2002                                                
   LULTRA =        F    use ultrasoft PP ?                                      
   IUNSCR =        1    unscreen: 0-lin 1-nonlin 2-no                           
   RPACOR =    2.000    partial core radius                                     
   POMASS =  118.710; ZVAL   =    4.000    mass and valenz                      
   RCORE  =    3.000    outmost cutoff radius                                   
   RWIGS  =    2.960; RWIGS  =    1.566    wigner-seitz radius (au A)           
   ENMAX  =  103.236; ENMIN  =   77.427 eV                                      
   ICORE  =        3    local potential                                         
   LCOR   =        T    correct aug charges                                     
   LPAW   =        T    paw PP                                                  
   EAUG   =  263.585                                                            
   DEXC   =    0.000                                                            
   RMAX   =    3.078    core radius for proj-oper                               
   RAUG   =    1.300    factor for augmentation sphere                          
   RDEP   =    3.022    radius for radial grids                                 
   RDEPT  =    2.655    core radius for aug-charge                              
                                                                                
   Atomic configuration                                                         
   13 entries                                                                   
     n  l   j            E        occ.                                          
     1  0  0.50    -29007.2859   2.0000                                         
     2  0  0.50     -4378.8056   2.0000                                         
     2  1  1.50     -3930.4293   6.0000                                         
     3  0  0.50      -845.0264   2.0000                                         
     3  1  1.50      -698.5725   6.0000                                         
     3  2  2.50      -473.2839  10.0000                                         
     4  0  0.50      -133.9036   2.0000                                         
     4  1  1.50       -89.6752   6.0000                                         
     4  2  2.50       -25.8375  10.0000                                         
     5  0  0.50       -10.5484   2.0000                                         
     5  1  0.50        -3.6940   2.0000                                         
     5  2  1.50        -1.3606   0.0000                                         
     4  3  2.50        -4.0817   0.0000                                         
   Description                                                                  
     l       E           TYP  RCUT    TYP  RCUT                                 
     0    -10.5483727     23  3.000                                             
     0     27.2116520     23  3.000                                             
     1     -3.6939829     23  3.000                                             
     1      1.9821976     23  3.000                                             
     2     -1.3605826     23  3.000                                             
     3     -2.7211652     23  3.000                                             
  local pseudopotential read in
  partial core-charges read in
  partial kinetic energy density read in
  atomic valenz-charges read in
  non local Contribution for L=           0  read in
    real space projection operators read in
  non local Contribution for L=           0  read in
    real space projection operators read in
  non local Contribution for L=           1  read in
    real space projection operators read in
  non local Contribution for L=           1  read in
    real space projection operators read in
  non local Contribution for L=           2  read in
    real space projection operators read in
    PAW grid and wavefunctions read in
 
   number of l-projection  operators is LMAX  =           5
   number of lm-projection operators is LMMAX =          13
 
 POTCAR:    PAW_PBE Se 06Sep2000                  
   VRHFIN =Se: s2p4                                                             
   LEXCH  = PE                                                                  
   EATOM  =   257.1286 eV,   18.8984 Ry                                         
                                                                                
   TITEL  = PAW_PBE Se 06Sep2000                                                
   LULTRA =        F    use ultrasoft PP ?                                      
   IUNSCR =        1    unscreen: 0-lin 1-nonlin 2-no                           
   RPACOR =    1.900    partial core radius                                     
   POMASS =   78.960; ZVAL   =    6.000    mass and valenz                      
   RCORE  =    2.100    outmost cutoff radius                                   
   RWIGS  =    2.200; RWIGS  =    1.164    wigner-seitz radius (au A)           
   ENMAX  =  211.555; ENMIN  =  158.666 eV                                      
   ICORE  =        3    local potential                                         
   LCOR   =        T    correct aug charges                                     
   LPAW   =        T    paw PP                                                  
   EAUG   =  446.842                                                            
   DEXC   =    0.000                                                            
   RMAX   =    2.147    core radius for proj-oper                               
   RAUG   =    1.300    factor for augmentation sphere                          
   RDEP   =    2.177    radius for radial grids                                 
   RDEPT  =    1.928    core radius for aug-charge                              
                                                                                
   Atomic configuration                                                         
   10 entries                                                                   
     n  l   j            E        occ.                                          
     1  0  0.50    -12503.4787   2.0000                                         
     2  0  0.50     -1606.9547   2.0000                                         
     2  1  1.50     -1413.3140   6.0000                                         
     3  0  0.50      -213.4885   2.0000                                         
     3  1  1.50      -152.9538   6.0000                                         
     3  2  2.50       -53.1221  10.0000                                         
     4  0  0.50       -17.2865   2.0000                                         
     4  1  0.50        -6.5110   4.0000                                         
     4  2  2.50        -6.8029   0.0000                                         
     4  3  2.50        -6.8029   0.0000                                         
   Description                                                                  
     l       E           TYP  RCUT    TYP  RCUT                                 
     0    -17.2865377     23  2.100                                             
     0    -15.3094411     23  2.100                                             
     1     -6.5110275     23  2.100                                             
     1     -0.0695192     23  2.100                                             
     2     -6.8029130     23  2.100                                             
     3     -1.3605826      7  2.100                                             
  local pseudopotential read in
  partial core-charges read in
  partial kinetic energy density read in
  atomic valenz-charges read in
  non local Contribution for L=           0  read in
    real space projection operators read in
  non local Contribution for L=           0  read in
    real space projection operators read in
  non local Contribution for L=           1  read in
    real space projection operators read in
  non local Contribution for L=           1  read in
    real space projection operators read in
  non local Contribution for L=           2  read in
    real space projection operators read in
    PAW grid and wavefunctions read in
 
   number of l-projection  operators is LMAX  =           5
   number of lm-projection operators is LMMAX =          13
 
 WARNING: PSMAXN for non-local potential too small
          PSMAXN should be >   12.5490833729506       NTYP=           1
  PAW_PBE Sn 08Apr2002                  :
 energy of atom  1       EATOM=  -94.0860
 kinetic energy error for atom=    0.0000 (will be added to EATOM!!)
  PAW_PBE Se 06Sep2000                  :
 energy of atom  2       EATOM= -257.1286
 kinetic energy error for atom=    0.0006 (will be added to EATOM!!)
 
 
 POSCAR:  POSCAR with strain of -0.010           
  positions in direct lattice
  No initial velocities read in
 exchange correlation table for  LEXCH =        8
   RHO(1)=    0.500       N(1)  =     2000
   RHO(2)=  100.500       N(2)  =     4000
 


--------------------------------------------------------------------------------------------------------


 ion  position               nearest neighbor table
   1  0.581  0.750  0.569-   4 2.70   3 2.91   3 2.93   3 3.21   3 3.24
   2  0.081  0.250  0.431-   3 2.70   4 2.90   4 2.93   4 3.21   4 3.24
   3  0.033  0.250  0.567-   2 2.70   1 2.91   1 2.93   1 3.21   1 3.24
   4  0.533  0.750  0.433-   1 2.70   2 2.90   2 2.93   2 3.21   2 3.24
 

IMPORTANT INFORMATION: All symmetrisations will be switched off!
NOSYMM: (Re-)initialisation of all symmetry stuff for point group C_1.

 
 
 KPOINTS: KMesh Grid                              

Automatic generation of k-mesh.
Space group operators:
 irot       det(A)        alpha          n_x          n_y          n_z        tau_x        tau_y        tau_z
    1     1.000000     0.000001     1.000000     0.000000     0.000000     0.000000     0.000000     0.000000
 
 Subroutine IBZKPT returns following result:
 ===========================================
 
 Found    113 irreducible k-points:
 
 Following reciprocal coordinates:
            Coordinates               Weight
  0.000000  0.000000  0.000000      1.000000
  0.066667 -0.000000  0.000000      2.000000
  0.133333 -0.000000  0.000000      2.000000
  0.200000 -0.000000  0.000000      2.000000
  0.266667  0.000000 -0.000000      2.000000
  0.333333 -0.000000  0.000000      2.000000
  0.400000 -0.000000  0.000000      2.000000
  0.466667 -0.000000  0.000000      2.000000
 -0.000000  0.066667  0.000000      2.000000
  0.066667  0.066667  0.000000      2.000000
  0.133333  0.066667  0.000000      2.000000
  0.200000  0.066667  0.000000      2.000000
  0.266667  0.066667 -0.000000      2.000000
  0.333333  0.066667  0.000000      2.000000
  0.400000  0.066667 -0.000000      2.000000
  0.466667  0.066667  0.000000      2.000000
 -0.466667  0.066667  0.000000      2.000000
 -0.400000  0.066667  0.000000      2.000000
 -0.333333  0.066667 -0.000000      2.000000
 -0.266667  0.066667 -0.000000      2.000000
 -0.200000  0.066667  0.000000      2.000000
 -0.133333  0.066667 -0.000000      2.000000
 -0.066667  0.066667  0.000000      2.000000
 -0.000000  0.133333  0.000000      2.000000
  0.066667  0.133333  0.000000      2.000000
  0.133333  0.133333  0.000000      2.000000
  0.200000  0.133333  0.000000      2.000000
  0.266667  0.133333  0.000000      2.000000
  0.333333  0.133333 -0.000000      2.000000
  0.400000  0.133333  0.000000      2.000000
  0.466667  0.133333 -0.000000      2.000000
 -0.466667  0.133333 -0.000000      2.000000
 -0.400000  0.133333  0.000000      2.000000
 -0.333333  0.133333 -0.000000      2.000000
 -0.266667  0.133333  0.000000      2.000000
 -0.200000  0.133333  0.000000      2.000000
 -0.133333  0.133333 -0.000000      2.000000
 -0.066667  0.133333  0.000000      2.000000
 -0.000000  0.200000  0.000000      2.000000
  0.066667  0.200000  0.000000      2.000000
  0.133333  0.200000 -0.000000      2.000000
  0.200000  0.200000  0.000000      2.000000
  0.266667  0.200000  0.000000      2.000000
  0.333333  0.200000  0.000000      2.000000
  0.400000  0.200000 -0.000000      2.000000
  0.466667  0.200000 -0.000000      2.000000
 -0.466667  0.200000 -0.000000      2.000000
 -0.400000  0.200000  0.000000      2.000000
 -0.333333  0.200000 -0.000000      2.000000
 -0.266667  0.200000 -0.000000      2.000000
 -0.200000  0.200000 -0.000000      2.000000
 -0.133333  0.200000  0.000000      2.000000
 -0.066667  0.200000 -0.000000      2.000000
 -0.000000  0.266667 -0.000000      2.000000
  0.066667  0.266667 -0.000000      2.000000
  0.133333  0.266667 -0.000000      2.000000
  0.200000  0.266667  0.000000      2.000000
  0.266667  0.266667  0.000000      2.000000
  0.333333  0.266667  0.000000      2.000000
  0.400000  0.266667  0.000000      2.000000
  0.466667  0.266667  0.000000      2.000000
 -0.466667  0.266667 -0.000000      2.000000
 -0.400000  0.266667  0.000000      2.000000
 -0.333333  0.266667 -0.000000      2.000000
 -0.266667  0.266667  0.000000      2.000000
 -0.200000  0.266667 -0.000000      2.000000
 -0.133333  0.266667 -0.000000      2.000000
 -0.066667  0.266667 -0.000000      2.000000
 -0.000000  0.333333 -0.000000      2.000000
  0.066667  0.333333 -0.000000      2.000000
  0.133333  0.333333  0.000000      2.000000
  0.200000  0.333333 -0.000000      2.000000
  0.266667  0.333333  0.000000      2.000000
  0.333333  0.333333  0.000000      2.000000
  0.400000  0.333333  0.000000      2.000000
  0.466667  0.333333  0.000000      2.000000
 -0.466667  0.333333  0.000000      2.000000
 -0.400000  0.333333  0.000000      2.000000
 -0.333333  0.333333 -0.000000      2.000000
 -0.266667  0.333333  0.000000      2.000000
 -0.200000  0.333333 -0.000000      2.000000
 -0.133333  0.333333 -0.000000      2.000000
 -0.066667  0.333333  0.000000      2.000000
 -0.000000  0.400000  0.000000      2.000000
  0.066667  0.400000  0.000000      2.000000
  0.133333  0.400000  0.000000      2.000000
  0.200000  0.400000  0.000000      2.000000
  0.266667  0.400000  0.000000      2.000000
  0.333333  0.400000  0.000000      2.000000
  0.400000  0.400000  0.000000      2.000000
  0.466667  0.400000  0.000000      2.000000
 -0.466667  0.400000 -0.000000      2.000000
 -0.400000  0.400000 -0.000000      2.000000
 -0.333333  0.400000 -0.000000      2.000000
 -0.266667  0.400000  0.000000      2.000000
 -0.200000  0.400000  0.000000      2.000000
 -0.133333  0.400000 -0.000000      2.000000
 -0.066667  0.400000  0.000000      2.000000
 -0.000000  0.466667  0.000000      2.000000
  0.066667  0.466667  0.000000      2.000000
  0.133333  0.466667 -0.000000      2.000000
  0.200000  0.466667 -0.000000      2.000000
  0.266667  0.466667  0.000000      2.000000
  0.333333  0.466667  0.000000      2.000000
  0.400000  0.466667  0.000000      2.000000
  0.466667  0.466667  0.000000      2.000000
 -0.466667  0.466667 -0.000000      2.000000
 -0.400000  0.466667  0.000000      2.000000
 -0.333333  0.466667 -0.000000      2.000000
 -0.266667  0.466667  0.000000      2.000000
 -0.200000  0.466667  0.000000      2.000000
 -0.133333  0.466667  0.000000      2.000000
 -0.066667  0.466667  0.000000      2.000000
 
 Following cartesian coordinates:
            Coordinates               Weight
  0.000000  0.000000  0.000000      1.000000
  0.015213  0.000076  0.000077      2.000000
  0.030427  0.000153  0.000154      2.000000
  0.045640  0.000229  0.000232      2.000000
  0.060853  0.000306  0.000309      2.000000
  0.076066  0.000382  0.000386      2.000000
  0.091280  0.000459  0.000463      2.000000
  0.106493  0.000535  0.000541      2.000000
  0.000078  0.015532  0.000079      2.000000
  0.015291  0.015608  0.000156      2.000000
  0.030505  0.015685  0.000233      2.000000
  0.045718  0.015761  0.000311      2.000000
  0.060931  0.015838  0.000388      2.000000
  0.076144  0.015914  0.000465      2.000000
  0.091358  0.015991  0.000542      2.000000
  0.106571  0.016067  0.000619      2.000000
 -0.106415  0.014997 -0.000462      2.000000
 -0.091202  0.015073 -0.000384      2.000000
 -0.075988  0.015150 -0.000307      2.000000
 -0.060775  0.015226 -0.000230      2.000000
 -0.045562  0.015302 -0.000153      2.000000
 -0.030349  0.015379 -0.000076      2.000000
 -0.015135  0.015455  0.000002      2.000000
  0.000156  0.031064  0.000158      2.000000
  0.015369  0.031140  0.000235      2.000000
  0.030583  0.031217  0.000312      2.000000
  0.045796  0.031293  0.000389      2.000000
  0.061009  0.031369  0.000467      2.000000
  0.076223  0.031446  0.000544      2.000000
  0.091436  0.031522  0.000621      2.000000
  0.106649  0.031599  0.000698      2.000000
 -0.106337  0.030528 -0.000383      2.000000
 -0.091124  0.030605 -0.000306      2.000000
 -0.075910  0.030681 -0.000228      2.000000
 -0.060697  0.030758 -0.000151      2.000000
 -0.045484  0.030834 -0.000074      2.000000
 -0.030270  0.030911  0.000003      2.000000
 -0.015057  0.030987  0.000080      2.000000
  0.000234  0.046595  0.000237      2.000000
  0.015447  0.046672  0.000314      2.000000
  0.030661  0.046748  0.000391      2.000000
  0.045874  0.046825  0.000468      2.000000
  0.061087  0.046901  0.000545      2.000000
  0.076301  0.046978  0.000623      2.000000
  0.091514  0.047054  0.000700      2.000000
  0.106727  0.047131  0.000777      2.000000
 -0.106259  0.046060 -0.000304      2.000000
 -0.091046  0.046137 -0.000227      2.000000
 -0.075832  0.046213 -0.000150      2.000000
 -0.060619  0.046290 -0.000072      2.000000
 -0.045406  0.046366  0.000005      2.000000
 -0.030192  0.046443  0.000082      2.000000
 -0.014979  0.046519  0.000159      2.000000
  0.000312  0.062127  0.000315      2.000000
  0.015525  0.062204  0.000393      2.000000
  0.030739  0.062280  0.000470      2.000000
  0.045952  0.062357  0.000547      2.000000
  0.061165  0.062433  0.000624      2.000000
  0.076379  0.062510  0.000701      2.000000
  0.091592  0.062586  0.000779      2.000000
  0.106805  0.062662  0.000856      2.000000
 -0.106181  0.061592 -0.000225      2.000000
 -0.090967  0.061669 -0.000148      2.000000
 -0.075754  0.061745 -0.000071      2.000000
 -0.060541  0.061822  0.000006      2.000000
 -0.045328  0.061898  0.000084      2.000000
 -0.030114  0.061974  0.000161      2.000000
 -0.014901  0.062051  0.000238      2.000000
  0.000390  0.077659  0.000394      2.000000
  0.015604  0.077736  0.000471      2.000000
  0.030817  0.077812  0.000549      2.000000
  0.046030  0.077889  0.000626      2.000000
  0.061243  0.077965  0.000703      2.000000
  0.076457  0.078041  0.000780      2.000000
  0.091670  0.078118  0.000858      2.000000
  0.106883  0.078194  0.000935      2.000000
 -0.106103  0.077124 -0.000146      2.000000
 -0.090889  0.077200 -0.000069      2.000000
 -0.075676  0.077277  0.000008      2.000000
 -0.060463  0.077353  0.000085      2.000000
 -0.045250  0.077430  0.000163      2.000000
 -0.030036  0.077506  0.000240      2.000000
 -0.014823  0.077583  0.000317      2.000000
  0.000468  0.093191  0.000473      2.000000
  0.015682  0.093267  0.000550      2.000000
  0.030895  0.093344  0.000627      2.000000
  0.046108  0.093420  0.000705      2.000000
  0.061321  0.093497  0.000782      2.000000
  0.076535  0.093573  0.000859      2.000000
  0.091748  0.093650  0.000936      2.000000
  0.106961  0.093726  0.001014      2.000000
 -0.106025  0.092656 -0.000068      2.000000
 -0.090811  0.092732  0.000010      2.000000
 -0.075598  0.092809  0.000087      2.000000
 -0.060385  0.092885  0.000164      2.000000
 -0.045172  0.092962  0.000241      2.000000
 -0.029958  0.093038  0.000319      2.000000
 -0.014745  0.093115  0.000396      2.000000
  0.000546  0.108723  0.000552      2.000000
  0.015760  0.108799  0.000629      2.000000
  0.030973  0.108876  0.000706      2.000000
  0.046186  0.108952  0.000784      2.000000
  0.061400  0.109029  0.000861      2.000000
  0.076613  0.109105  0.000938      2.000000
  0.091826  0.109182  0.001015      2.000000
  0.107039  0.109258  0.001092      2.000000
 -0.105947  0.108188  0.000011      2.000000
 -0.090733  0.108264  0.000089      2.000000
 -0.075520  0.108341  0.000166      2.000000
 -0.060307  0.108417  0.000243      2.000000
 -0.045093  0.108493  0.000320      2.000000
 -0.029880  0.108570  0.000397      2.000000
 -0.014667  0.108646  0.000475      2.000000
 


--------------------------------------------------------------------------------------------------------




 Dimension of arrays:
   k-points           NKPTS =    113   k-points in BZ     NKDIM =    113   number of bands    NBANDS=     14
   number of dos      NEDOS =    301   number of ions     NIONS =      4
   non local maximal  LDIM  =      5   non local SUM 2l+1 LMDIM =     13
   total plane-waves  NPLWV = 207360
   max r-space proj   IRMAX =      1   max aug-charges    IRDMAX=  53787
   dimension x,y,z NGX =    36 NGY =   36 NGZ =  160
   dimension x,y,z NGXF=    72 NGYF=   72 NGZF=  320
   support grid    NGXF=    72 NGYF=   72 NGZF=  320
   ions per type =               2   2
   NGX,Y,Z   is equivalent  to a cutoff of  13.66, 13.94, 13.43 a.u.
   NGXF,Y,Z  is equivalent  to a cutoff of  27.31, 27.88, 26.87 a.u.

 SYSTEM =  SnSe                                    
 POSCAR =   POSCAR with strain of -0.010           

 Startparameter for this run:
   NWRITE =      2    write-flag & timer
   PREC   = accura    normal or accurate (medium, high low for compatibility)
   ISTART =      0    job   : 0-new  1-cont  2-samecut
   ICHARG =      2    charge: 1-file 2-atom 10-const
   ISPIN  =      1    spin polarized calculation?
   LNONCOLLINEAR =      F non collinear calculations
   LSORBIT =      F    spin-orbit coupling
   INIWAV =      1    electr: 0-lowe 1-rand  2-diag
   LASPH  =      F    aspherical Exc in radial PAW
   METAGGA=      F    non-selfconsistent MetaGGA calc.

 Electronic Relaxation 1
   ENCUT  =  600.0 eV  44.10 Ry    6.64 a.u.   8.75  8.57 39.55*2*pi/ulx,y,z
   ENINI  =  600.0     initial cutoff
   ENAUG  =  446.8 eV  augmentation charge cutoff
   NELM   =     60;   NELMIN=  2; NELMDL= -5     # of ELM steps 
   EDIFF  = 0.1E-05   stopping-criterion for ELM
   LREAL  =      F    real-space projection
   NLSPLINE    = F    spline interpolate recip. space projectors
   LCOMPAT=      F    compatible to vasp.4.4
   GGA_COMPAT  = T    GGA compatible to vasp.4.4-vasp.4.6
   LMAXPAW     = -100 max onsite density
   LMAXMIX     =    2 max onsite mixed and CHGCAR
   VOSKOWN=      0    Vosko Wilk Nusair interpolation
   ROPT   =    0.00000   0.00000
 Ionic relaxation
   EDIFFG = -.1E-02   stopping-criterion for IOM
   NSW    =    100    number of steps for IOM
   NBLOCK =      1;   KBLOCK =    100    inner block; outer block 
   IBRION =      2    ionic relax: 0-MD 1-quasi-New 2-CG
   NFREE  =      1    steps in history (QN), initial steepest desc. (CG)
   ISIF   =      2    stress and relaxation
   IWAVPR =     11    prediction:  0-non 1-charg 2-wave 3-comb
   ISYM   =      0    0-nonsym 1-usesym 2-fastsym
   LCORR  =      T    Harris-Foulkes like correction to forces

   POTIM  = 0.5000    time-step for ionic-motion
   TEIN   =    0.0    initial temperature
   TEBEG  =    0.0;   TEEND  =   0.0 temperature during run
   SMASS  =  -3.00    Nose mass-parameter (am)
   estimated Nose-frequenzy (Omega)   =  0.10E-29 period in steps =****** mass=  -0.439E-27a.u.
   SCALEE = 1.0000    scale energy and forces
   NPACO  =    256;   APACO  = 16.0  distance and # of slots for P.C.
   PSTRESS=    0.0 pullay stress

  Mass of Ions in am
   POMASS = 118.71 78.96
  Ionic Valenz
   ZVAL   =   4.00  6.00
  Atomic Wigner-Seitz radii
   RWIGS  =  -1.00 -1.00
  virtual crystal weights 
   VCA    =   1.00  1.00
   NELECT =      20.0000    total number of electrons
   NUPDOWN=      -1.0000    fix difference up-down

 DOS related values:
   EMIN   =  10.00;   EMAX   =-10.00  energy-range for DOS
   EFERMI =   0.00
   ISMEAR =     0;   SIGMA  =   0.10  broadening in eV -4-tet -1-fermi 0-gaus

 Electronic relaxation 2 (details)
   IALGO  =     38    algorithm
   LDIAG  =      T    sub-space diagonalisation (order eigenvalues)
   LSUBROT=      F    optimize rotation matrix (better conditioning)
   TURBO    =      0    0=normal 1=particle mesh
   IRESTART =      0    0=no restart 2=restart with 2 vectors
   NREBOOT  =      0    no. of reboots
   NMIN     =      0    reboot dimension
   EREF     =   0.00    reference energy to select bands
   IMIX   =      4    mixing-type and parameters
     AMIX     =   0.40;   BMIX     =  1.00
     AMIX_MAG =   1.60;   BMIX_MAG =  1.00
     AMIN     =   0.10
     WC   =   100.;   INIMIX=   1;  MIXPRE=   1;  MAXMIX= -45

 Intra band minimization:
   WEIMIN = 0.0010     energy-eigenvalue tresh-hold
   EBREAK =  0.18E-07  absolut break condition
   DEPER  =   0.30     relativ break condition  

   TIME   =   0.40     timestep for ELM

  volume/ion in A,a.u.               =      93.11       628.33
  Fermi-wavevector in a.u.,A,eV,Ry     =   0.617640  1.167171  5.190341  0.381479
  Thomas-Fermi vector in A             =   1.675798
 
 Write flags
   LWAVE        =      T    write WAVECAR
   LDOWNSAMPLE  =      F    k-point downsampling of WAVECAR
   LCHARG       =      T    write CHGCAR
   LVTOT        =      F    write LOCPOT, total local potential
   LVHAR        =      F    write LOCPOT, Hartree potential only
   LELF         =      F    write electronic localiz. function (ELF)
   LORBIT       =      0    0 simple, 1 ext, 2 COOP (PROOUT), +10 PAW based schemes


 Dipole corrections
   LMONO  =      F    monopole corrections only (constant potential shift)
   LDIPOL =      F    correct potential (dipole corrections)
   IDIPOL =      0    1-x, 2-y, 3-z, 4-all directions 
   EPSILON=  1.0000000 bulk dielectric constant

 Exchange correlation treatment:
   GGA     =    PE    GGA type
   LEXCH   =     8    internal setting for exchange type
   VOSKOWN=      0    Vosko Wilk Nusair interpolation
   LHFCALC =     F    Hartree Fock is set to
   LHFONE  =     F    Hartree Fock one center treatment
   AEXX    =    0.0000 exact exchange contribution

 Linear response parameters
   LEPSILON=     F    determine dielectric tensor
   LRPA    =     F    only Hartree local field effects (RPA)
   LNABLA  =     F    use nabla operator in PAW spheres
   LVEL    =     F    velocity operator in full k-point grid
   LINTERFAST=   F  fast interpolation
   KINTER  =     0    interpolate to denser k-point grid
   CSHIFT  =0.1000    complex shift for real part using Kramers Kronig
   OMEGAMAX=  -1.0    maximum frequency
   DEG_THRESHOLD= 0.2000000E-02 threshold for treating states as degnerate
   RTIME   =   -0.100 relaxation time in fs
  (WPLASMAI=    0.000 imaginary part of plasma frequency in eV, 0.658/RTIME)
   DFIELD  = 0.0000000 0.0000000 0.0000000 field for delta impulse in time
 
 Orbital magnetization related:
   ORBITALMAG=     F  switch on orbital magnetization
   LCHIMAG   =     F  perturbation theory with respect to B field
   DQ        =  0.001000  dq finite difference perturbation B field
   LLRAUG    =     F  two centre corrections for induced B field



--------------------------------------------------------------------------------------------------------


 conjugate gradient relaxation of ions
 charge density and potential will be updated during run
 non-spin polarized calculation
 Variant of blocked Davidson
 Davidson routine will perform the subspace rotation
 perform sub-space diagonalisation
    after iterative eigenvector-optimisation
 modified Broyden-mixing scheme, WC =      100.0
 initial mixing is a Kerker type mixing with AMIX =  0.4000 and BMIX =      1.0000
 Hartree-type preconditioning will be used
 using additional bands            4
 reciprocal scheme for non local part
 use partial core corrections
 calculate Harris-corrections to forces 
   (improved forces if not selfconsistent)
 use gradient corrections 
 use of overlap-Matrix (Vanderbilt PP)
 Gauss-broadening in eV      SIGMA  =   0.10


--------------------------------------------------------------------------------------------------------


  energy-cutoff  :      600.00
  volume of cell :      372.43
      direct lattice vectors                 reciprocal lattice vectors
     4.382356765 -0.021911784 -0.021911784     0.228199246  0.001146788  0.001158313
    -0.021462389  4.292477857 -0.021462389     0.001170800  0.232977442  0.001182567
    -0.100000000 -0.100000000 19.800000000     0.000253807  0.000253807  0.050507614

  length of vectors
     4.382466322  4.292585168 19.800505044     0.228205067  0.232983385  0.050508890


 
 k-points in units of 2pi/SCALE and weight: KMesh Grid                              
   0.00000000  0.00000000  0.00000000       0.004
   0.01521328  0.00007645  0.00007722       0.009
   0.03042657  0.00015291  0.00015444       0.009
   0.04563985  0.00022936  0.00023166       0.009
   0.06085313  0.00030581  0.00030888       0.009
   0.07606642  0.00038226  0.00038610       0.009
   0.09127970  0.00045872  0.00046333       0.009
   0.10649298  0.00053517  0.00054055       0.009
   0.00007805  0.01553183  0.00007884       0.009
   0.01529134  0.01560828  0.00015606       0.009
   0.03050462  0.01568473  0.00023328       0.009
   0.04571790  0.01576119  0.00031050       0.009
   0.06093119  0.01583764  0.00038772       0.009
   0.07614447  0.01591409  0.00046494       0.009
   0.09135775  0.01599054  0.00054216       0.009
   0.10657103  0.01606700  0.00061938       0.009
  -0.10641493  0.01499666 -0.00046171       0.009
  -0.09120165  0.01507311 -0.00038449       0.009
  -0.07598836  0.01514957 -0.00030727       0.009
  -0.06077508  0.01522602 -0.00023005       0.009
  -0.04556180  0.01530247 -0.00015282       0.009
  -0.03034851  0.01537892 -0.00007560       0.009
  -0.01513523  0.01545538  0.00000162       0.009
   0.00015611  0.03106366  0.00015768       0.009
   0.01536939  0.03114011  0.00023490       0.009
   0.03058267  0.03121656  0.00031212       0.009
   0.04579596  0.03129302  0.00038934       0.009
   0.06100924  0.03136947  0.00046656       0.009
   0.07622252  0.03144592  0.00054378       0.009
   0.09143581  0.03152237  0.00062100       0.009
   0.10664909  0.03159883  0.00069822       0.009
  -0.10633687  0.03052849 -0.00038287       0.009
  -0.09112359  0.03060494 -0.00030565       0.009
  -0.07591031  0.03068140 -0.00022843       0.009
  -0.06069703  0.03075785 -0.00015121       0.009
  -0.04548374  0.03083430 -0.00007399       0.009
  -0.03027046  0.03091075  0.00000323       0.009
  -0.01505718  0.03098721  0.00008045       0.009
   0.00023416  0.04659549  0.00023651       0.009
   0.01544744  0.04667194  0.00031373       0.009
   0.03066073  0.04674839  0.00039096       0.009
   0.04587401  0.04682485  0.00046818       0.009
   0.06108729  0.04690130  0.00054540       0.009
   0.07630058  0.04697775  0.00062262       0.009
   0.09151386  0.04705420  0.00069984       0.009
   0.10672714  0.04713066  0.00077706       0.009
  -0.10625882  0.04606032 -0.00030403       0.009
  -0.09104554  0.04613677 -0.00022681       0.009
  -0.07583226  0.04621323 -0.00014959       0.009
  -0.06061897  0.04628968 -0.00007237       0.009
  -0.04540569  0.04636613  0.00000485       0.009
  -0.03019241  0.04644258  0.00008207       0.009
  -0.01497912  0.04651904  0.00015929       0.009
   0.00031221  0.06212732  0.00031535       0.009
   0.01552550  0.06220377  0.00039257       0.009
   0.03073878  0.06228022  0.00046979       0.009
   0.04595206  0.06235668  0.00054701       0.009
   0.06116535  0.06243313  0.00062423       0.009
   0.07637863  0.06250958  0.00070146       0.009
   0.09159191  0.06258603  0.00077868       0.009
   0.10680519  0.06266249  0.00085590       0.009
  -0.10618077  0.06159215 -0.00022520       0.009
  -0.09096749  0.06166860 -0.00014797       0.009
  -0.07575420  0.06174506 -0.00007075       0.009
  -0.06054092  0.06182151  0.00000647       0.009
  -0.04532764  0.06189796  0.00008369       0.009
  -0.03011435  0.06197441  0.00016091       0.009
  -0.01490107  0.06205087  0.00023813       0.009
   0.00039027  0.07765915  0.00039419       0.009
   0.01560355  0.07773560  0.00047141       0.009
   0.03081683  0.07781205  0.00054863       0.009
   0.04603012  0.07788850  0.00062585       0.009
   0.06124340  0.07796496  0.00070307       0.009
   0.07645668  0.07804141  0.00078029       0.009
   0.09166997  0.07811786  0.00085751       0.009
   0.10688325  0.07819431  0.00093474       0.009
  -0.10610271  0.07712398 -0.00014636       0.009
  -0.09088943  0.07720043 -0.00006914       0.009
  -0.07567615  0.07727688  0.00000808       0.009
  -0.06046287  0.07735334  0.00008531       0.009
  -0.04524958  0.07742979  0.00016253       0.009
  -0.03003630  0.07750624  0.00023975       0.009
  -0.01482302  0.07758269  0.00031697       0.009
   0.00046832  0.09319098  0.00047303       0.009
   0.01568160  0.09326743  0.00055025       0.009
   0.03089489  0.09334388  0.00062747       0.009
   0.04610817  0.09342033  0.00070469       0.009
   0.06132145  0.09349679  0.00078191       0.009
   0.07653474  0.09357324  0.00085913       0.009
   0.09174802  0.09364969  0.00093635       0.009
   0.10696130  0.09372614  0.00101357       0.009
  -0.10602466  0.09265581 -0.00006752       0.009
  -0.09081138  0.09273226  0.00000970       0.009
  -0.07559810  0.09280871  0.00008692       0.009
  -0.06038481  0.09288517  0.00016414       0.009
  -0.04517153  0.09296162  0.00024136       0.009
  -0.02995825  0.09303807  0.00031858       0.009
  -0.01474496  0.09311452  0.00039581       0.009
   0.00054637  0.10872281  0.00055186       0.009
   0.01575966  0.10879926  0.00062909       0.009
   0.03097294  0.10887571  0.00070631       0.009
   0.04618622  0.10895216  0.00078353       0.009
   0.06139951  0.10902862  0.00086075       0.009
   0.07661279  0.10910507  0.00093797       0.009
   0.09182607  0.10918152  0.00101519       0.009
   0.10703935  0.10925797  0.00109241       0.009
  -0.10594661  0.10818764  0.00001132       0.009
  -0.09073332  0.10826409  0.00008854       0.009
  -0.07552004  0.10834054  0.00016576       0.009
  -0.06030676  0.10841700  0.00024298       0.009
  -0.04509348  0.10849345  0.00032020       0.009
  -0.02988019  0.10856990  0.00039742       0.009
  -0.01466691  0.10864635  0.00047464       0.009
 
 k-points in reciprocal lattice and weights: KMesh Grid                              
   0.00000000  0.00000000  0.00000000       0.004
   0.06666667 -0.00000000  0.00000000       0.009
   0.13333333 -0.00000000  0.00000000       0.009
   0.20000000 -0.00000000  0.00000000       0.009
   0.26666667  0.00000000 -0.00000000       0.009
   0.33333333 -0.00000000  0.00000000       0.009
   0.40000000 -0.00000000  0.00000000       0.009
   0.46666667 -0.00000000  0.00000000       0.009
  -0.00000000  0.06666667  0.00000000       0.009
   0.06666667  0.06666667  0.00000000       0.009
   0.13333333  0.06666667  0.00000000       0.009
   0.20000000  0.06666667  0.00000000       0.009
   0.26666667  0.06666667 -0.00000000       0.009
   0.33333333  0.06666667  0.00000000       0.009
   0.40000000  0.06666667 -0.00000000       0.009
   0.46666667  0.06666667  0.00000000       0.009
  -0.46666667  0.06666667  0.00000000       0.009
  -0.40000000  0.06666667  0.00000000       0.009
  -0.33333333  0.06666667 -0.00000000       0.009
  -0.26666667  0.06666667 -0.00000000       0.009
  -0.20000000  0.06666667  0.00000000       0.009
  -0.13333333  0.06666667 -0.00000000       0.009
  -0.06666667  0.06666667  0.00000000       0.009
  -0.00000000  0.13333333  0.00000000       0.009
   0.06666667  0.13333333  0.00000000       0.009
   0.13333333  0.13333333  0.00000000       0.009
   0.20000000  0.13333333  0.00000000       0.009
   0.26666667  0.13333333  0.00000000       0.009
   0.33333333  0.13333333 -0.00000000       0.009
   0.40000000  0.13333333  0.00000000       0.009
   0.46666667  0.13333333 -0.00000000       0.009
  -0.46666667  0.13333333 -0.00000000       0.009
  -0.40000000  0.13333333  0.00000000       0.009
  -0.33333333  0.13333333 -0.00000000       0.009
  -0.26666667  0.13333333  0.00000000       0.009
  -0.20000000  0.13333333  0.00000000       0.009
  -0.13333333  0.13333333 -0.00000000       0.009
  -0.06666667  0.13333333  0.00000000       0.009
  -0.00000000  0.20000000  0.00000000       0.009
   0.06666667  0.20000000  0.00000000       0.009
   0.13333333  0.20000000 -0.00000000       0.009
   0.20000000  0.20000000  0.00000000       0.009
   0.26666667  0.20000000  0.00000000       0.009
   0.33333333  0.20000000  0.00000000       0.009
   0.40000000  0.20000000 -0.00000000       0.009
   0.46666667  0.20000000 -0.00000000       0.009
  -0.46666667  0.20000000 -0.00000000       0.009
  -0.40000000  0.20000000  0.00000000       0.009
  -0.33333333  0.20000000 -0.00000000       0.009
  -0.26666667  0.20000000 -0.00000000       0.009
  -0.20000000  0.20000000 -0.00000000       0.009
  -0.13333333  0.20000000  0.00000000       0.009
  -0.06666667  0.20000000 -0.00000000       0.009
  -0.00000000  0.26666667 -0.00000000       0.009
   0.06666667  0.26666667 -0.00000000       0.009
   0.13333333  0.26666667 -0.00000000       0.009
   0.20000000  0.26666667  0.00000000       0.009
   0.26666667  0.26666667  0.00000000       0.009
   0.33333333  0.26666667  0.00000000       0.009
   0.40000000  0.26666667  0.00000000       0.009
   0.46666667  0.26666667  0.00000000       0.009
  -0.46666667  0.26666667 -0.00000000       0.009
  -0.40000000  0.26666667  0.00000000       0.009
  -0.33333333  0.26666667 -0.00000000       0.009
  -0.26666667  0.26666667  0.00000000       0.009
  -0.20000000  0.26666667 -0.00000000       0.009
  -0.13333333  0.26666667 -0.00000000       0.009
  -0.06666667  0.26666667 -0.00000000       0.009
  -0.00000000  0.33333333 -0.00000000       0.009
   0.06666667  0.33333333 -0.00000000       0.009
   0.13333333  0.33333333  0.00000000       0.009
   0.20000000  0.33333333 -0.00000000       0.009
   0.26666667  0.33333333  0.00000000       0.009
   0.33333333  0.33333333  0.00000000       0.009
   0.40000000  0.33333333  0.00000000       0.009
   0.46666667  0.33333333  0.00000000       0.009
  -0.46666667  0.33333333  0.00000000       0.009
  -0.40000000  0.33333333  0.00000000       0.009
  -0.33333333  0.33333333 -0.00000000       0.009
  -0.26666667  0.33333333  0.00000000       0.009
  -0.20000000  0.33333333 -0.00000000       0.009
  -0.13333333  0.33333333 -0.00000000       0.009
  -0.06666667  0.33333333  0.00000000       0.009
  -0.00000000  0.40000000  0.00000000       0.009
   0.06666667  0.40000000  0.00000000       0.009
   0.13333333  0.40000000  0.00000000       0.009
   0.20000000  0.40000000  0.00000000       0.009
   0.26666667  0.40000000  0.00000000       0.009
   0.33333333  0.40000000  0.00000000       0.009
   0.40000000  0.40000000  0.00000000       0.009
   0.46666667  0.40000000  0.00000000       0.009
  -0.46666667  0.40000000 -0.00000000       0.009
  -0.40000000  0.40000000 -0.00000000       0.009
  -0.33333333  0.40000000 -0.00000000       0.009
  -0.26666667  0.40000000  0.00000000       0.009
  -0.20000000  0.40000000  0.00000000       0.009
  -0.13333333  0.40000000 -0.00000000       0.009
  -0.06666667  0.40000000  0.00000000       0.009
  -0.00000000  0.46666667  0.00000000       0.009
   0.06666667  0.46666667  0.00000000       0.009
   0.13333333  0.46666667 -0.00000000       0.009
   0.20000000  0.46666667 -0.00000000       0.009
   0.26666667  0.46666667  0.00000000       0.009
   0.33333333  0.46666667  0.00000000       0.009
   0.40000000  0.46666667  0.00000000       0.009
   0.46666667  0.46666667  0.00000000       0.009
  -0.46666667  0.46666667 -0.00000000       0.009
  -0.40000000  0.46666667  0.00000000       0.009
  -0.33333333  0.46666667 -0.00000000       0.009
  -0.26666667  0.46666667  0.00000000       0.009
  -0.20000000  0.46666667  0.00000000       0.009
  -0.13333333  0.46666667  0.00000000       0.009
  -0.06666667  0.46666667  0.00000000       0.009
 
 position of ions in fractional coordinates (direct lattice) 
   0.58124336  0.75000000  0.56874314
   0.08124336  0.25000000  0.43125686
   0.03286064  0.25000000  0.56707387
   0.53286061  0.75000000  0.43292613
 
 position of ions in cartesian coordinates  (Angst):
   2.47424466  3.14974800 11.23228133
   0.30754610  1.02821359  8.53174002
   0.08193408  1.01569204 11.22197692
   2.27579591  3.16438985  8.54416473
 


--------------------------------------------------------------------------------------------------------


 k-point  1 :   0.0000 0.0000 0.0000  plane waves:   12487
 k-point  2 :   0.0667-0.0000 0.0000  plane waves:   12462
 k-point  3 :   0.1333-0.0000 0.0000  plane waves:   12452
 k-point  4 :   0.2000-0.0000 0.0000  plane waves:   12427
 k-point  5 :   0.2667 0.0000-0.0000  plane waves:   12419
 k-point  6 :   0.3333-0.0000 0.0000  plane waves:   12441
 k-point  7 :   0.4000-0.0000 0.0000  plane waves:   12470
 k-point  8 :   0.4667-0.0000 0.0000  plane waves:   12461
 k-point  9 :  -0.0000 0.0667 0.0000  plane waves:   12472
 k-point 10 :   0.0667 0.0667 0.0000  plane waves:   12470
 k-point 11 :   0.1333 0.0667 0.0000  plane waves:   12459
 k-point 12 :   0.2000 0.0667 0.0000  plane waves:   12440
 k-point 13 :   0.2667 0.0667-0.0000  plane waves:   12446
 k-point 14 :   0.3333 0.0667 0.0000  plane waves:   12459
 k-point 15 :   0.4000 0.0667-0.0000  plane waves:   12453
 k-point 16 :   0.4667 0.0667 0.0000  plane waves:   12448
 k-point 17 :  -0.4667 0.0667 0.0000  plane waves:   12462
 k-point 18 :  -0.4000 0.0667 0.0000  plane waves:   12449
 k-point 19 :  -0.3333 0.0667-0.0000  plane waves:   12444
 k-point 20 :  -0.2667 0.0667-0.0000  plane waves:   12432
 k-point 21 :  -0.2000 0.0667 0.0000  plane waves:   12431
 k-point 22 :  -0.1333 0.0667-0.0000  plane waves:   12441
 k-point 23 :  -0.0667 0.0667 0.0000  plane waves:   12462
 k-point 24 :  -0.0000 0.1333 0.0000  plane waves:   12461
 k-point 25 :   0.0667 0.1333 0.0000  plane waves:   12458
 k-point 26 :   0.1333 0.1333 0.0000  plane waves:   12455
 k-point 27 :   0.2000 0.1333 0.0000  plane waves:   12443
 k-point 28 :   0.2667 0.1333 0.0000  plane waves:   12452
 k-point 29 :   0.3333 0.1333-0.0000  plane waves:   12449
 k-point 30 :   0.4000 0.1333 0.0000  plane waves:   12451
 k-point 31 :   0.4667 0.1333-0.0000  plane waves:   12456
 k-point 32 :  -0.4667 0.1333-0.0000  plane waves:   12455
 k-point 33 :  -0.4000 0.1333 0.0000  plane waves:   12438
 k-point 34 :  -0.3333 0.1333-0.0000  plane waves:   12431
 k-point 35 :  -0.2667 0.1333 0.0000  plane waves:   12429
 k-point 36 :  -0.2000 0.1333 0.0000  plane waves:   12424
 k-point 37 :  -0.1333 0.1333-0.0000  plane waves:   12447
 k-point 38 :  -0.0667 0.1333 0.0000  plane waves:   12452
 k-point 39 :  -0.0000 0.2000 0.0000  plane waves:   12454
 k-point 40 :   0.0667 0.2000 0.0000  plane waves:   12457
 k-point 41 :   0.1333 0.2000-0.0000  plane waves:   12449
 k-point 42 :   0.2000 0.2000 0.0000  plane waves:   12452
 k-point 43 :   0.2667 0.2000 0.0000  plane waves:   12450
 k-point 44 :   0.3333 0.2000 0.0000  plane waves:   12445
 k-point 45 :   0.4000 0.2000-0.0000  plane waves:   12436
 k-point 46 :   0.4667 0.2000-0.0000  plane waves:   12439
 k-point 47 :  -0.4667 0.2000-0.0000  plane waves:   12438
 k-point 48 :  -0.4000 0.2000 0.0000  plane waves:   12420
 k-point 49 :  -0.3333 0.2000-0.0000  plane waves:   12431
 k-point 50 :  -0.2667 0.2000-0.0000  plane waves:   12408
 k-point 51 :  -0.2000 0.2000-0.0000  plane waves:   12436
 k-point 52 :  -0.1333 0.2000 0.0000  plane waves:   12444
 k-point 53 :  -0.0667 0.2000-0.0000  plane waves:   12446
 k-point 54 :  -0.0000 0.2667-0.0000  plane waves:   12444
 k-point 55 :   0.0667 0.2667-0.0000  plane waves:   12442
 k-point 56 :   0.1333 0.2667-0.0000  plane waves:   12444
 k-point 57 :   0.2000 0.2667 0.0000  plane waves:   12444
 k-point 58 :   0.2667 0.2667 0.0000  plane waves:   12420
 k-point 59 :   0.3333 0.2667 0.0000  plane waves:   12434
 k-point 60 :   0.4000 0.2667 0.0000  plane waves:   12435
 k-point 61 :   0.4667 0.2667 0.0000  plane waves:   12442
 k-point 62 :  -0.4667 0.2667-0.0000  plane waves:   12422
 k-point 63 :  -0.4000 0.2667 0.0000  plane waves:   12425
 k-point 64 :  -0.3333 0.2667-0.0000  plane waves:   12426
 k-point 65 :  -0.2667 0.2667 0.0000  plane waves:   12425
 k-point 66 :  -0.2000 0.2667-0.0000  plane waves:   12438
 k-point 67 :  -0.1333 0.2667-0.0000  plane waves:   12431
 k-point 68 :  -0.0667 0.2667-0.0000  plane waves:   12428
 k-point 69 :  -0.0000 0.3333-0.0000  plane waves:   12412
 k-point 70 :   0.0667 0.3333-0.0000  plane waves:   12406
 k-point 71 :   0.1333 0.3333 0.0000  plane waves:   12421
 k-point 72 :   0.2000 0.3333-0.0000  plane waves:   12436
 k-point 73 :   0.2667 0.3333 0.0000  plane waves:   12433
 k-point 74 :   0.3333 0.3333 0.0000  plane waves:   12425
 k-point 75 :   0.4000 0.3333 0.0000  plane waves:   12428
 k-point 76 :   0.4667 0.3333 0.0000  plane waves:   12426
 k-point 77 :  -0.4667 0.3333 0.0000  plane waves:   12416
 k-point 78 :  -0.4000 0.3333 0.0000  plane waves:   12421
 k-point 79 :  -0.3333 0.3333-0.0000  plane waves:   12418
 k-point 80 :  -0.2667 0.3333 0.0000  plane waves:   12410
 k-point 81 :  -0.2000 0.3333-0.0000  plane waves:   12417
 k-point 82 :  -0.1333 0.3333-0.0000  plane waves:   12422
 k-point 83 :  -0.0667 0.3333 0.0000  plane waves:   12419
 k-point 84 :  -0.0000 0.4000 0.0000  plane waves:   12396
 k-point 85 :   0.0667 0.4000 0.0000  plane waves:   12396
 k-point 86 :   0.1333 0.4000 0.0000  plane waves:   12401
 k-point 87 :   0.2000 0.4000 0.0000  plane waves:   12415
 k-point 88 :   0.2667 0.4000 0.0000  plane waves:   12428
 k-point 89 :   0.3333 0.4000 0.0000  plane waves:   12419
 k-point 90 :   0.4000 0.4000 0.0000  plane waves:   12404
 k-point 91 :   0.4667 0.4000 0.0000  plane waves:   12407
 k-point 92 :  -0.4667 0.4000-0.0000  plane waves:   12425
 k-point 93 :  -0.4000 0.4000-0.0000  plane waves:   12420
 k-point 94 :  -0.3333 0.4000-0.0000  plane waves:   12399
 k-point 95 :  -0.2667 0.4000 0.0000  plane waves:   12398
 k-point 96 :  -0.2000 0.4000 0.0000  plane waves:   12401
 k-point 97 :  -0.1333 0.4000-0.0000  plane waves:   12406
 k-point 98 :  -0.0667 0.4000 0.0000  plane waves:   12411
 k-point 99 :  -0.0000 0.4667 0.0000  plane waves:   12402
 k-point ** :   0.0667 0.4667 0.0000  plane waves:   12404
 k-point ** :   0.1333 0.4667-0.0000  plane waves:   12404
 k-point ** :   0.2000 0.4667-0.0000  plane waves:   12392
 k-point ** :   0.2667 0.4667 0.0000  plane waves:   12404
 k-point ** :   0.3333 0.4667 0.0000  plane waves:   12392
 k-point ** :   0.4000 0.4667 0.0000  plane waves:   12396
 k-point ** :   0.4667 0.4667 0.0000  plane waves:   12400
 k-point ** :  -0.4667 0.4667-0.0000  plane waves:   12413
 k-point ** :  -0.4000 0.4667 0.0000  plane waves:   12407
 k-point ** :  -0.3333 0.4667-0.0000  plane waves:   12411
 k-point ** :  -0.2667 0.4667 0.0000  plane waves:   12394
 k-point ** :  -0.2000 0.4667 0.0000  plane waves:   12398
 k-point ** :  -0.1333 0.4667 0.0000  plane waves:   12400
 k-point ** :  -0.0667 0.4667 0.0000  plane waves:   12400

 maximum and minimum number of plane-waves per node :       544      500

 maximum number of plane-waves:     12487
 maximum index in each direction: 
   IXMAX=    9   IYMAX=    8   IZMAX=   39
   IXMIN=   -9   IYMIN=   -9   IZMIN=  -39


 parallel 3D FFT for wavefunctions:
    minimum data exchange during FFTs selected (reduces bandwidth)
 parallel 3D FFT for charge:
    minimum data exchange during FFTs selected (reduces bandwidth)


 total amount of memory used by VASP MPI-rank0    62975. kBytes
=======================================================================

   base      :      30000. kBytes
   nonl-proj :      12349. kBytes
   fftplans  :       2677. kBytes
   grid      :       4349. kBytes
   one-center:          8. kBytes
   wavefun   :      13592. kBytes
 
     INWAV:  cpu time    0.0000: real time    0.0000
 Broyden mixing: mesh for mixing (old mesh)
   NGX = 17   NGY = 17   NGZ = 79
  (NGX  = 72   NGY  = 72   NGZ  =320)
  gives a total of  22831 points

 initial charge density was supplied:
 charge density of overlapping atoms calculated
 number of electron      20.0000000 magnetization 
 keeping initial charge density in first step


--------------------------------------------------------------------------------------------------------


 Maximum index for augmentation-charges         2246 (set IRDMAX)


--------------------------------------------------------------------------------------------------------


 First call to EWALD:  gamma=   0.246
 Maximum number of real-space cells 4x 4x 1
 Maximum number of reciprocal cells 2x 2x 7

    FEWALD:  cpu time    0.0013: real time    0.0022


--------------------------------------- Iteration      1(   1)  ---------------------------------------


    POTLOK:  cpu time    0.0516: real time    0.2739
    SETDIJ:  cpu time    0.0089: real time    0.0092
     EDDAV:  cpu time    2.3442: real time    2.3524
       DOS:  cpu time    0.0052: real time    0.0053
    --------------------------------------------
      LOOP:  cpu time    2.4098: real time    2.6407

 eigenvalue-minimisations  :  3164
 total energy-change (2. order) : 0.1435827E+03  (-0.6303529E+03)
 number of electron      20.0000000 magnetization 
 augmentation part       20.0000000 magnetization 

 Free energy of the ion-electron system (eV)
  ---------------------------------------------------
  alpha Z        PSCENC =         9.60094709
  Ewald energy   TEWEN  =      1131.93860696
  -Hartree energ DENC   =     -1734.05863255
  -exchange      EXHF   =         0.00000000
  -V(xc)+E(xc)   XCENC  =      -238.54313859
  PAW double counting   =       799.43158084     -524.17639913
  entropy T*S    EENTRO =        -0.01245207
  eigenvalues    EBANDS =        -3.02573277
  atomic energy  EATOM  =       702.42789710
  Solvation  Ediel_sol  =         0.00000000
  ---------------------------------------------------
  free energy    TOTEN  =       143.58267688 eV

  energy without entropy =      143.59512896  energy(sigma->0) =      143.58890292


--------------------------------------------------------------------------------------------------------




--------------------------------------- Iteration      1(   2)  ---------------------------------------


     EDDAV:  cpu time    3.5369: real time    3.5438
       DOS:  cpu time    0.0055: real time    0.0055
    --------------------------------------------
      LOOP:  cpu time    3.5424: real time    3.5492

 eigenvalue-minimisations  :  5182
 total energy-change (2. order) :-0.1390272E+03  (-0.1342827E+03)
 number of electron      20.0000000 magnetization 
 augmentation part       20.0000000 magnetization 

 Free energy of the ion-electron system (eV)
  ---------------------------------------------------
  alpha Z        PSCENC =         9.60094709
  Ewald energy   TEWEN  =      1131.93860696
  -Hartree energ DENC   =     -1734.05863255
  -exchange      EXHF   =         0.00000000
  -V(xc)+E(xc)   XCENC  =      -238.54313859
  PAW double counting   =       799.43158084     -524.17639913
  entropy T*S    EENTRO =        -0.00258410
  eigenvalues    EBANDS =      -142.06281863
  atomic energy  EATOM  =       702.42789710
  Solvation  Ediel_sol  =         0.00000000
  ---------------------------------------------------
  free energy    TOTEN  =         4.55545899 eV

  energy without entropy =        4.55804309  energy(sigma->0) =        4.55675104


--------------------------------------------------------------------------------------------------------




--------------------------------------- Iteration      1(   3)  ---------------------------------------


     EDDAV:  cpu time    2.7973: real time    2.8027
       DOS:  cpu time    0.0035: real time    0.0035
    --------------------------------------------
      LOOP:  cpu time    2.8007: real time    2.8062

 eigenvalue-minimisations  :  4046
 total energy-change (2. order) :-0.2053520E+02  (-0.2029406E+02)
 number of electron      20.0000000 magnetization 
 augmentation part       20.0000000 magnetization 

 Free energy of the ion-electron system (eV)
  ---------------------------------------------------
  alpha Z        PSCENC =         9.60094709
  Ewald energy   TEWEN  =      1131.93860696
  -Hartree energ DENC   =     -1734.05863255
  -exchange      EXHF   =         0.00000000
  -V(xc)+E(xc)   XCENC  =      -238.54313859
  PAW double counting   =       799.43158084     -524.17639913
  entropy T*S    EENTRO =        -0.00000000
  eigenvalues    EBANDS =      -162.60060693
  atomic energy  EATOM  =       702.42789710
  Solvation  Ediel_sol  =         0.00000000
  ---------------------------------------------------
  free energy    TOTEN  =       -15.97974521 eV

  energy without entropy =      -15.97974521  energy(sigma->0) =      -15.97974521


--------------------------------------------------------------------------------------------------------




--------------------------------------- Iteration      1(   4)  ---------------------------------------


     EDDAV:  cpu time    2.9055: real time    2.9112
       DOS:  cpu time    0.0035: real time    0.0034
    --------------------------------------------
      LOOP:  cpu time    2.9090: real time    2.9146

 eigenvalue-minimisations  :  4494
 total energy-change (2. order) :-0.7821836E+00  (-0.7798245E+00)
 number of electron      20.0000000 magnetization 
 augmentation part       20.0000000 magnetization 

 Free energy of the ion-electron system (eV)
  ---------------------------------------------------
  alpha Z        PSCENC =         9.60094709
  Ewald energy   TEWEN  =      1131.93860696
  -Hartree energ DENC   =     -1734.05863255
  -exchange      EXHF   =         0.00000000
  -V(xc)+E(xc)   XCENC  =      -238.54313859
  PAW double counting   =       799.43158084     -524.17639913
  entropy T*S    EENTRO =        -0.00000000
  eigenvalues    EBANDS =      -163.38279050
  atomic energy  EATOM  =       702.42789710
  Solvation  Ediel_sol  =         0.00000000
  ---------------------------------------------------
  free energy    TOTEN  =       -16.76192878 eV

  energy without entropy =      -16.76192878  energy(sigma->0) =      -16.76192878


--------------------------------------------------------------------------------------------------------




--------------------------------------- Iteration      1(   5)  ---------------------------------------


     EDDAV:  cpu time    2.7591: real time    2.7642
       DOS:  cpu time    0.0036: real time    0.0036
    CHARGE:  cpu time    0.1930: real time    0.1934
    MIXING:  cpu time    0.0015: real time    0.0015
    --------------------------------------------
      LOOP:  cpu time    2.9572: real time    2.9627

 eigenvalue-minimisations  :  4154
 total energy-change (2. order) :-0.1804937E-01  (-0.1803508E-01)
 number of electron      20.0000000 magnetization 
 augmentation part       -4.5250692 magnetization 

 Broyden mixing:
  rms(total) = 0.45748E+00    rms(broyden)= 0.45748E+00
  rms(prec ) = 0.49742E+00
  weight for this iteration     100.00

 Free energy of the ion-electron system (eV)
  ---------------------------------------------------
  alpha Z        PSCENC =         9.60094709
  Ewald energy   TEWEN  =      1131.93860696
  -Hartree energ DENC   =     -1734.05863255
  -exchange      EXHF   =         0.00000000
  -V(xc)+E(xc)   XCENC  =      -238.54313859
  PAW double counting   =       799.43158084     -524.17639913
  entropy T*S    EENTRO =        -0.00000000
  eigenvalues    EBANDS =      -163.40083987
  atomic energy  EATOM  =       702.42789710
  Solvation  Ediel_sol  =         0.00000000
  ---------------------------------------------------
  free energy    TOTEN  =       -16.77997814 eV

  energy without entropy =      -16.77997814  energy(sigma->0) =      -16.77997814


--------------------------------------------------------------------------------------------------------




--------------------------------------- Iteration      1(   6)  ---------------------------------------


    POTLOK:  cpu time    0.0368: real time    0.0369
    SETDIJ:  cpu time    0.0033: real time    0.0033
     EDDAV:  cpu time    2.6083: real time    2.6131
       DOS:  cpu time    0.0036: real time    0.0036
    CHARGE:  cpu time    0.1900: real time    0.1904
    MIXING:  cpu time    0.0013: real time    0.0013
    --------------------------------------------
      LOOP:  cpu time    2.8432: real time    2.8486

 eigenvalue-minimisations  :  3978
 total energy-change (2. order) : 0.4797813E+00  (-0.1198321E+00)
 number of electron      20.0000000 magnetization 
 augmentation part       -4.4929203 magnetization 

 Broyden mixing:
  rms(total) = 0.28196E+00    rms(broyden)= 0.28196E+00
  rms(prec ) = 0.29112E+00
  weight for this iteration     100.00

 eigenvalues of (default mixing * dielectric matrix)
  average eigenvalue GAMMA=   1.8414
  1.8414

 Free energy of the ion-electron system (eV)
  ---------------------------------------------------
  alpha Z        PSCENC =         9.60094709
  Ewald energy   TEWEN  =      1131.93860696
  -Hartree energ DENC   =     -1741.84033004
  -exchange      EXHF   =         0.00000000
  -V(xc)+E(xc)   XCENC  =      -238.05976116
  PAW double counting   =       926.94509428     -651.87928740
  entropy T*S    EENTRO =        -0.00000000
  eigenvalues    EBANDS =      -155.43336371
  atomic energy  EATOM  =       702.42789710
  Solvation  Ediel_sol  =         0.00000000
  ---------------------------------------------------
  free energy    TOTEN  =       -16.30019688 eV

  energy without entropy =      -16.30019688  energy(sigma->0) =      -16.30019688


--------------------------------------------------------------------------------------------------------




--------------------------------------- Iteration      1(   7)  ---------------------------------------


    POTLOK:  cpu time    0.0464: real time    0.0466
    SETDIJ:  cpu time    0.0032: real time    0.0032
     EDDAV:  cpu time    2.7194: real time    2.7247
       DOS:  cpu time    0.0036: real time    0.0036
    CHARGE:  cpu time    0.1999: real time    0.2003
    MIXING:  cpu time    0.0012: real time    0.0013
    --------------------------------------------
      LOOP:  cpu time    2.9738: real time    2.9797

 eigenvalue-minimisations  :  4092
 total energy-change (2. order) : 0.2846689E-01  (-0.3188820E-01)
 number of electron      20.0000000 magnetization 
 augmentation part       -4.4835995 magnetization 

 Broyden mixing:
  rms(total) = 0.10331E+00    rms(broyden)= 0.10331E+00
  rms(prec ) = 0.10878E+00
  weight for this iteration     100.00

 eigenvalues of (default mixing * dielectric matrix)
  average eigenvalue GAMMA=   1.7306
  1.3776  2.0836

 Free energy of the ion-electron system (eV)
  ---------------------------------------------------
  alpha Z        PSCENC =         9.60094709
  Ewald energy   TEWEN  =      1131.93860696
  -Hartree energ DENC   =     -1746.95225302
  -exchange      EXHF   =         0.00000000
  -V(xc)+E(xc)   XCENC  =      -237.72323476
  PAW double counting   =      1074.31422906     -799.39822589
  entropy T*S    EENTRO =        -0.00000000
  eigenvalues    EBANDS =      -150.47969654
  atomic energy  EATOM  =       702.42789710
  Solvation  Ediel_sol  =         0.00000000
  ---------------------------------------------------
  free energy    TOTEN  =       -16.27173000 eV

  energy without entropy =      -16.27173000  energy(sigma->0) =      -16.27173000


--------------------------------------------------------------------------------------------------------




--------------------------------------- Iteration      1(   8)  ---------------------------------------


    POTLOK:  cpu time    0.0365: real time    0.0366
    SETDIJ:  cpu time    0.0032: real time    0.0032
     EDDAV:  cpu time    2.8212: real time    2.8270
       DOS:  cpu time    0.0037: real time    0.0037
    CHARGE:  cpu time    0.1998: real time    0.2001
    MIXING:  cpu time    0.0013: real time    0.0013
    --------------------------------------------
      LOOP:  cpu time    3.0656: real time    3.0718

 eigenvalue-minimisations  :  4396
 total energy-change (2. order) : 0.9649120E-02  (-0.3971391E-02)
 number of electron      20.0000000 magnetization 
 augmentation part       -4.4878829 magnetization 

 Broyden mixing:
  rms(total) = 0.20902E-01    rms(broyden)= 0.20902E-01
  rms(prec ) = 0.28184E-01
  weight for this iteration     100.00

 eigenvalues of (default mixing * dielectric matrix)
  average eigenvalue GAMMA=   1.7221
  2.5543  1.3061  1.3061

 Free energy of the ion-electron system (eV)
  ---------------------------------------------------
  alpha Z        PSCENC =         9.60094709
  Ewald energy   TEWEN  =      1131.93860696
  -Hartree energ DENC   =     -1748.53843620
  -exchange      EXHF   =         0.00000000
  -V(xc)+E(xc)   XCENC  =      -237.64801172
  PAW double counting   =      1139.01488451     -864.13804549
  entropy T*S    EENTRO =        -0.00000000
  eigenvalues    EBANDS =      -148.91992312
  atomic energy  EATOM  =       702.42789710
  Solvation  Ediel_sol  =         0.00000000
  ---------------------------------------------------
  free energy    TOTEN  =       -16.26208088 eV

  energy without entropy =      -16.26208088  energy(sigma->0) =      -16.26208088


--------------------------------------------------------------------------------------------------------




--------------------------------------- Iteration      1(   9)  ---------------------------------------


    POTLOK:  cpu time    0.0382: real time    0.0384
    SETDIJ:  cpu time    0.0034: real time    0.0034
     EDDAV:  cpu time    2.9817: real time    2.9874
       DOS:  cpu time    0.0037: real time    0.0037
    CHARGE:  cpu time    0.1991: real time    0.1994
    MIXING:  cpu time    0.0013: real time    0.0013
    --------------------------------------------
      LOOP:  cpu time    3.2272: real time    3.2335

 eigenvalue-minimisations  :  4304
 total energy-change (2. order) : 0.3695705E-02  (-0.6776173E-03)
 number of electron      20.0000000 magnetization 
 augmentation part       -4.4859583 magnetization 

 Broyden mixing:
  rms(total) = 0.10231E-01    rms(broyden)= 0.10231E-01
  rms(prec ) = 0.15620E-01
  weight for this iteration     100.00

 eigenvalues of (default mixing * dielectric matrix)
  average eigenvalue GAMMA=   1.6976
  2.2020  2.2020  1.1931  1.1931

 Free energy of the ion-electron system (eV)
  ---------------------------------------------------
  alpha Z        PSCENC =         9.60094709
  Ewald energy   TEWEN  =      1131.93860696
  -Hartree energ DENC   =     -1750.54441586
  -exchange      EXHF   =         0.00000000
  -V(xc)+E(xc)   XCENC  =      -237.57204943
  PAW double counting   =      1158.79687691     -883.93352421
  entropy T*S    EENTRO =        -0.00000000
  eigenvalues    EBANDS =      -146.97272373
  atomic energy  EATOM  =       702.42789710
  Solvation  Ediel_sol  =         0.00000000
  ---------------------------------------------------
  free energy    TOTEN  =       -16.25838517 eV

  energy without entropy =      -16.25838517  energy(sigma->0) =      -16.25838517


--------------------------------------------------------------------------------------------------------




--------------------------------------- Iteration      1(  10)  ---------------------------------------


    POTLOK:  cpu time    0.0387: real time    0.0388
    SETDIJ:  cpu time    0.0034: real time    0.0034
     EDDAV:  cpu time    2.9479: real time    2.9537
       DOS:  cpu time    0.0037: real time    0.0037
    CHARGE:  cpu time    0.1900: real time    0.1904
    MIXING:  cpu time    0.0014: real time    0.0014
    --------------------------------------------
      LOOP:  cpu time    3.1851: real time    3.1913

 eigenvalue-minimisations  :  4376
 total energy-change (2. order) : 0.1167557E-02  (-0.1158916E-03)
 number of electron      20.0000000 magnetization 
 augmentation part       -4.4847548 magnetization 

 Broyden mixing:
  rms(total) = 0.55221E-02    rms(broyden)= 0.55221E-02
  rms(prec ) = 0.95731E-02
  weight for this iteration     100.00

 eigenvalues of (default mixing * dielectric matrix)
  average eigenvalue GAMMA=   1.8791
  3.3885  2.6062  1.2485  1.2485  0.9036

 Free energy of the ion-electron system (eV)
  ---------------------------------------------------
  alpha Z        PSCENC =         9.60094709
  Ewald energy   TEWEN  =      1131.93860696
  -Hartree energ DENC   =     -1751.75216447
  -exchange      EXHF   =         0.00000000
  -V(xc)+E(xc)   XCENC  =      -237.56346934
  PAW double counting   =      1147.23098810     -872.35639728
  entropy T*S    EENTRO =        -0.00000000
  eigenvalues    EBANDS =      -145.78362577
  atomic energy  EATOM  =       702.42789710
  Solvation  Ediel_sol  =         0.00000000
  ---------------------------------------------------
  free energy    TOTEN  =       -16.25721761 eV

  energy without entropy =      -16.25721761  energy(sigma->0) =      -16.25721761


--------------------------------------------------------------------------------------------------------




--------------------------------------- Iteration      1(  11)  ---------------------------------------


    POTLOK:  cpu time    0.0368: real time    0.0370
    SETDIJ:  cpu time    0.0032: real time    0.0032
     EDDAV:  cpu time    2.7704: real time    2.7743
       DOS:  cpu time    0.0036: real time    0.0037
    CHARGE:  cpu time    0.1908: real time    0.1911
    MIXING:  cpu time    0.0015: real time    0.0015
    --------------------------------------------
      LOOP:  cpu time    3.0064: real time    3.0107

 eigenvalue-minimisations  :  4316
 total energy-change (2. order) : 0.7294652E-03  (-0.1270447E-03)
 number of electron      20.0000000 magnetization 
 augmentation part       -4.4833543 magnetization 

 Broyden mixing:
  rms(total) = 0.33843E-02    rms(broyden)= 0.33843E-02
  rms(prec ) = 0.50244E-02
  weight for this iteration     100.00

 eigenvalues of (default mixing * dielectric matrix)
  average eigenvalue GAMMA=   1.8229
  3.3759  2.2803  2.0154  1.1971  1.1971  0.8715

 Free energy of the ion-electron system (eV)
  ---------------------------------------------------
  alpha Z        PSCENC =         9.60094709
  Ewald energy   TEWEN  =      1131.93860696
  -Hartree energ DENC   =     -1753.35578285
  -exchange      EXHF   =         0.00000000
  -V(xc)+E(xc)   XCENC  =      -237.53126069
  PAW double counting   =      1148.96494469     -874.08961118
  entropy T*S    EENTRO =        -0.00000000
  eigenvalues    EBANDS =      -144.21222926
  atomic energy  EATOM  =       702.42789710
  Solvation  Ediel_sol  =         0.00000000
  ---------------------------------------------------
  free energy    TOTEN  =       -16.25648815 eV

  energy without entropy =      -16.25648815  energy(sigma->0) =      -16.25648815


--------------------------------------------------------------------------------------------------------




--------------------------------------- Iteration      1(  12)  ---------------------------------------


    POTLOK:  cpu time    0.0371: real time    0.0372
    SETDIJ:  cpu time    0.0032: real time    0.0032
     EDDAV:  cpu time    2.5566: real time    2.5615
       DOS:  cpu time    0.0037: real time    0.0037
    CHARGE:  cpu time    0.1973: real time    0.1976
    MIXING:  cpu time    0.0015: real time    0.0015
    --------------------------------------------
      LOOP:  cpu time    2.7994: real time    2.8047

 eigenvalue-minimisations  :  3622
 total energy-change (2. order) :-0.7439773E-03  (-0.2862134E-04)
 number of electron      20.0000000 magnetization 
 augmentation part       -4.4827725 magnetization 

 Broyden mixing:
  rms(total) = 0.18858E-02    rms(broyden)= 0.18858E-02
  rms(prec ) = 0.29219E-02
  weight for this iteration     100.00

 eigenvalues of (default mixing * dielectric matrix)
  average eigenvalue GAMMA=   2.0606
  4.5571  3.0660  2.5013  1.2149  1.2149  1.0325  0.8375

 Free energy of the ion-electron system (eV)
  ---------------------------------------------------
  alpha Z        PSCENC =         9.60094709
  Ewald energy   TEWEN  =      1131.93860696
  -Hartree energ DENC   =     -1753.91847559
  -exchange      EXHF   =         0.00000000
  -V(xc)+E(xc)   XCENC  =      -237.52209172
  PAW double counting   =      1151.15120986     -876.27901251
  entropy T*S    EENTRO =        -0.00000000
  eigenvalues    EBANDS =      -143.65631331
  atomic energy  EATOM  =       702.42789710
  Solvation  Ediel_sol  =         0.00000000
  ---------------------------------------------------
  free energy    TOTEN  =       -16.25723213 eV

  energy without entropy =      -16.25723213  energy(sigma->0) =      -16.25723213


--------------------------------------------------------------------------------------------------------




--------------------------------------- Iteration      1(  13)  ---------------------------------------


    POTLOK:  cpu time    0.0387: real time    0.0391
    SETDIJ:  cpu time    0.0034: real time    0.0034
     EDDAV:  cpu time    2.6131: real time    2.6191
       DOS:  cpu time    0.0037: real time    0.0037
    CHARGE:  cpu time    0.1971: real time    0.1974
    MIXING:  cpu time    0.0016: real time    0.0016
    --------------------------------------------
      LOOP:  cpu time    2.8576: real time    2.8643

 eigenvalue-minimisations  :  3722
 total energy-change (2. order) :-0.4479981E-03  (-0.8552409E-05)
 number of electron      20.0000000 magnetization 
 augmentation part       -4.4825437 magnetization 

 Broyden mixing:
  rms(total) = 0.11974E-02    rms(broyden)= 0.11974E-02
  rms(prec ) = 0.15744E-02
  weight for this iteration     100.00

 eigenvalues of (default mixing * dielectric matrix)
  average eigenvalue GAMMA=   2.1832
  5.3629  3.3091  2.4939  2.0096  1.1608  1.1608  1.0607  0.9081

 Free energy of the ion-electron system (eV)
  ---------------------------------------------------
  alpha Z        PSCENC =         9.60094709
  Ewald energy   TEWEN  =      1131.93860696
  -Hartree energ DENC   =     -1754.36229895
  -exchange      EXHF   =         0.00000000
  -V(xc)+E(xc)   XCENC  =      -237.52055010
  PAW double counting   =      1149.86899528     -874.99550043
  entropy T*S    EENTRO =        -0.00000000
  eigenvalues    EBANDS =      -143.21577707
  atomic energy  EATOM  =       702.42789710
  Solvation  Ediel_sol  =         0.00000000
  ---------------------------------------------------
  free energy    TOTEN  =       -16.25768012 eV

  energy without entropy =      -16.25768012  energy(sigma->0) =      -16.25768012


--------------------------------------------------------------------------------------------------------




--------------------------------------- Iteration      1(  14)  ---------------------------------------


    POTLOK:  cpu time    0.0396: real time    0.0401
    SETDIJ:  cpu time    0.0033: real time    0.0033
     EDDAV:  cpu time    2.7124: real time    2.7180
       DOS:  cpu time    0.0036: real time    0.0036
    CHARGE:  cpu time    0.2035: real time    0.2038
    MIXING:  cpu time    0.0017: real time    0.0017
    --------------------------------------------
      LOOP:  cpu time    2.9640: real time    2.9705

 eigenvalue-minimisations  :  3914
 total energy-change (2. order) :-0.2329439E-03  (-0.3831347E-05)
 number of electron      20.0000000 magnetization 
 augmentation part       -4.4825126 magnetization 

 Broyden mixing:
  rms(total) = 0.36656E-03    rms(broyden)= 0.36656E-03
  rms(prec ) = 0.62547E-03
  weight for this iteration     100.00

 eigenvalues of (default mixing * dielectric matrix)
  average eigenvalue GAMMA=   2.2256
  6.6536  3.0773  2.4957  2.4957  1.1871  1.1871  1.0847  0.9248  0.9248

 Free energy of the ion-electron system (eV)
  ---------------------------------------------------
  alpha Z        PSCENC =         9.60094709
  Ewald energy   TEWEN  =      1131.93860696
  -Hartree energ DENC   =     -1754.56378038
  -exchange      EXHF   =         0.00000000
  -V(xc)+E(xc)   XCENC  =      -237.52032416
  PAW double counting   =      1150.18632385     -875.31231396
  entropy T*S    EENTRO =        -0.00000000
  eigenvalues    EBANDS =      -143.01526956
  atomic energy  EATOM  =       702.42789710
  Solvation  Ediel_sol  =         0.00000000
  ---------------------------------------------------
  free energy    TOTEN  =       -16.25791307 eV

  energy without entropy =      -16.25791307  energy(sigma->0) =      -16.25791307


--------------------------------------------------------------------------------------------------------




--------------------------------------- Iteration      1(  15)  ---------------------------------------


    POTLOK:  cpu time    0.0382: real time    0.0386
    SETDIJ:  cpu time    0.0032: real time    0.0032
     EDDAV:  cpu time    2.5517: real time    2.5565
       DOS:  cpu time    0.0037: real time    0.0036
    CHARGE:  cpu time    0.1901: real time    0.1905
    MIXING:  cpu time    0.0016: real time    0.0016
    --------------------------------------------
      LOOP:  cpu time    2.7885: real time    2.7940

 eigenvalue-minimisations  :  3810
 total energy-change (2. order) :-0.6045293E-04  (-0.2017005E-06)
 number of electron      20.0000000 magnetization 
 augmentation part       -4.4825306 magnetization 

 Broyden mixing:
  rms(total) = 0.32948E-03    rms(broyden)= 0.32948E-03
  rms(prec ) = 0.51900E-03
  weight for this iteration     100.00

 eigenvalues of (default mixing * dielectric matrix)
  average eigenvalue GAMMA=   2.3229
  6.4251  4.1199  2.6930  2.6930  1.9168  1.1465  1.1465  1.2224  0.9328  0.9328

 Free energy of the ion-electron system (eV)
  ---------------------------------------------------
  alpha Z        PSCENC =         9.60094709
  Ewald energy   TEWEN  =      1131.93860696
  -Hartree energ DENC   =     -1754.58908622
  -exchange      EXHF   =         0.00000000
  -V(xc)+E(xc)   XCENC  =      -237.52062136
  PAW double counting   =      1150.04767046     -875.17351563
  entropy T*S    EENTRO =        -0.00000000
  eigenvalues    EBANDS =      -142.98987192
  atomic energy  EATOM  =       702.42789710
  Solvation  Ediel_sol  =         0.00000000
  ---------------------------------------------------
  free energy    TOTEN  =       -16.25797352 eV

  energy without entropy =      -16.25797352  energy(sigma->0) =      -16.25797352


--------------------------------------------------------------------------------------------------------




--------------------------------------- Iteration      1(  16)  ---------------------------------------


    POTLOK:  cpu time    0.0375: real time    0.0378
    SETDIJ:  cpu time    0.0032: real time    0.0032
     EDDAV:  cpu time    2.4679: real time    2.4728
       DOS:  cpu time    0.0037: real time    0.0037
    CHARGE:  cpu time    0.1902: real time    0.1905
    MIXING:  cpu time    0.0017: real time    0.0017
    --------------------------------------------
      LOOP:  cpu time    2.7041: real time    2.7097

 eigenvalue-minimisations  :  3618
 total energy-change (2. order) :-0.4535563E-04  (-0.8194375E-06)
 number of electron      20.0000000 magnetization 
 augmentation part       -4.4825455 magnetization 

 Broyden mixing:
  rms(total) = 0.14959E-03    rms(broyden)= 0.14959E-03
  rms(prec ) = 0.25342E-03
  weight for this iteration     100.00

 eigenvalues of (default mixing * dielectric matrix)
  average eigenvalue GAMMA=   2.2740
  6.7933  4.4096  2.6469  2.6469  2.2456  1.1646  1.1646  1.1852  0.9289  0.9289
  0.8992

 Free energy of the ion-electron system (eV)
  ---------------------------------------------------
  alpha Z        PSCENC =         9.60094709
  Ewald energy   TEWEN  =      1131.93860696
  -Hartree energ DENC   =     -1754.64426891
  -exchange      EXHF   =         0.00000000
  -V(xc)+E(xc)   XCENC  =      -237.52080486
  PAW double counting   =      1149.84934146     -874.97512386
  entropy T*S    EENTRO =        -0.00000000
  eigenvalues    EBANDS =      -142.93461386
  atomic energy  EATOM  =       702.42789710
  Solvation  Ediel_sol  =         0.00000000
  ---------------------------------------------------
  free energy    TOTEN  =       -16.25801888 eV

  energy without entropy =      -16.25801888  energy(sigma->0) =      -16.25801888


--------------------------------------------------------------------------------------------------------




--------------------------------------- Iteration      1(  17)  ---------------------------------------


    POTLOK:  cpu time    0.0366: real time    0.0370
    SETDIJ:  cpu time    0.0032: real time    0.0032
     EDDAV:  cpu time    2.3279: real time    2.3324
       DOS:  cpu time    0.0036: real time    0.0036
    CHARGE:  cpu time    0.1901: real time    0.1905
    MIXING:  cpu time    0.0017: real time    0.0017
    --------------------------------------------
[...]
  band No.  band energies     occupation 
      1     -14.5448      2.00000
      2     -14.2767      2.00000
      3      -8.7902      2.00000
      4      -8.5810      2.00000
      5      -6.0608      2.00000
      6      -5.1112      2.00000
      7      -4.7822      2.00000
      8      -4.0958      2.00000
      9      -3.8863      2.00000
     10      -3.0679      2.00000
     11       0.1341      0.00000
     12       1.0884      0.00000
     13       1.1974      0.00000
     14       1.5985      0.00000

 k-point    96 :      -0.2000    0.4000    0.0000
  band No.  band energies     occupation 
      1     -14.6125      2.00000
      2     -14.3009      2.00000
      3      -8.9592      2.00000
      4      -8.6819      2.00000
      5      -5.6145      2.00000
      6      -4.8282      2.00000
      7      -4.5240      2.00000
      8      -3.9517      2.00000
      9      -3.5096      2.00000
     10      -2.7195      2.00000
     11      -0.3366      0.00000
     12       0.5852      0.00000
     13       0.7291      0.00000
     14       1.2541      0.00000

 k-point    97 :      -0.1333    0.4000   -0.0000
  band No.  band energies     occupation 
      1     -14.6661      2.00000
      2     -14.3251      2.00000
      3      -9.0909      2.00000
      4      -8.7672      2.00000
      5      -5.0894      2.00000
      6      -4.7544      2.00000
      7      -4.1334      2.00000
      8      -3.9042      2.00000
      9      -2.9371      2.00000
     10      -2.5049      2.00000
     11      -0.6137      0.00000
     12      -0.1440      0.00000
     13       0.5108      0.00000
     14       0.8334      0.00000

 k-point    98 :      -0.0667    0.4000    0.0000
  band No.  band energies     occupation 
      1     -14.6997      2.00000
      2     -14.3429      2.00000
      3      -9.1749      2.00000
      4      -8.8246      2.00000
      5      -4.7554      2.00000
      6      -4.5498      2.00000
      7      -3.9332      2.00000
      8      -3.7292      2.00000
      9      -2.6572      2.00000
     10      -2.3588      2.00000
     11      -0.7396      0.00000
     12      -0.3815      0.00000
     13       0.2737      0.00000
     14       0.3935      0.00000

 k-point    99 :      -0.0000    0.4667    0.0000
  band No.  band energies     occupation 
      1     -14.5657      2.00000
      2     -14.4421      2.00000
      3      -9.1907      2.00000
      4      -9.0672      2.00000
      5      -4.5141      2.00000
      6      -4.2956      2.00000
      7      -3.8383      2.00000
      8      -3.6450      2.00000
      9      -2.5411      2.00000
     10      -2.2003      2.00000
     11      -0.8778      0.00000
     12      -0.4416      0.00000
     13      -0.0466      0.00000
     14       0.1522      0.00000

 k-point   100 :       0.0667    0.4667    0.0000
  band No.  band energies     occupation 
      1     -14.5534      2.00000
      2     -14.4361      2.00000
      3      -9.1646      2.00000
      4      -9.0434      2.00000
      5      -4.5218      2.00000
      6      -4.4262      2.00000
      7      -3.9861      2.00000
      8      -3.8441      2.00000
      9      -2.4221      2.00000
     10      -2.3746      2.00000
     11      -0.7863      0.00000
     12      -0.6671      0.00000
     13       0.3176      0.00000
     14       0.5987      0.00000

 k-point   101 :       0.1333    0.4667   -0.0000
  band No.  band energies     occupation 
      1     -14.5221      2.00000
      2     -14.4156      2.00000
      3      -9.0847      2.00000
      4      -8.9706      2.00000
      5      -4.8421      2.00000
      6      -4.6178      2.00000
      7      -4.2289      2.00000
      8      -4.0944      2.00000
      9      -2.8299      2.00000
     10      -2.5819      2.00000
     11      -0.5222      0.00000
     12      -0.3148      0.00000
     13       0.8154      0.00000
     14       0.9122      0.00000

 k-point   102 :       0.2000    0.4667   -0.0000
  band No.  band energies     occupation 
      1     -14.4757      2.00000
      2     -14.3844      2.00000
      3      -8.9552      2.00000
      4      -8.8527      2.00000
      5      -5.3467      2.00000
      6      -4.9923      2.00000
      7      -4.4320      2.00000
      8      -4.1640      2.00000
      9      -3.3243      2.00000
     10      -3.0264      2.00000
     11       0.0106      0.00000
     12       0.3307      0.00000
     13       1.0416      0.00000
     14       1.2491      0.00000

 k-point   103 :       0.2667    0.4667    0.0000
  band No.  band energies     occupation 
      1     -14.4203      2.00000
      2     -14.3484      2.00000
      3      -8.7852      2.00000
      4      -8.6977      2.00000
      5      -5.8085      2.00000
      6      -5.4638      2.00000
      7      -4.6329      2.00000
      8      -4.3206      2.00000
      9      -3.6455      2.00000
     10      -3.4208      2.00000
     11       0.5211      0.00000
     12       0.8513      0.00000
     13       1.4531      0.00000
     14       1.6585      0.00000

 k-point   104 :       0.3333    0.4667    0.0000
  band No.  band energies     occupation 
      1     -14.3637      2.00000
      2     -14.3152      2.00000
      3      -8.5922      2.00000
      4      -8.5202      2.00000
      5      -6.1795      2.00000
      6      -5.8991      2.00000
      7      -4.9246      2.00000
      8      -4.6211      2.00000
      9      -3.7468      2.00000
     10      -3.6204      2.00000
     11       0.8574      0.00000
     12       1.1257      0.00000
     13       2.0193      0.00000
     14       2.2254      0.00000

 k-point   105 :       0.4000    0.4667    0.0000
  band No.  band energies     occupation 
      1     -14.3144      2.00000
      2     -14.2925      2.00000
      3      -8.4096      2.00000
      4      -8.3475      2.00000
      5      -6.4263      2.00000
      6      -6.2676      2.00000
      7      -5.1709      2.00000
      8      -4.9534      2.00000
      9      -3.7398      2.00000
     10      -3.6972      2.00000
     11       1.0820      0.00000
     12       1.2703      0.00000
     13       2.5103      0.00000
     14       2.6653      0.00000

 k-point   106 :       0.4667    0.4667    0.0000
  band No.  band energies     occupation 
      1     -14.2868      2.00000
      2     -14.2802      2.00000
      3      -8.2911      2.00000
      4      -8.2282      2.00000
      5      -6.5302      2.00000
      6      -6.5145      2.00000
      7      -5.2738      2.00000
      8      -5.1928      2.00000
      9      -3.7405      2.00000
     10      -3.7021      2.00000
     11       1.2259      0.00000
     12       1.3198      0.00000
     13       2.7382      0.00000
     14       2.7947      0.00000

 k-point   107 :      -0.4667    0.4667   -0.0000
  band No.  band energies     occupation 
      1     -14.3012      2.00000
      2     -14.2661      2.00000
      3      -8.2840      2.00000
      4      -8.2266      2.00000
      5      -6.6186      2.00000
      6      -6.4273      2.00000
      7      -5.2702      2.00000
      8      -5.2064      2.00000
      9      -3.7813      2.00000
     10      -3.6622      2.00000
     11       1.2612      0.00000
     12       1.2832      0.00000
     13       2.6983      0.00000
     14       2.8229      0.00000

 k-point   108 :      -0.4000    0.4667    0.0000
  band No.  band energies     occupation 
      1     -14.3346      2.00000
      2     -14.2731      2.00000
      3      -8.3808      2.00000
      4      -8.3571      2.00000
      5      -6.5000      2.00000
      6      -6.1975      2.00000
      7      -5.1585      2.00000
      8      -4.9880      2.00000
      9      -3.8187      2.00000
     10      -3.6220      2.00000
     11       1.0986      0.00000
     12       1.2513      0.00000
     13       2.4554      0.00000
     14       2.7531      0.00000

 k-point   109 :      -0.3333    0.4667   -0.0000
  band No.  band energies     occupation 
      1     -14.3821      2.00000
      2     -14.2978      2.00000
      3      -8.5571      2.00000
      4      -8.5343      2.00000
      5      -6.2149      2.00000
      6      -5.8725      2.00000
      7      -4.8893      2.00000
      8      -4.6747      2.00000
      9      -3.8235      2.00000
     10      -3.5551      2.00000
     11       0.8510      0.00000
     12       1.1300      0.00000
     13       1.9637      0.00000
     14       2.2947      0.00000

 k-point   110 :      -0.2667    0.4667    0.0000
  band No.  band energies     occupation 
      1     -14.4361      2.00000
      2     -14.3338      2.00000
      3      -8.7635      2.00000
      4      -8.7005      2.00000
      5      -5.8112      2.00000
      6      -5.4757      2.00000
      7      -4.5824      2.00000
      8      -4.3719      2.00000
      9      -3.7073      2.00000
     10      -3.3882      2.00000
     11       0.4933      0.00000
     12       0.8794      0.00000
     13       1.4172      0.00000
     14       1.6986      0.00000

 k-point   111 :      -0.2000    0.4667    0.0000
  band No.  band energies     occupation 
      1     -14.4881      2.00000
      2     -14.3730      2.00000
      3      -8.9423      2.00000
      4      -8.8505      2.00000
      5      -5.3239      2.00000
      6      -5.0324      2.00000
      7      -4.3942      2.00000
      8      -4.1925      2.00000
      9      -3.3446      2.00000
     10      -3.0482      2.00000
     11      -0.0245      0.00000
     12       0.3721      0.00000
     13       1.0240      0.00000
     14       1.2639      0.00000

 k-point   112 :      -0.1333    0.4667    0.0000
  band No.  band energies     occupation 
      1     -14.5307      2.00000
      2     -14.4079      2.00000
      3      -9.0775      2.00000
      4      -8.9673      2.00000
      5      -4.8013      2.00000
      6      -4.6575      2.00000
      7      -4.2198      2.00000
      8      -4.1102      2.00000
      9      -2.8115      2.00000
     10      -2.6480      2.00000
     11      -0.5427      0.00000
     12      -0.2856      0.00000
     13       0.8036      0.00000
     14       0.9051      0.00000

 k-point   113 :      -0.0667    0.4667    0.0000
  band No.  band energies     occupation 
      1     -14.5577      2.00000
      2     -14.4322      2.00000
      3      -9.1614      2.00000
      4      -9.0412      2.00000
      5      -4.5342      2.00000
      6      -4.3914      2.00000
      7      -3.9891      2.00000
      8      -3.8641      2.00000
      9      -2.4919      2.00000
     10      -2.3357      2.00000
     11      -0.7833      0.00000
     12      -0.6800      0.00000
     13       0.3070      0.00000
     14       0.6226      0.00000


--------------------------------------------------------------------------------------------------------


 soft charge-density along one line, spin component           1
         0         1         2         3         4         5         6         7         8         9
 total charge-density along one line
 
 pseudopotential strength for first ion, spin component:           1
 30.074 -23.429  -0.006  -0.089   0.034  -0.009  -0.141   0.053
-23.429  28.113   0.003   0.051  -0.019   0.005   0.082  -0.031
 -0.006   0.003   6.329  -0.000  -0.000   9.792  -0.000  -0.000
 -0.089   0.051  -0.000   6.327   0.002  -0.000   9.788   0.002
  0.034  -0.019  -0.000   0.002   6.329  -0.000   0.002   9.791
 -0.009   0.005   9.792  -0.000  -0.000  15.220  -0.001  -0.000
 -0.141   0.082  -0.000   9.788   0.002  -0.001  15.213   0.004
  0.053  -0.031  -0.000   0.002   9.791  -0.000   0.004  15.218
 -0.000   0.000   0.007  -0.000  -0.001   0.011  -0.000  -0.002
 -0.000   0.000  -0.020  -0.001  -0.000  -0.031  -0.002  -0.000
 -0.003   0.003   0.001  -0.023  -0.004   0.001  -0.035  -0.006
  0.003  -0.002  -0.000   0.008  -0.020  -0.000   0.013  -0.031
 -0.000   0.000   0.001  -0.000   0.008   0.002  -0.000   0.013
 total augmentation occupancy for first ion, spin component:           1
  2.025  -0.015   0.015   0.238  -0.085  -0.003  -0.043   0.016  -0.002  -0.000   0.023   0.002  -0.000
 -0.015   0.009  -0.004  -0.073   0.026   0.001   0.019  -0.006   0.000  -0.000  -0.002   0.001  -0.000
  0.015  -0.004   1.508  -0.001  -0.001  -0.406   0.003   0.000   0.122  -0.044   0.012  -0.000  -0.002
  0.238  -0.073  -0.001   1.840   0.002   0.003  -0.485  -0.015   0.000   0.002  -0.266  -0.020  -0.001
 -0.085   0.026  -0.001   0.002   1.494   0.000  -0.015  -0.396  -0.021  -0.000  -0.079  -0.046  -0.006
 -0.003   0.001  -0.406   0.003   0.000   0.118  -0.001   0.000  -0.032   0.012  -0.003   0.000   0.001
 -0.043   0.019   0.003  -0.485  -0.015  -0.001   0.140   0.007  -0.000  -0.001   0.074   0.006   0.000
  0.016  -0.006   0.000  -0.015  -0.396   0.000   0.007   0.114   0.006   0.000   0.021   0.013   0.002
 -0.002   0.000   0.122   0.000  -0.021  -0.032  -0.000   0.006   0.076   0.000  -0.001  -0.000  -0.000
 -0.000  -0.000  -0.044   0.002  -0.000   0.012  -0.001   0.000   0.000   0.021  -0.001   0.000   0.000
  0.023  -0.002   0.012  -0.266  -0.079  -0.003   0.074   0.021  -0.001  -0.001   0.078   0.006   0.002
  0.002   0.001  -0.000  -0.020  -0.046   0.000   0.006   0.013  -0.000   0.000   0.006   0.022   0.001
 -0.000  -0.000  -0.002  -0.001  -0.006   0.001   0.000   0.002  -0.000   0.000   0.002   0.001   0.017


------------------------ aborting loop because EDIFF is reached ----------------------------------------


    CHARGE:  cpu time    0.2032: real time    0.2036
    FORLOC:  cpu time    0.0023: real time    0.0023
    FORNL :  cpu time    0.3649: real time    0.3654
    STRESS:  cpu time    0.6383: real time    0.6394
    FORCOR:  cpu time    0.0398: real time    0.0398
    FORHAR:  cpu time    0.0100: real time    0.0100
    MIXING:  cpu time    0.0009: real time    0.0009
    OFIELD:  cpu time    0.0000: real time    0.0000

  FORCE on cell =-STRESS in cart. coord.  units (eV):
  Direction    XX          YY          ZZ          XY          YZ          ZX
  --------------------------------------------------------------------------------------
  Alpha Z     9.60095     9.60095     9.60095
  Ewald    1575.83409  1579.93553 -2033.45418     1.57776   -18.16723   -18.13782
  Hartree  1697.23517  1698.80695 -1650.40871     0.49743   -16.83254   -16.82622
  E(xc)     -77.66709   -77.68089   -78.88816     0.02133    -0.00616    -0.00618
  Local   -3525.87916 -3531.02381  3428.92773    -2.11733    34.98655    34.95547
  n-local   162.53583   162.70902   167.20771    -0.05626     0.02250     0.02423
  augment   -31.87478   -31.82276   -32.80180     0.00632    -0.00489    -0.00451
  Kinetic   190.21532   189.50057   189.81367     0.28138     0.00117    -0.00796
  Fock        0.00000     0.00000     0.00000     0.00000     0.00000     0.00000
  -------------------------------------------------------------------------------------
  Total       0.00033     0.02556    -0.00279     0.21062    -0.00061    -0.00299
  in kB       0.00144     0.10998    -0.01200     0.90608    -0.00264    -0.01284
  external pressure =        0.03 kB  Pullay stress =        0.00 kB


 VOLUME and BASIS-vectors are now :
 -----------------------------------------------------------------------------
  energy-cutoff  :      600.00
  volume of cell :      372.43
      direct lattice vectors                 reciprocal lattice vectors
     4.382356765 -0.021911784 -0.021911784     0.228199246  0.001146788  0.001158313
    -0.021462389  4.292477857 -0.021462389     0.001170800  0.232977442  0.001182567
    -0.100000000 -0.100000000 19.800000000     0.000253807  0.000253807  0.050507614

  length of vectors
     4.382466322  4.292585168 19.800505044     0.228205067  0.232983385  0.050508890


 FORCES acting on ions
    electron-ion (+dipol)            ewald-force                    non-local-force                 convergence-correction
 -----------------------------------------------------------------------------------------------
   0.346E+01 -.136E+01 -.144E+03   -.491E+01 0.161E+01 0.148E+03   0.145E+01 -.252E+00 -.382E+01   -.190E-03 0.235E-03 0.574E-03
   0.491E+01 0.792E-01 0.144E+03   -.640E+01 0.136E+00 -.148E+03   0.149E+01 -.215E+00 0.381E+01   0.217E-03 -.174E-03 -.436E-04
   -.625E+01 -.224E+00 -.205E+03   0.670E+01 0.176E+00 0.207E+03   -.450E+00 0.501E-01 -.203E+01   0.544E-03 -.164E-02 0.132E-02
   -.418E+01 0.185E+01 0.205E+03   0.461E+01 -.192E+01 -.207E+03   -.429E+00 0.722E-01 0.204E+01   -.925E-03 0.375E-03 -.407E-03
 -----------------------------------------------------------------------------------------------
   -.206E+01 0.346E+00 0.698E-02   -.355E-14 0.178E-14 0.000E+00   0.206E+01 -.345E+00 -.837E-02   -.354E-03 -.121E-02 0.144E-02
 
 
 POSITION                                       TOTAL-FORCE (eV/Angst)
 -----------------------------------------------------------------------------------
      2.48768      3.14339     11.24663        -0.000228     -0.000244     -0.000648
      0.29285      0.99424      8.51764         0.000251     -0.000103      0.000108
      0.09623      1.04919     11.23468        -0.000384      0.000470     -0.000046
      2.26275      3.17122      8.53121         0.000361     -0.000123      0.000586
 -----------------------------------------------------------------------------------
    total drift:                               -0.000075     -0.000064      0.000051


--------------------------------------------------------------------------------------------------------



  FREE ENERGIE OF THE ION-ELECTRON SYSTEM (eV)
  ---------------------------------------------------
  free  energy   TOTEN  =       -16.26334850 eV

  energy  without entropy=      -16.26334850  energy(sigma->0) =      -16.26334850
 
 d Force = 0.7640620E-06[ 0.452E-06, 0.108E-05]  d Energy = 0.7934349E-06-0.294E-07
 d Force =-0.5599240E-01[-0.560E-01,-0.560E-01]  d Ewald  =-0.5599240E-01 0.273E-09


--------------------------------------------------------------------------------------------------------


    POTLOK:  cpu time    0.0408: real time    0.0409


--------------------------------------------------------------------------------------------------------


 Conjugate gradient step on ions:
 trial-energy change:   -0.000001  1 .order   -0.000001   -0.000001   -0.000000
  (g-gl).g = 0.326E-06      g.g   = 0.312E-06  gl.gl    = 0.486E-06
 g(Force)  = 0.312E-06   g(Stress)= 0.000E+00 ortho     =-0.196E-07
 gamma     =   0.67042
 trial     =   3.60127
 opt step  =   6.21595  (harmonic =   6.21595) maximal distance =0.00055384
 next E    =   -16.263349   (d E  =  -0.00000)


--------------------------------------------------------------------------------------------------------


  
 reached required accuracy - stopping structural energy minimisation
 writing wavefunctions
     LOOP+:  cpu time    9.8345: real time   10.1685
    4ORBIT:  cpu time    0.0000: real time    0.0000

 total amount of memory used by VASP MPI-rank0    62975. kBytes
=======================================================================

   base      :      30000. kBytes
   nonl-proj :      12349. kBytes
   fftplans  :       2677. kBytes
   grid      :       4349. kBytes
   one-center:          8. kBytes
   wavefun   :      13592. kBytes
 
  
  
 General timing and accounting informations for this job:
 ========================================================
  
                  Total CPU time used (sec):      266.136
                            User time (sec):      265.329
                          System time (sec):        0.807
                         Elapsed time (sec):      275.689
  
                   Maximum memory used (kb):      226992.
                   Average memory used (kb):           0.
  
                          Minor page faults:        71032
                          Major page faults:          123
                 Voluntary context switches:         9727
