 running on  192 total cores
 distrk:  each k-point on  192 cores,    1 groups
 distr:  one band on   24 cores,    8 groups
 using from now: INCAR     
 vasp.5.4.4.18Apr17-6-g9f103f2a35 (build Oct 01 2024 10:11:53) complex          
  
 POSCAR found type information on POSCAR  Se Sn
 POSCAR found :  2 types and       4 ions
 scaLAPACK will be used
 WARNING: PSMAXN for non-local potential too small
 LDA part: xc-table for Pade appr. of Perdew
 found WAVECAR, reading the header
  number of k-points has changed, file:    41 present:    40
  trying to continue reading WAVECAR, but it might fail
 WARNING: stress and forces are not correct
 POSCAR, INCAR and KPOINTS ok, starting setup
 FFT: planning ...
 reading WAVECAR
 the WAVECAR file was read successfully
 charge-density read from file: unknown                                 
 entering main loop
       N       E                     dE             d eps       ncg     rms          rms(c)
DAV:   1    -0.121515560740E+02   -0.12152E+02   -0.60897E+02  1808   0.682E+01
DAV:   2    -0.162127446489E+02   -0.40612E+01   -0.40291E+01  1600   0.238E+01
DAV:   3    -0.162642048249E+02   -0.51460E-01   -0.51434E-01  1752   0.319E+00
DAV:   4    -0.162648760979E+02   -0.67127E-03   -0.67117E-03  1632   0.361E-01
DAV:   5    -0.162648948588E+02   -0.18761E-04   -0.18760E-04  1600   0.574E-02
DAV:   6    -0.162648954232E+02   -0.56440E-06   -0.56440E-06  1456   0.938E-03
   1 F= -.16264895E+02 E0= -.16264895E+02  d E =0.000000E+00
 writing wavefunctions
