
     Program PROJWFC v.6.6 starts on 11May2023 at 21:53:15 

     This program is part of the open-source Quantum ESPRESSO suite
     for quantum simulation of materials; please cite
         "P. Giannozzi et al., J. Phys.:Condens. Matter 21 395502 (2009);
         "P. Giannozzi et al., J. Phys.:Condens. Matter 29 465901 (2017);
          URL http://www.quantum-espresso.org", 
     in publications or presentations arising from this work. More details at
     http://www.quantum-espresso.org/quote

     Parallel version (MPI), running on    24 processors

     MPI processes distributed on     1 nodes
     R & G space division:  proc/nbgrp/npool/nimage =      24
     Fft bands division:     nmany     =       1

     Reading xml data from directory:

     wfc-out/bi2se3.save/

     IMPORTANT: XC functional enforced from input :
     Exchange-correlation= PBESOL
                           (   1   4  10   8   0   0   0)
     Any further DFT definition will be discarded
     Please, verify this is what you really want

 
     Parallelization info
     --------------------
     sticks:   dense  smooth     PW     G-vecs:    dense   smooth      PW
     Min          84      56     17                 7066     3843     647
     Max          85      57     18                 7075     3854     653
     Sum        2029    1345    421               169655    92305   15597
 

     Check: negative core charge=   -0.000002

     Gaussian broadening (read from file): ngauss,degauss=  -1    0.007350


     Calling projwave .... 
 
  Problem Sizes 
  natomwfc =           65
  nbnd     =           71
  nkstot   =          288
  npwx     =          491
  nkb      =           90
 

     Atomic states used for projection
     (read from pseudopotential files):

     state #   1: atom   1 (Bi ), wfc  1 (l=0 m= 1)
     state #   2: atom   1 (Bi ), wfc  2 (l=1 m= 1)
     state #   3: atom   1 (Bi ), wfc  2 (l=1 m= 2)
     state #   4: atom   1 (Bi ), wfc  2 (l=1 m= 3)
     state #   5: atom   1 (Bi ), wfc  3 (l=2 m= 1)
     state #   6: atom   1 (Bi ), wfc  3 (l=2 m= 2)
     state #   7: atom   1 (Bi ), wfc  3 (l=2 m= 3)
     state #   8: atom   1 (Bi ), wfc  3 (l=2 m= 4)
     state #   9: atom   1 (Bi ), wfc  3 (l=2 m= 5)
     state #  10: atom   1 (Bi ), wfc  4 (l=0 m= 1)
     state #  11: atom   1 (Bi ), wfc  5 (l=1 m= 1)
     state #  12: atom   1 (Bi ), wfc  5 (l=1 m= 2)
     state #  13: atom   1 (Bi ), wfc  5 (l=1 m= 3)
     state #  14: atom   2 (Bi ), wfc  1 (l=0 m= 1)
     state #  15: atom   2 (Bi ), wfc  2 (l=1 m= 1)
     state #  16: atom   2 (Bi ), wfc  2 (l=1 m= 2)
     state #  17: atom   2 (Bi ), wfc  2 (l=1 m= 3)
     state #  18: atom   2 (Bi ), wfc  3 (l=2 m= 1)
     state #  19: atom   2 (Bi ), wfc  3 (l=2 m= 2)
     state #  20: atom   2 (Bi ), wfc  3 (l=2 m= 3)
     state #  21: atom   2 (Bi ), wfc  3 (l=2 m= 4)
     state #  22: atom   2 (Bi ), wfc  3 (l=2 m= 5)
     state #  23: atom   2 (Bi ), wfc  4 (l=0 m= 1)
     state #  24: atom   2 (Bi ), wfc  5 (l=1 m= 1)
     state #  25: atom   2 (Bi ), wfc  5 (l=1 m= 2)
     state #  26: atom   2 (Bi ), wfc  5 (l=1 m= 3)
     state #  27: atom   3 (Se ), wfc  1 (l=0 m= 1)
     state #  28: atom   3 (Se ), wfc  2 (l=1 m= 1)
     state #  29: atom   3 (Se ), wfc  2 (l=1 m= 2)
     state #  30: atom   3 (Se ), wfc  2 (l=1 m= 3)
     state #  31: atom   3 (Se ), wfc  3 (l=2 m= 1)
     state #  32: atom   3 (Se ), wfc  3 (l=2 m= 2)
     state #  33: atom   3 (Se ), wfc  3 (l=2 m= 3)
     state #  34: atom   3 (Se ), wfc  3 (l=2 m= 4)
     state #  35: atom   3 (Se ), wfc  3 (l=2 m= 5)
     state #  36: atom   3 (Se ), wfc  4 (l=0 m= 1)
     state #  37: atom   3 (Se ), wfc  5 (l=1 m= 1)
     state #  38: atom   3 (Se ), wfc  5 (l=1 m= 2)
     state #  39: atom   3 (Se ), wfc  5 (l=1 m= 3)
     state #  40: atom   4 (Se ), wfc  1 (l=0 m= 1)
     state #  41: atom   4 (Se ), wfc  2 (l=1 m= 1)
     state #  42: atom   4 (Se ), wfc  2 (l=1 m= 2)
     state #  43: atom   4 (Se ), wfc  2 (l=1 m= 3)
     state #  44: atom   4 (Se ), wfc  3 (l=2 m= 1)
     state #  45: atom   4 (Se ), wfc  3 (l=2 m= 2)
     state #  46: atom   4 (Se ), wfc  3 (l=2 m= 3)
     state #  47: atom   4 (Se ), wfc  3 (l=2 m= 4)
     state #  48: atom   4 (Se ), wfc  3 (l=2 m= 5)
     state #  49: atom   4 (Se ), wfc  4 (l=0 m= 1)
     state #  50: atom   4 (Se ), wfc  5 (l=1 m= 1)
     state #  51: atom   4 (Se ), wfc  5 (l=1 m= 2)
     state #  52: atom   4 (Se ), wfc  5 (l=1 m= 3)
     state #  53: atom   5 (Se ), wfc  1 (l=0 m= 1)
     state #  54: atom   5 (Se ), wfc  2 (l=1 m= 1)
     state #  55: atom   5 (Se ), wfc  2 (l=1 m= 2)
     state #  56: atom   5 (Se ), wfc  2 (l=1 m= 3)
     state #  57: atom   5 (Se ), wfc  3 (l=2 m= 1)
     state #  58: atom   5 (Se ), wfc  3 (l=2 m= 2)
     state #  59: atom   5 (Se ), wfc  3 (l=2 m= 3)
     state #  60: atom   5 (Se ), wfc  3 (l=2 m= 4)
     state #  61: atom   5 (Se ), wfc  3 (l=2 m= 5)
     state #  62: atom   5 (Se ), wfc  4 (l=0 m= 1)
     state #  63: atom   5 (Se ), wfc  5 (l=1 m= 1)
     state #  64: atom   5 (Se ), wfc  5 (l=1 m= 2)
     state #  65: atom   5 (Se ), wfc  5 (l=1 m= 3)

 k =   0.0000000000  0.0000000000  0.0000000000
==== e(   1) =  -197.53337 eV ==== 
     psi = 0.998*[#  27]+0.001*[#  11]+0.001*[#  24]
    |psi|^2 = 1.000
==== e(   2) =  -197.35811 eV ==== 
     psi = 0.499*[#  40]+0.499*[#  53]
    |psi|^2 = 1.000
==== e(   3) =  -197.35811 eV ==== 
     psi = 0.499*[#  40]+0.499*[#  53]
    |psi|^2 = 1.000
==== e(   4) =  -143.18732 eV ==== 
     psi = 0.499*[#   1]+0.499*[#  14]
    |psi|^2 = 1.000
==== e(   5) =  -143.18731 eV ==== 
     psi = 0.498*[#   1]+0.498*[#  14]+0.002*[#  37]
    |psi|^2 = 1.000
==== e(   6) =  -137.01505 eV ==== 
     psi = 1.000*[#  28]
    |psi|^2 = 1.000
==== e(   7) =  -136.98498 eV ==== 
     psi = 1.000*[#  29]
    |psi|^2 = 1.000
==== e(   8) =  -136.98496 eV ==== 
     psi = 1.000*[#  30]
    |psi|^2 = 1.000
==== e(   9) =  -136.83936 eV ==== 
     psi = 0.500*[#  41]+0.500*[#  54]
    |psi|^2 = 1.000
==== e(  10) =  -136.83799 eV ==== 
     psi = 0.500*[#  41]+0.500*[#  54]
    |psi|^2 = 1.000
==== e(  11) =  -136.80334 eV ==== 
     psi = 0.500*[#  42]+0.500*[#  55]
    |psi|^2 = 1.000
==== e(  12) =  -136.80333 eV ==== 
     psi = 0.500*[#  43]+0.500*[#  56]
    |psi|^2 = 1.000
==== e(  13) =  -136.80008 eV ==== 
     psi = 0.500*[#  42]+0.500*[#  55]
    |psi|^2 = 1.000
==== e(  14) =  -136.80007 eV ==== 
     psi = 0.500*[#  43]+0.500*[#  56]
    |psi|^2 = 1.000
==== e(  15) =   -81.21469 eV ==== 
     psi = 0.500*[#   3]+0.500*[#  16]
    |psi|^2 = 1.000
==== e(  16) =   -81.21469 eV ==== 
     psi = 0.500*[#   3]+0.500*[#  16]
    |psi|^2 = 1.000
==== e(  17) =   -81.21468 eV ==== 
     psi = 0.500*[#   4]+0.500*[#  17]
    |psi|^2 = 1.000
==== e(  18) =   -81.21468 eV ==== 
     psi = 0.500*[#   4]+0.500*[#  17]
    |psi|^2 = 1.000
==== e(  19) =   -81.20923 eV ==== 
     psi = 0.500*[#   2]+0.500*[#  15]
    |psi|^2 = 1.000
==== e(  20) =   -81.20923 eV ==== 
     psi = 0.500*[#   2]+0.500*[#  15]
    |psi|^2 = 1.000
==== e(  21) =   -37.18872 eV ==== 
     psi = 1.000*[#  31]
    |psi|^2 = 1.000
==== e(  22) =   -37.18035 eV ==== 
     psi = 0.995*[#  32]+0.005*[#  35]
    |psi|^2 = 1.000
==== e(  23) =   -37.18034 eV ==== 
     psi = 0.995*[#  33]+0.005*[#  34]
    |psi|^2 = 1.000
==== e(  24) =   -37.15025 eV ==== 
     psi = 0.995*[#  35]+0.005*[#  32]
    |psi|^2 = 1.000
==== e(  25) =   -37.15025 eV ==== 
     psi = 0.995*[#  34]+0.005*[#  33]
    |psi|^2 = 1.000
==== e(  26) =   -36.99930 eV ==== 
     psi = 0.500*[#  44]+0.500*[#  57]
    |psi|^2 = 1.000
==== e(  27) =   -36.99832 eV ==== 
     psi = 0.500*[#  44]+0.500*[#  57]
    |psi|^2 = 1.000
==== e(  28) =   -36.98936 eV ==== 
     psi = 0.500*[#  45]+0.500*[#  58]
    |psi|^2 = 1.000
==== e(  29) =   -36.98935 eV ==== 
     psi = 0.500*[#  46]+0.500*[#  59]
    |psi|^2 = 1.000
==== e(  30) =   -36.98446 eV ==== 
     psi = 0.499*[#  45]+0.499*[#  58]+0.001*[#  48]+0.001*[#  61]
    |psi|^2 = 1.000
==== e(  31) =   -36.98445 eV ==== 
     psi = 0.499*[#  46]+0.499*[#  59]+0.001*[#  47]+0.001*[#  60]
    |psi|^2 = 1.000
==== e(  32) =   -36.95532 eV ==== 
     psi = 0.500*[#  47]+0.500*[#  60]
    |psi|^2 = 1.000
==== e(  33) =   -36.95532 eV ==== 
     psi = 0.500*[#  48]+0.500*[#  61]
    |psi|^2 = 1.000
==== e(  34) =   -36.94991 eV ==== 
     psi = 0.499*[#  47]+0.499*[#  60]+0.001*[#  46]+0.001*[#  59]
    |psi|^2 = 1.000
==== e(  35) =   -36.94991 eV ==== 
     psi = 0.499*[#  48]+0.499*[#  61]+0.001*[#  45]+0.001*[#  58]
    |psi|^2 = 1.000
==== e(  36) =   -12.49294 eV ==== 
     psi = 0.481*[#   9]+0.481*[#  22]+0.018*[#   6]+0.018*[#  19]+0.001*[#  38]
          
    |psi|^2 = 1.000
==== e(  37) =   -12.49294 eV ==== 
     psi = 0.481*[#   8]+0.481*[#  21]+0.017*[#   7]+0.017*[#  20]+0.001*[#  39]
          
    |psi|^2 = 1.000
==== e(  38) =   -12.49100 eV ==== 
     psi = 0.496*[#   9]+0.496*[#  22]+0.003*[#   6]+0.003*[#  19]
    |psi|^2 = 1.000
==== e(  39) =   -12.49100 eV ==== 
     psi = 0.496*[#   8]+0.496*[#  21]+0.003*[#   7]+0.003*[#  20]
    |psi|^2 = 1.000
==== e(  40) =   -12.48065 eV ==== 
     psi = 0.500*[#   5]+0.500*[#  18]
    |psi|^2 = 1.000
==== e(  41) =   -12.47771 eV ==== 
     psi = 0.500*[#   5]+0.500*[#  18]
    |psi|^2 = 1.000
==== e(  42) =   -12.47029 eV ==== 
     psi = 0.497*[#   6]+0.497*[#  19]+0.003*[#   9]+0.003*[#  22]
    |psi|^2 = 1.000
==== e(  43) =   -12.47029 eV ==== 
     psi = 0.497*[#   7]+0.497*[#  20]+0.003*[#   8]+0.003*[#  21]
    |psi|^2 = 1.000
==== e(  44) =   -12.46703 eV ==== 
     psi = 0.482*[#   6]+0.482*[#  19]+0.018*[#   9]+0.018*[#  22]
    |psi|^2 = 1.000
==== e(  45) =   -12.46703 eV ==== 
     psi = 0.482*[#   7]+0.482*[#  20]+0.018*[#   8]+0.018*[#  21]
    |psi|^2 = 1.000
==== e(  46) =    -3.85902 eV ==== 
     psi = 0.381*[#  36]+0.181*[#  10]+0.181*[#  23]+0.121*[#  49]+0.121*[#  62]
          +0.006*[#  11]+0.006*[#  24]+0.002*[#  50]+0.002*[#  63]
    |psi|^2 = 1.000
==== e(  47) =    -2.60935 eV ==== 
     psi = 0.245*[#  49]+0.245*[#  62]+0.183*[#  10]+0.183*[#  23]+0.040*[#  37]
          +0.030*[#  50]+0.030*[#  63]+0.021*[#  11]+0.021*[#  24]
    |psi|^2 = 1.000
==== e(  48) =    -2.52506 eV ==== 
     psi = 0.277*[#  36]+0.264*[#  49]+0.264*[#  62]+0.093*[#  11]+0.093*[#  24]
          +0.003*[#  50]+0.003*[#  63]
    |psi|^2 = 0.999
==== e(  49) =     0.71173 eV ==== 
     psi = 0.228*[#  10]+0.228*[#  23]+0.206*[#  49]+0.206*[#  62]+0.090*[#  37]
          +0.018*[#  11]+0.018*[#  24]+0.003*[#  50]+0.003*[#  63]
    |psi|^2 = 1.000
==== e(  50) =     1.45035 eV ==== 
     psi = 0.277*[#  10]+0.277*[#  23]+0.217*[#  36]+0.064*[#  49]+0.064*[#  62]
          +0.049*[#  50]+0.049*[#  63]
    |psi|^2 = 0.999
==== e(  51) =     8.23802 eV ==== 
     psi = 0.410*[#  50]+0.410*[#  63]+0.035*[#  11]+0.035*[#  24]+0.035*[#  10]
          +0.035*[#  23]+0.025*[#  36]+0.002*[#  49]+0.002*[#  62]
    |psi|^2 = 0.992
==== e(  52) =     8.25176 eV ==== 
     psi = 0.541*[#  37]+0.130*[#  11]+0.130*[#  24]+0.049*[#  50]+0.049*[#  63]
          +0.027*[#  49]+0.027*[#  62]+0.022*[#  10]+0.022*[#  23]
    |psi|^2 = 0.996
==== e(  53) =     8.57738 eV ==== 
     psi = 0.776*[#  38]+0.088*[#  12]+0.088*[#  25]+0.020*[#  51]+0.020*[#  64]
          
    |psi|^2 = 0.994
==== e(  54) =     8.57739 eV ==== 
     psi = 0.776*[#  39]+0.088*[#  13]+0.088*[#  26]+0.020*[#  52]+0.020*[#  65]
          
    |psi|^2 = 0.994
==== e(  55) =     9.01283 eV ==== 
     psi = 0.430*[#  51]+0.430*[#  64]+0.066*[#  12]+0.066*[#  25]
    |psi|^2 = 0.993
==== e(  56) =     9.01283 eV ==== 
     psi = 0.430*[#  52]+0.430*[#  65]+0.066*[#  13]+0.066*[#  26]
    |psi|^2 = 0.993
==== e(  57) =     9.72235 eV ==== 
     psi = 0.392*[#  51]+0.392*[#  64]+0.113*[#  38]+0.042*[#  12]+0.042*[#  25]
          
    |psi|^2 = 0.983
==== e(  58) =     9.72235 eV ==== 
     psi = 0.392*[#  52]+0.392*[#  65]+0.113*[#  39]+0.042*[#  13]+0.042*[#  26]
          
    |psi|^2 = 0.983
==== e(  59) =    10.65877 eV ==== 
     psi = 0.309*[#  50]+0.309*[#  63]+0.169*[#  37]+0.065*[#  10]+0.065*[#  23]
          +0.021*[#  11]+0.021*[#  24]+0.010*[#  49]+0.010*[#  62]+0.001*[#   1]
          +0.001*[#  14]
    |psi|^2 = 0.983
==== e(  60) =    10.76921 eV ==== 
     psi = 0.352*[#  11]+0.352*[#  24]+0.095*[#  36]+0.046*[#  49]+0.046*[#  62]
          +0.030*[#  50]+0.030*[#  63]+0.006*[#  10]+0.006*[#  23]+0.002*[#  27]
          
    |psi|^2 = 0.969
==== e(  61) =    11.75959 eV ==== 
     psi = 0.419*[#  12]+0.419*[#  25]+0.064*[#  51]+0.064*[#  64]
    |psi|^2 = 0.966
==== e(  62) =    11.75960 eV ==== 
     psi = 0.419*[#  13]+0.419*[#  26]+0.064*[#  52]+0.064*[#  65]
    |psi|^2 = 0.966
==== e(  63) =    13.02912 eV ==== 
     psi = 0.288*[#  11]+0.288*[#  24]+0.143*[#  37]+0.089*[#  50]+0.089*[#  63]
          +0.011*[#  49]+0.011*[#  62]
    |psi|^2 = 0.922
==== e(  64) =    13.31307 eV ==== 
     psi = 0.363*[#  12]+0.363*[#  25]+0.097*[#  38]+0.080*[#  51]+0.080*[#  64]
          
    |psi|^2 = 0.982
==== e(  65) =    13.31307 eV ==== 
     psi = 0.363*[#  13]+0.363*[#  26]+0.097*[#  39]+0.080*[#  52]+0.080*[#  65]
          
    |psi|^2 = 0.982
==== e(  66) =    16.23887 eV ==== 
     psi = 0.003*[#  11]+0.003*[#  24]+0.001*[#  36]
    |psi|^2 = 0.010
==== e(  67) =    16.79354 eV ==== 
     psi = 0.015*[#  11]+0.015*[#  24]+0.014*[#  50]+0.014*[#  63]+0.002*[#  37]
          
    |psi|^2 = 0.061
==== e(  68) =    17.44622 eV ==== 
 
    |psi|^2 = 0.003
==== e(  69) =    17.44623 eV ==== 
 
    |psi|^2 = 0.003
==== e(  70) =    17.62226 eV ==== 
 
    |psi|^2 = 0.002
==== e(  71) =    18.19510 eV ==== 
     psi = 0.003*[#  13]+0.003*[#  26]+0.002*[#  52]+0.002*[#  65]
    |psi|^2 = 0.009

 k =   0.0000000000  0.0000000000  0.2167248926
==== e(   1) =  -197.53336 eV ==== 
     psi = 0.998*[#  27]+0.001*[#  11]+0.001*[#  24]
    |psi|^2 = 1.000
==== e(   2) =  -197.35811 eV ==== 
     psi = 0.499*[#  40]+0.499*[#  53]
    |psi|^2 = 1.000
==== e(   3) =  -197.35811 eV ==== 
     psi = 0.499*[#  40]+0.499*[#  53]
    |psi|^2 = 1.000
==== e(   4) =  -143.18732 eV ==== 
     psi = 0.499*[#   1]+0.499*[#  14]+0.002*[#  37]
    |psi|^2 = 1.000
==== e(   5) =  -143.18731 eV ==== 
     psi = 0.499*[#   1]+0.499*[#  14]
    |psi|^2 = 1.000
==== e(   6) =  -137.01422 eV ==== 
     psi = 1.000*[#  28]
    |psi|^2 = 1.000
==== e(   7) =  -136.98485 eV ==== 
     psi = 1.000*[#  29]
    |psi|^2 = 1.000
==== e(   8) =  -136.98484 eV ==== 
     psi = 1.000*[#  30]
    |psi|^2 = 1.000
==== e(   9) =  -136.83921 eV ==== 
     psi = 0.500*[#  41]+0.500*[#  54]
    |psi|^2 = 1.000
==== e(  10) =  -136.83640 eV ==== 
     psi = 0.500*[#  41]+0.500*[#  54]
    |psi|^2 = 1.000
==== e(  11) =  -136.80184 eV ==== 
     psi = 0.500*[#  42]+0.500*[#  55]
    |psi|^2 = 1.000
==== e(  12) =  -136.80183 eV ==== 
     psi = 0.500*[#  43]+0.500*[#  56]
    |psi|^2 = 1.000
==== e(  13) =  -136.80126 eV ==== 
     psi = 0.500*[#  42]+0.500*[#  55]
    |psi|^2 = 1.000
==== e(  14) =  -136.80125 eV ==== 
     psi = 0.500*[#  43]+0.500*[#  56]
    |psi|^2 = 1.000
==== e(  15) =   -81.21469 eV ==== 
     psi = 0.500*[#   3]+0.500*[#  16]
    |psi|^2 = 1.000
==== e(  16) =   -81.21469 eV ==== 
     psi = 0.500*[#   3]+0.500*[#  16]
    |psi|^2 = 1.000
==== e(  17) =   -81.21468 eV ==== 
     psi = 0.500*[#   4]+0.500*[#  17]
    |psi|^2 = 1.000
==== e(  18) =   -81.21468 eV ==== 
     psi = 0.500*[#   4]+0.500*[#  17]
    |psi|^2 = 1.000
==== e(  19) =   -81.20923 eV ==== 
     psi = 0.500*[#   2]+0.500*[#  15]
    |psi|^2 = 1.000
==== e(  20) =   -81.20923 eV ==== 
     psi = 0.500*[#   2]+0.500*[#  15]
    |psi|^2 = 1.000
==== e(  21) =   -37.18322 eV ==== 
     psi = 0.998*[#  32]+0.002*[#  35]
    |psi|^2 = 1.000
==== e(  22) =   -37.18321 eV ==== 
     psi = 0.998*[#  33]+0.002*[#  34]
    |psi|^2 = 1.000
==== e(  23) =   -37.18160 eV ==== 
     psi = 1.000*[#  31]
    |psi|^2 = 1.000
==== e(  24) =   -37.14937 eV ==== 
     psi = 0.998*[#  35]+0.001*[#  32]
    |psi|^2 = 1.000
==== e(  25) =   -37.14936 eV ==== 
     psi = 0.998*[#  34]+0.002*[#  33]
    |psi|^2 = 1.000
==== e(  26) =   -36.99416 eV ==== 
     psi = 0.500*[#  44]+0.500*[#  57]
    |psi|^2 = 1.000
==== e(  27) =   -36.99050 eV ==== 
     psi = 0.495*[#  45]+0.495*[#  58]+0.004*[#  48]+0.004*[#  61]
    |psi|^2 = 1.000
==== e(  28) =   -36.99049 eV ==== 
     psi = 0.495*[#  46]+0.495*[#  59]+0.004*[#  47]+0.004*[#  60]
    |psi|^2 = 1.000
==== e(  29) =   -36.98931 eV ==== 
     psi = 0.499*[#  45]+0.499*[#  58]
    |psi|^2 = 1.000
==== e(  30) =   -36.98930 eV ==== 
     psi = 0.499*[#  46]+0.499*[#  59]
    |psi|^2 = 1.000
==== e(  31) =   -36.98899 eV ==== 
     psi = 0.500*[#  44]+0.500*[#  57]
    |psi|^2 = 1.000
==== e(  32) =   -36.95142 eV ==== 
     psi = 0.499*[#  47]+0.499*[#  60]
    |psi|^2 = 1.000
==== e(  33) =   -36.95142 eV ==== 
     psi = 0.499*[#  48]+0.499*[#  61]
    |psi|^2 = 1.000
==== e(  34) =   -36.95133 eV ==== 
     psi = 0.496*[#  47]+0.496*[#  60]+0.004*[#  46]+0.004*[#  59]
    |psi|^2 = 1.000
==== e(  35) =   -36.95133 eV ==== 
     psi = 0.496*[#  48]+0.496*[#  61]+0.004*[#  45]+0.004*[#  58]
    |psi|^2 = 1.000
==== e(  36) =   -12.49295 eV ==== 
     psi = 0.482*[#   9]+0.482*[#  22]+0.017*[#   6]+0.017*[#  19]+0.001*[#  38]
          
    |psi|^2 = 1.000
==== e(  37) =   -12.49294 eV ==== 
     psi = 0.482*[#   8]+0.482*[#  21]+0.017*[#   7]+0.017*[#  20]+0.001*[#  39]
          
    |psi|^2 = 1.000
==== e(  38) =   -12.49099 eV ==== 
     psi = 0.496*[#   9]+0.496*[#  22]+0.003*[#   6]+0.003*[#  19]
    |psi|^2 = 1.000
==== e(  39) =   -12.49099 eV ==== 
     psi = 0.496*[#   8]+0.496*[#  21]+0.003*[#   7]+0.003*[#  20]
    |psi|^2 = 1.000
==== e(  40) =   -12.48048 eV ==== 
     psi = 0.500*[#   5]+0.500*[#  18]
    |psi|^2 = 1.000
==== e(  41) =   -12.47788 eV ==== 
     psi = 0.500*[#   5]+0.500*[#  18]
    |psi|^2 = 1.000
==== e(  42) =   -12.47033 eV ==== 
     psi = 0.497*[#   6]+0.497*[#  19]+0.003*[#   9]+0.003*[#  22]
    |psi|^2 = 1.000
==== e(  43) =   -12.47032 eV ==== 
     psi = 0.497*[#   7]+0.497*[#  20]+0.003*[#   8]+0.003*[#  21]
    |psi|^2 = 1.000
==== e(  44) =   -12.46700 eV ==== 
     psi = 0.482*[#   6]+0.482*[#  19]+0.018*[#   9]+0.018*[#  22]
    |psi|^2 = 1.000
==== e(  45) =   -12.46700 eV ==== 
     psi = 0.482*[#   7]+0.482*[#  20]+0.018*[#   8]+0.018*[#  21]
    |psi|^2 = 1.000
==== e(  46) =    -3.73533 eV ==== 
     psi = 0.470*[#  36]+0.175*[#  10]+0.175*[#  23]+0.051*[#  49]+0.051*[#  62]
          +0.022*[#  11]+0.022*[#  24]+0.018*[#  50]+0.018*[#  63]
    |psi|^2 = 1.000
==== e(  47) =    -3.21052 eV ==== 
     psi = 0.324*[#  49]+0.324*[#  62]+0.123*[#  10]+0.123*[#  23]+0.040*[#  11]
          +0.040*[#  24]+0.026*[#  37]
    |psi|^2 = 1.000
==== e(  48) =    -1.83236 eV ==== 
     psi = 0.281*[#  49]+0.281*[#  62]+0.220*[#  36]+0.070*[#  11]+0.070*[#  24]
          +0.024*[#  10]+0.024*[#  23]+0.014*[#  50]+0.014*[#  63]
    |psi|^2 = 0.999
==== e(  49) =     0.09541 eV ==== 
     psi = 0.286*[#  10]+0.286*[#  23]+0.113*[#  49]+0.113*[#  62]+0.096*[#  37]
          +0.040*[#  50]+0.040*[#  63]+0.012*[#  11]+0.012*[#  24]
    |psi|^2 = 1.000
==== e(  50) =     1.91212 eV ==== 
     psi = 0.266*[#  10]+0.266*[#  23]+0.185*[#  36]+0.131*[#  49]+0.131*[#  62]
          +0.010*[#  50]+0.010*[#  63]
    |psi|^2 = 0.999
==== e(  51) =     7.60492 eV ==== 
     psi = 0.295*[#  37]+0.273*[#  50]+0.273*[#  63]+0.076*[#  11]+0.076*[#  24]
          
    |psi|^2 = 0.994
==== e(  52) =     8.55352 eV ==== 
     psi = 0.697*[#  38]+0.091*[#  12]+0.091*[#  25]+0.057*[#  51]+0.057*[#  64]
          
    |psi|^2 = 0.995
==== e(  53) =     8.55353 eV ==== 
     psi = 0.697*[#  39]+0.091*[#  13]+0.091*[#  26]+0.057*[#  52]+0.057*[#  65]
          
    |psi|^2 = 0.995
==== e(  54) =     9.17026 eV ==== 
     psi = 0.399*[#  51]+0.399*[#  64]+0.175*[#  38]+0.007*[#  12]+0.007*[#  25]
          
    |psi|^2 = 0.990
==== e(  55) =     9.17026 eV ==== 
     psi = 0.399*[#  52]+0.399*[#  65]+0.175*[#  39]+0.007*[#  13]+0.007*[#  26]
          
    |psi|^2 = 0.990
==== e(  56) =     9.17127 eV ==== 
     psi = 0.360*[#  37]+0.177*[#  50]+0.177*[#  63]+0.077*[#  10]+0.077*[#  23]
          +0.037*[#  11]+0.037*[#  24]+0.022*[#  49]+0.022*[#  62]
    |psi|^2 = 0.989
==== e(  57) =     9.50375 eV ==== 
     psi = 0.363*[#  51]+0.363*[#  64]+0.131*[#  12]+0.131*[#  25]
    |psi|^2 = 0.988
==== e(  58) =     9.50376 eV ==== 
     psi = 0.363*[#  52]+0.363*[#  65]+0.131*[#  13]+0.131*[#  26]
    |psi|^2 = 0.988
==== e(  59) =     9.72081 eV ==== 
     psi = 0.228*[#  11]+0.228*[#  24]+0.184*[#  50]+0.184*[#  63]+0.076*[#  36]
          +0.034*[#  49]+0.034*[#  62]+0.009*[#  10]+0.009*[#  23]+0.001*[#  27]
          
    |psi|^2 = 0.987
==== e(  60) =    11.77190 eV ==== 
     psi = 0.263*[#  50]+0.263*[#  63]+0.167*[#  11]+0.167*[#  24]+0.043*[#  36]
          +0.026*[#  10]+0.026*[#  23]+0.002*[#  49]+0.002*[#  62]
    |psi|^2 = 0.959
==== e(  61) =    12.16966 eV ==== 
     psi = 0.354*[#  12]+0.354*[#  25]+0.127*[#  51]+0.127*[#  64]
    |psi|^2 = 0.962
==== e(  62) =    12.16966 eV ==== 
     psi = 0.354*[#  13]+0.354*[#  26]+0.127*[#  52]+0.127*[#  65]
    |psi|^2 = 0.962
==== e(  63) =    12.55664 eV ==== 
     psi = 0.327*[#  11]+0.327*[#  24]+0.208*[#  37]+0.038*[#  49]+0.038*[#  62]
          +0.013*[#  10]+0.013*[#  23]+0.004*[#  50]+0.004*[#  63]
    |psi|^2 = 0.976
==== e(  64) =    12.88762 eV ==== 
     psi = 0.388*[#  12]+0.388*[#  25]+0.112*[#  38]+0.039*[#  51]+0.039*[#  64]
          
    |psi|^2 = 0.967
==== e(  65) =    12.88762 eV ==== 
     psi = 0.388*[#  13]+0.388*[#  26]+0.112*[#  39]+0.039*[#  52]+0.039*[#  65]
          
    |psi|^2 = 0.967
==== e(  66) =    15.94694 eV ==== 
     psi = 0.004*[#  50]+0.004*[#  63]
    |psi|^2 = 0.008
==== e(  67) =    17.11325 eV ==== 
 
    |psi|^2 = 0.001
==== e(  68) =    17.11325 eV ==== 
 
    |psi|^2 = 0.001
==== e(  69) =    17.54469 eV ==== 
     psi = 0.002*[#  37]+0.002*[#  50]+0.002*[#  63]
    |psi|^2 = 0.009
==== e(  70) =    17.57310 eV ==== 
     psi = 0.004*[#  11]+0.004*[#  24]+0.003*[#  36]
    |psi|^2 = 0.013
==== e(  71) =    18.95569 eV ==== 
     psi = 0.002*[#  37]
    |psi|^2 = 0.003

 k =   0.0833333453 -0.0481125176  0.0120402663
==== e(   1) =  -197.53337 eV ==== 
     psi = 0.998*[#  27]
    |psi|^2 = 1.000
==== e(   2) =  -197.35811 eV ==== 
     psi = 0.499*[#  40]+0.499*[#  53]
    |psi|^2 = 1.000
==== e(   3) =  -197.35811 eV ==== 
     psi = 0.499*[#  40]+0.499*[#  53]
    |psi|^2 = 1.000
==== e(   4) =  -143.18732 eV ==== 
     psi = 0.499*[#   1]+0.499*[#  14]+0.002*[#  37]
    |psi|^2 = 1.000
==== e(   5) =  -143.18732 eV ==== 
     psi = 0.499*[#   1]+0.499*[#  14]
    |psi|^2 = 1.000
==== e(   6) =  -137.01541 eV ==== 
     psi = 1.000*[#  28]
    |psi|^2 = 1.000
==== e(   7) =  -136.98659 eV ==== 
     psi = 0.762*[#  29]+0.238*[#  30]
    |psi|^2 = 1.000
==== e(   8) =  -136.98617 eV ==== 
     psi = 0.762*[#  30]+0.238*[#  29]
    |psi|^2 = 1.000
==== e(   9) =  -136.83964 eV ==== 
     psi = 0.500*[#  41]+0.500*[#  54]
    |psi|^2 = 1.000
==== e(  10) =  -136.83845 eV ==== 
     psi = 0.500*[#  41]+0.500*[#  54]
    |psi|^2 = 1.000
==== e(  11) =  -136.80447 eV ==== 
     psi = 0.376*[#  42]+0.376*[#  55]+0.124*[#  43]+0.124*[#  56]
    |psi|^2 = 1.000
==== e(  12) =  -136.80346 eV ==== 
     psi = 0.376*[#  43]+0.376*[#  56]+0.124*[#  42]+0.124*[#  55]
    |psi|^2 = 1.000
==== e(  13) =  -136.80233 eV ==== 
     psi = 0.370*[#  43]+0.370*[#  56]+0.130*[#  42]+0.130*[#  55]
    |psi|^2 = 1.000
==== e(  14) =  -136.80208 eV ==== 
     psi = 0.369*[#  42]+0.369*[#  55]+0.130*[#  43]+0.130*[#  56]
    |psi|^2 = 1.000
==== e(  15) =   -81.21469 eV ==== 
     psi = 0.495*[#   3]+0.495*[#  16]+0.005*[#   4]+0.005*[#  17]
    |psi|^2 = 1.000
==== e(  16) =   -81.21469 eV ==== 
     psi = 0.495*[#   3]+0.495*[#  16]+0.005*[#   4]+0.005*[#  17]
    |psi|^2 = 1.000
==== e(  17) =   -81.21468 eV ==== 
     psi = 0.496*[#   4]+0.496*[#  17]+0.004*[#   3]+0.004*[#  16]
    |psi|^2 = 1.000
==== e(  18) =   -81.21468 eV ==== 
     psi = 0.495*[#   4]+0.495*[#  17]+0.005*[#   3]+0.005*[#  16]
    |psi|^2 = 1.000
==== e(  19) =   -81.20923 eV ==== 
     psi = 0.500*[#   2]+0.500*[#  15]
    |psi|^2 = 1.000
==== e(  20) =   -81.20923 eV ==== 
     psi = 0.500*[#   2]+0.500*[#  15]
    |psi|^2 = 1.000
==== e(  21) =   -37.18878 eV ==== 
     psi = 0.977*[#  31]+0.017*[#  32]+0.006*[#  33]
    |psi|^2 = 1.000
==== e(  22) =   -37.18267 eV ==== 
     psi = 0.739*[#  32]+0.237*[#  33]+0.023*[#  31]
    |psi|^2 = 1.000
==== e(  23) =   -37.18217 eV ==== 
     psi = 0.754*[#  33]+0.242*[#  32]+0.003*[#  34]
    |psi|^2 = 1.000
==== e(  24) =   -37.15321 eV ==== 
     psi = 0.744*[#  34]+0.252*[#  35]+0.003*[#  33]
    |psi|^2 = 1.000
==== e(  25) =   -37.15273 eV ==== 
     psi = 0.746*[#  35]+0.253*[#  34]
    |psi|^2 = 1.000
==== e(  26) =   -37.00043 eV ==== 
     psi = 0.493*[#  44]+0.493*[#  57]+0.005*[#  45]+0.005*[#  58]+0.002*[#  46]
          +0.002*[#  59]
    |psi|^2 = 1.000
==== e(  27) =   -36.99737 eV ==== 
     psi = 0.493*[#  44]+0.493*[#  57]+0.005*[#  45]+0.005*[#  58]+0.002*[#  46]
          +0.002*[#  59]
    |psi|^2 = 1.000
==== e(  28) =   -36.99015 eV ==== 
     psi = 0.373*[#  45]+0.373*[#  58]+0.123*[#  46]+0.123*[#  59]+0.004*[#  44]
          +0.004*[#  57]
    |psi|^2 = 1.000
==== e(  29) =   -36.98924 eV ==== 
     psi = 0.373*[#  46]+0.373*[#  59]+0.127*[#  45]+0.127*[#  58]
    |psi|^2 = 1.000
==== e(  30) =   -36.98832 eV ==== 
     psi = 0.366*[#  45]+0.366*[#  58]+0.125*[#  46]+0.125*[#  59]+0.009*[#  44]
          +0.009*[#  57]
    |psi|^2 = 1.000
==== e(  31) =   -36.98829 eV ==== 
     psi = 0.375*[#  46]+0.375*[#  59]+0.123*[#  45]+0.123*[#  58]+0.001*[#  47]
          +0.001*[#  60]
    |psi|^2 = 1.000
==== e(  32) =   -36.95754 eV ==== 
     psi = 0.375*[#  47]+0.375*[#  60]+0.124*[#  48]+0.124*[#  61]
    |psi|^2 = 1.000
==== e(  33) =   -36.95620 eV ==== 
     psi = 0.375*[#  48]+0.375*[#  61]+0.124*[#  47]+0.124*[#  60]
    |psi|^2 = 1.000
==== e(  34) =   -36.95367 eV ==== 
     psi = 0.372*[#  48]+0.372*[#  61]+0.128*[#  47]+0.128*[#  60]
    |psi|^2 = 1.000
==== e(  35) =   -36.95342 eV ==== 
     psi = 0.371*[#  47]+0.371*[#  60]+0.128*[#  48]+0.128*[#  61]+0.001*[#  46]
          +0.001*[#  59]
    |psi|^2 = 1.000
==== e(  36) =   -12.49351 eV ==== 
     psi = 0.357*[#   9]+0.357*[#  22]+0.119*[#   8]+0.119*[#  21]+0.017*[#   6]
          +0.017*[#  19]+0.006*[#   7]+0.006*[#  20]+0.001*[#   5]+0.001*[#  18]
          
    |psi|^2 = 1.000
==== e(  37) =   -12.49136 eV ==== 
     psi = 0.370*[#   9]+0.370*[#  22]+0.123*[#   8]+0.123*[#  21]+0.004*[#   6]
          +0.004*[#  19]+0.002*[#   5]+0.002*[#  18]+0.001*[#   7]+0.001*[#  20]
          
    |psi|^2 = 1.000
==== e(  38) =   -12.49118 eV ==== 
     psi = 0.359*[#   8]+0.359*[#  21]+0.120*[#   9]+0.120*[#  22]+0.015*[#   7]
          +0.015*[#  20]+0.005*[#   6]+0.005*[#  19]
    |psi|^2 = 1.000
==== e(  39) =   -12.48925 eV ==== 
     psi = 0.372*[#   8]+0.372*[#  21]+0.124*[#   9]+0.124*[#  22]+0.003*[#   7]
          +0.003*[#  20]
    |psi|^2 = 1.000
==== e(  40) =   -12.47973 eV ==== 
     psi = 0.494*[#   5]+0.494*[#  18]+0.003*[#   6]+0.003*[#  19]+0.001*[#   9]
          +0.001*[#  22]
    |psi|^2 = 1.000
==== e(  41) =   -12.47688 eV ==== 
     psi = 0.488*[#   5]+0.488*[#  18]+0.008*[#   6]+0.008*[#  19]+0.003*[#   7]
          +0.003*[#  20]
    |psi|^2 = 1.000
==== e(  42) =   -12.47135 eV ==== 
     psi = 0.362*[#   6]+0.362*[#  19]+0.119*[#   7]+0.119*[#  20]+0.011*[#   5]
          +0.011*[#  18]+0.006*[#   9]+0.006*[#  22]+0.002*[#   8]+0.002*[#  21]
          
    |psi|^2 = 1.000
==== e(  43) =   -12.47071 eV ==== 
     psi = 0.372*[#   7]+0.372*[#  20]+0.122*[#   6]+0.122*[#  19]+0.004*[#   8]
          +0.004*[#  21]+0.001*[#   9]+0.001*[#  22]
    |psi|^2 = 1.000
==== e(  44) =   -12.46806 eV ==== 
     psi = 0.357*[#   6]+0.357*[#  19]+0.118*[#   7]+0.118*[#  20]+0.016*[#   9]
          +0.016*[#  22]+0.005*[#   8]+0.005*[#  21]+0.004*[#   5]+0.004*[#  18]
          
    |psi|^2 = 1.000
==== e(  45) =   -12.46704 eV ==== 
     psi = 0.361*[#   7]+0.361*[#  20]+0.119*[#   6]+0.119*[#  19]+0.014*[#   8]
          +0.014*[#  21]+0.005*[#   9]+0.005*[#  22]
    |psi|^2 = 1.000
==== e(  46) =    -3.79791 eV ==== 
     psi = 0.380*[#  36]+0.174*[#  10]+0.174*[#  23]+0.118*[#  49]+0.118*[#  62]
          +0.006*[#  12]+0.006*[#  25]+0.006*[#  11]+0.006*[#  24]+0.002*[#  13]
          +0.002*[#  26]+0.002*[#  38]+0.002*[#  50]+0.002*[#  63]+0.001*[#  51]
          +0.001*[#  64]
    |psi|^2 = 1.000
==== e(  47) =    -2.58667 eV ==== 
     psi = 0.254*[#  49]+0.254*[#  62]+0.141*[#  10]+0.141*[#  23]+0.060*[#  36]
          +0.035*[#  11]+0.035*[#  24]+0.029*[#  37]+0.022*[#  50]+0.022*[#  63]
          +0.002*[#  12]+0.002*[#  25]
    |psi|^2 = 1.000
==== e(  48) =    -2.45783 eV ==== 
     psi = 0.262*[#  49]+0.262*[#  62]+0.221*[#  36]+0.074*[#  11]+0.074*[#  24]
          +0.038*[#  10]+0.038*[#  23]+0.009*[#  50]+0.009*[#  63]+0.008*[#  37]
          
    |psi|^2 = 0.999
==== e(  49) =     0.68272 eV ==== 
     psi = 0.234*[#  10]+0.234*[#  23]+0.201*[#  49]+0.201*[#  62]+0.085*[#  37]
          +0.016*[#  11]+0.016*[#  24]+0.004*[#  50]+0.004*[#  63]+0.001*[#  36]
          
    |psi|^2 = 1.000
==== e(  50) =     1.39800 eV ==== 
     psi = 0.280*[#  10]+0.280*[#  23]+0.213*[#  36]+0.066*[#  49]+0.066*[#  62]
          +0.043*[#  50]+0.043*[#  63]+0.003*[#  38]
    |psi|^2 = 0.999
==== e(  51) =     7.77742 eV ==== 
     psi = 0.224*[#  50]+0.224*[#  63]+0.194*[#  38]+0.065*[#  39]+0.041*[#  12]
          +0.041*[#  25]+0.034*[#  11]+0.034*[#  24]+0.023*[#  51]+0.023*[#  64]
          +0.014*[#  13]+0.014*[#  26]+0.012*[#  10]+0.012*[#  23]+0.011*[#  36]
          +0.010*[#  37]+0.008*[#  52]+0.008*[#  65]
    |psi|^2 = 0.992
==== e(  52) =     7.93527 eV ==== 
     psi = 0.402*[#  37]+0.102*[#  11]+0.102*[#  24]+0.060*[#  51]+0.060*[#  64]
          +0.053*[#  50]+0.053*[#  63]+0.022*[#  12]+0.022*[#  25]+0.020*[#  52]
          +0.020*[#  65]+0.017*[#  10]+0.017*[#  23]+0.014*[#  49]+0.014*[#  62]
          +0.007*[#  13]+0.007*[#  26]
    |psi|^2 = 0.996
==== e(  53) =     8.38181 eV ==== 
     psi = 0.454*[#  39]+0.151*[#  38]+0.080*[#  13]+0.080*[#  26]+0.065*[#  52]
          +0.065*[#  65]+0.027*[#  12]+0.027*[#  25]+0.022*[#  51]+0.022*[#  64]
          
    |psi|^2 = 0.994
==== e(  54) =     8.67252 eV ==== 
     psi = 0.351*[#  38]+0.120*[#  50]+0.120*[#  63]+0.117*[#  39]+0.043*[#  51]
          +0.043*[#  64]+0.024*[#  11]+0.024*[#  24]+0.016*[#  10]+0.016*[#  23]
          +0.016*[#  37]+0.014*[#  49]+0.014*[#  52]+0.014*[#  62]+0.014*[#  65]
          +0.013*[#  12]+0.013*[#  25]+0.004*[#  13]+0.004*[#  26]+0.002*[#  36]
          
    |psi|^2 = 0.988
==== e(  55) =     9.12299 eV ==== 
     psi = 0.270*[#  52]+0.270*[#  65]+0.166*[#  39]+0.090*[#  51]+0.090*[#  64]
          +0.055*[#  38]+0.019*[#  13]+0.019*[#  26]+0.006*[#  12]+0.006*[#  25]
          
    |psi|^2 = 0.992
==== e(  56) =     9.14818 eV ==== 
     psi = 0.234*[#  51]+0.234*[#  64]+0.112*[#  37]+0.078*[#  52]+0.078*[#  65]
          +0.040*[#  11]+0.040*[#  24]+0.027*[#  50]+0.027*[#  63]+0.027*[#  12]
          +0.027*[#  25]+0.018*[#  36]+0.012*[#  10]+0.012*[#  23]+0.009*[#  13]
          +0.009*[#  26]+0.004*[#  49]+0.004*[#  62]
    |psi|^2 = 0.990
==== e(  57) =     9.49288 eV ==== 
     psi = 0.196*[#  51]+0.196*[#  64]+0.065*[#  52]+0.065*[#  65]+0.062*[#  38]
          +0.058*[#  12]+0.058*[#  25]+0.049*[#  50]+0.049*[#  63]+0.033*[#  11]
          +0.033*[#  24]+0.030*[#  37]+0.021*[#  39]+0.019*[#  13]+0.019*[#  26]
          +0.016*[#  36]+0.005*[#  10]+0.005*[#  23]+0.004*[#  49]+0.004*[#  62]
          
    |psi|^2 = 0.991
==== e(  58) =     9.52141 eV ==== 
     psi = 0.276*[#  52]+0.276*[#  65]+0.092*[#  51]+0.092*[#  64]+0.079*[#  13]
          +0.079*[#  26]+0.028*[#  39]+0.026*[#  12]+0.026*[#  25]+0.009*[#  38]
          
    |psi|^2 = 0.986
==== e(  59) =    10.04288 eV ==== 
     psi = 0.207*[#  50]+0.207*[#  63]+0.090*[#  37]+0.068*[#  12]+0.068*[#  25]
          +0.051*[#  11]+0.051*[#  24]+0.049*[#  10]+0.049*[#  23]+0.023*[#  13]
          +0.023*[#  26]+0.020*[#  51]+0.020*[#  64]+0.016*[#  49]+0.016*[#  62]
          +0.008*[#  36]+0.007*[#  52]+0.007*[#  65]+0.002*[#  38]
    |psi|^2 = 0.984
==== e(  60) =    11.41565 eV ==== 
     psi = 0.250*[#  11]+0.250*[#  24]+0.063*[#  51]+0.063*[#  64]+0.061*[#  36]
          +0.046*[#  50]+0.046*[#  63]+0.039*[#  38]+0.027*[#  49]+0.027*[#  62]
          +0.021*[#  52]+0.021*[#  65]+0.013*[#  39]+0.010*[#  37]+0.008*[#  10]
          +0.008*[#  23]+0.004*[#  12]+0.004*[#  25]+0.001*[#  13]+0.001*[#  26]
          +0.001*[#  27]
    |psi|^2 = 0.970
==== e(  61) =    12.02924 eV ==== 
     psi = 0.282*[#  13]+0.282*[#  26]+0.094*[#  12]+0.094*[#  25]+0.073*[#  52]
          +0.073*[#  65]+0.024*[#  51]+0.024*[#  64]+0.014*[#  39]+0.005*[#  38]
          
    |psi|^2 = 0.966
==== e(  62) =    12.39974 eV ==== 
     psi = 0.192*[#  12]+0.192*[#  25]+0.131*[#  50]+0.131*[#  63]+0.064*[#  13]
          +0.064*[#  26]+0.035*[#  51]+0.035*[#  64]+0.030*[#  11]+0.030*[#  24]
          +0.012*[#  52]+0.012*[#  65]+0.011*[#  37]+0.006*[#  10]+0.006*[#  23]
          +0.003*[#  38]+0.002*[#  36]
    |psi|^2 = 0.960
==== e(  63) =    12.94885 eV ==== 
     psi = 0.263*[#  12]+0.263*[#  25]+0.088*[#  13]+0.088*[#  26]+0.084*[#  38]
          +0.041*[#  51]+0.041*[#  64]+0.028*[#  39]+0.014*[#  52]+0.014*[#  65]
          +0.009*[#  50]+0.009*[#  63]+0.006*[#  49]+0.006*[#  62]+0.004*[#  11]
          +0.004*[#  24]+0.003*[#  10]+0.003*[#  23]+0.002*[#  36]
    |psi|^2 = 0.972
==== e(  64) =    13.06754 eV ==== 
     psi = 0.268*[#  11]+0.268*[#  24]+0.180*[#  37]+0.032*[#  12]+0.032*[#  25]
          +0.030*[#  50]+0.030*[#  63]+0.020*[#  51]+0.020*[#  64]+0.011*[#  13]
          +0.011*[#  26]+0.009*[#  49]+0.009*[#  62]+0.007*[#  52]+0.007*[#  65]
          +0.002*[#  10]+0.002*[#  23]
    |psi|^2 = 0.941
==== e(  65) =    13.23200 eV ==== 
     psi = 0.272*[#  13]+0.272*[#  26]+0.091*[#  12]+0.091*[#  25]+0.078*[#  39]
          +0.056*[#  52]+0.056*[#  65]+0.026*[#  38]+0.019*[#  51]+0.019*[#  64]
          
    |psi|^2 = 0.977
==== e(  66) =    16.09973 eV ==== 
     psi = 0.005*[#  11]+0.005*[#  24]+0.003*[#  50]+0.003*[#  63]+0.001*[#  12]
          +0.001*[#  25]
    |psi|^2 = 0.021
==== e(  67) =    16.42368 eV ==== 
     psi = 0.006*[#  11]+0.006*[#  24]+0.004*[#  50]+0.004*[#  63]+0.001*[#  12]
          +0.001*[#  25]
    |psi|^2 = 0.025
==== e(  68) =    17.50219 eV ==== 
 
    |psi|^2 = 0.002
==== e(  69) =    17.61528 eV ==== 
     psi = 0.002*[#  50]+0.002*[#  63]+0.001*[#  11]+0.001*[#  24]
    |psi|^2 = 0.007
==== e(  70) =    18.00175 eV ==== 
 
    |psi|^2 = 0.001
==== e(  71) =    18.38596 eV ==== 
     psi = 0.001*[#  13]+0.001*[#  26]
    |psi|^2 = 0.004

 k =   0.0833333453 -0.0481125176  0.2287651589
==== e(   1) =  -197.53337 eV ==== 
     psi = 0.998*[#  27]+0.001*[#  11]+0.001*[#  24]
    |psi|^2 = 1.000
==== e(   2) =  -197.35811 eV ==== 
     psi = 0.499*[#  40]+0.499*[#  53]
    |psi|^2 = 1.000
==== e(   3) =  -197.35811 eV ==== 
     psi = 0.499*[#  40]+0.499*[#  53]
    |psi|^2 = 1.000
==== e(   4) =  -143.18732 eV ==== 
     psi = 0.499*[#   1]+0.499*[#  14]
    |psi|^2 = 1.000
==== e(   5) =  -143.18731 eV ==== 
     psi = 0.499*[#   1]+0.499*[#  14]+0.001*[#  37]
    |psi|^2 = 1.000
==== e(   6) =  -137.01381 eV ==== 
     psi = 0.999*[#  28]
    |psi|^2 = 1.000
==== e(   7) =  -136.98653 eV ==== 
     psi = 0.756*[#  29]+0.243*[#  30]
    |psi|^2 = 1.000
==== e(   8) =  -136.98579 eV ==== 
     psi = 0.757*[#  30]+0.243*[#  29]
    |psi|^2 = 1.000
==== e(   9) =  -136.83832 eV ==== 
     psi = 0.499*[#  41]+0.499*[#  54]
    |psi|^2 = 1.000
==== e(  10) =  -136.83656 eV ==== 
     psi = 0.500*[#  41]+0.500*[#  54]
    |psi|^2 = 1.000
==== e(  11) =  -136.80522 eV ==== 
     psi = 0.375*[#  42]+0.375*[#  55]+0.124*[#  43]+0.124*[#  56]
    |psi|^2 = 1.000
==== e(  12) =  -136.80285 eV ==== 
     psi = 0.375*[#  43]+0.375*[#  56]+0.125*[#  42]+0.125*[#  55]
    |psi|^2 = 1.000
==== e(  13) =  -136.80218 eV ==== 
     psi = 0.374*[#  43]+0.374*[#  56]+0.126*[#  42]+0.126*[#  55]
    |psi|^2 = 1.000
==== e(  14) =  -136.80129 eV ==== 
     psi = 0.373*[#  42]+0.373*[#  55]+0.127*[#  43]+0.127*[#  56]
    |psi|^2 = 1.000
==== e(  15) =   -81.21469 eV ==== 
     psi = 0.495*[#   3]+0.495*[#  16]+0.005*[#   4]+0.005*[#  17]
    |psi|^2 = 1.000
==== e(  16) =   -81.21469 eV ==== 
     psi = 0.495*[#   3]+0.495*[#  16]+0.004*[#   4]+0.004*[#  17]
    |psi|^2 = 1.000
==== e(  17) =   -81.21468 eV ==== 
     psi = 0.495*[#   4]+0.495*[#  17]+0.004*[#   3]+0.004*[#  16]
    |psi|^2 = 1.000
==== e(  18) =   -81.21468 eV ==== 
     psi = 0.495*[#   4]+0.495*[#  17]+0.005*[#   3]+0.005*[#  16]
    |psi|^2 = 1.000
==== e(  19) =   -81.20923 eV ==== 
     psi = 0.500*[#   2]+0.500*[#  15]
    |psi|^2 = 1.000
==== e(  20) =   -81.20923 eV ==== 
     psi = 0.500*[#   2]+0.500*[#  15]
    |psi|^2 = 1.000
==== e(  21) =   -37.18453 eV ==== 
     psi = 0.875*[#  31]+0.093*[#  32]+0.031*[#  33]
    |psi|^2 = 1.000
==== e(  22) =   -37.18217 eV ==== 
     psi = 0.745*[#  33]+0.254*[#  32]
    |psi|^2 = 1.000
==== e(  23) =   -37.18142 eV ==== 
     psi = 0.650*[#  32]+0.223*[#  33]+0.123*[#  31]+0.003*[#  35]
    |psi|^2 = 1.000
==== e(  24) =   -37.15347 eV ==== 
     psi = 0.749*[#  34]+0.251*[#  35]
    |psi|^2 = 1.000
==== e(  25) =   -37.15177 eV ==== 
     psi = 0.746*[#  35]+0.250*[#  34]+0.002*[#  32]+0.001*[#  31]
    |psi|^2 = 1.000
==== e(  26) =   -36.99682 eV ==== 
     psi = 0.483*[#  44]+0.483*[#  57]+0.011*[#  45]+0.011*[#  58]+0.004*[#  46]
          +0.004*[#  59]+0.002*[#  48]+0.002*[#  61]
    |psi|^2 = 1.000
==== e(  27) =   -36.99232 eV ==== 
     psi = 0.443*[#  44]+0.443*[#  57]+0.043*[#  45]+0.043*[#  58]+0.014*[#  46]
          +0.014*[#  59]
    |psi|^2 = 1.000
==== e(  28) =   -36.98974 eV ==== 
     psi = 0.336*[#  45]+0.336*[#  58]+0.110*[#  46]+0.110*[#  59]+0.054*[#  44]
          +0.054*[#  57]
    |psi|^2 = 1.000
==== e(  29) =   -36.98924 eV ==== 
     psi = 0.375*[#  46]+0.375*[#  59]+0.125*[#  45]+0.125*[#  58]
    |psi|^2 = 1.000
==== e(  30) =   -36.98856 eV ==== 
     psi = 0.373*[#  46]+0.373*[#  59]+0.123*[#  45]+0.123*[#  58]+0.003*[#  47]
          +0.003*[#  60]+0.001*[#  48]+0.001*[#  61]
    |psi|^2 = 1.000
==== e(  31) =   -36.98653 eV ==== 
     psi = 0.360*[#  45]+0.360*[#  58]+0.121*[#  46]+0.121*[#  59]+0.018*[#  44]
          +0.018*[#  57]
    |psi|^2 = 1.000
==== e(  32) =   -36.95801 eV ==== 
     psi = 0.372*[#  47]+0.372*[#  60]+0.124*[#  48]+0.124*[#  61]+0.003*[#  46]
          +0.003*[#  59]+0.001*[#  45]+0.001*[#  58]
    |psi|^2 = 1.000
==== e(  33) =   -36.95556 eV ==== 
     psi = 0.373*[#  48]+0.373*[#  61]+0.124*[#  47]+0.124*[#  60]+0.002*[#  44]
          +0.002*[#  57]
    |psi|^2 = 1.000
==== e(  34) =   -36.95309 eV ==== 
     psi = 0.376*[#  47]+0.376*[#  60]+0.124*[#  48]+0.124*[#  61]
    |psi|^2 = 1.000
==== e(  35) =   -36.95250 eV ==== 
     psi = 0.375*[#  48]+0.375*[#  61]+0.123*[#  47]+0.123*[#  60]
    |psi|^2 = 1.000
==== e(  36) =   -12.49351 eV ==== 
     psi = 0.357*[#   9]+0.357*[#  22]+0.119*[#   8]+0.119*[#  21]+0.017*[#   6]
          +0.017*[#  19]+0.006*[#   7]+0.006*[#  20]+0.001*[#   5]+0.001*[#  18]
          
    |psi|^2 = 1.000
==== e(  37) =   -12.49135 eV ==== 
     psi = 0.370*[#   9]+0.370*[#  22]+0.123*[#   8]+0.123*[#  21]+0.004*[#   6]
          +0.004*[#  19]+0.002*[#   5]+0.002*[#  18]+0.001*[#   7]+0.001*[#  20]
          
    |psi|^2 = 1.000
==== e(  38) =   -12.49119 eV ==== 
     psi = 0.359*[#   8]+0.359*[#  21]+0.120*[#   9]+0.120*[#  22]+0.015*[#   7]
          +0.015*[#  20]+0.005*[#   6]+0.005*[#  19]
    |psi|^2 = 1.000
==== e(  39) =   -12.48925 eV ==== 
     psi = 0.372*[#   8]+0.372*[#  21]+0.124*[#   9]+0.124*[#  22]+0.003*[#   7]
          +0.003*[#  20]
    |psi|^2 = 1.000
==== e(  40) =   -12.47956 eV ==== 
     psi = 0.494*[#   5]+0.494*[#  18]+0.003*[#   6]+0.003*[#  19]+0.001*[#   9]
          +0.001*[#  22]
    |psi|^2 = 1.000
==== e(  41) =   -12.47706 eV ==== 
     psi = 0.488*[#   5]+0.488*[#  18]+0.008*[#   6]+0.008*[#  19]+0.003*[#   7]
          +0.003*[#  20]
    |psi|^2 = 1.000
==== e(  42) =   -12.47138 eV ==== 
     psi = 0.363*[#   6]+0.363*[#  19]+0.119*[#   7]+0.119*[#  20]+0.011*[#   5]
          +0.011*[#  18]+0.005*[#   9]+0.005*[#  22]+0.002*[#   8]+0.002*[#  21]
          
    |psi|^2 = 1.000
==== e(  43) =   -12.47074 eV ==== 
     psi = 0.372*[#   7]+0.372*[#  20]+0.122*[#   6]+0.122*[#  19]+0.004*[#   8]
          +0.004*[#  21]+0.001*[#   9]+0.001*[#  22]
    |psi|^2 = 1.000
==== e(  44) =   -12.46802 eV ==== 
     psi = 0.357*[#   6]+0.357*[#  19]+0.118*[#   7]+0.118*[#  20]+0.016*[#   9]
          +0.016*[#  22]+0.005*[#   8]+0.005*[#  21]+0.004*[#   5]+0.004*[#  18]
          
    |psi|^2 = 1.000
==== e(  45) =   -12.46701 eV ==== 
     psi = 0.361*[#   7]+0.361*[#  20]+0.119*[#   6]+0.119*[#  19]+0.014*[#   8]
          +0.014*[#  21]+0.005*[#   9]+0.005*[#  22]
    |psi|^2 = 1.000
==== e(  46) =    -3.67771 eV ==== 
     psi = 0.470*[#  36]+0.169*[#  10]+0.169*[#  23]+0.051*[#  49]+0.051*[#  62]
          +0.020*[#  11]+0.020*[#  24]+0.016*[#  50]+0.016*[#  63]+0.005*[#  12]
          +0.005*[#  25]+0.002*[#  13]+0.002*[#  26]+0.002*[#  38]
    |psi|^2 = 1.000
==== e(  47) =    -3.15246 eV ==== 
     psi = 0.324*[#  49]+0.324*[#  62]+0.119*[#  10]+0.119*[#  23]+0.037*[#  11]
          +0.037*[#  24]+0.024*[#  37]+0.003*[#  12]+0.003*[#  25]+0.002*[#  36]
          +0.001*[#  51]+0.001*[#  64]
    |psi|^2 = 1.000
==== e(  48) =    -1.81087 eV ==== 
     psi = 0.284*[#  49]+0.284*[#  62]+0.221*[#  36]+0.067*[#  11]+0.067*[#  24]
          +0.024*[#  10]+0.024*[#  23]+0.013*[#  50]+0.013*[#  63]
    |psi|^2 = 0.999
==== e(  49) =     0.11561 eV ==== 
     psi = 0.291*[#  10]+0.291*[#  23]+0.114*[#  49]+0.114*[#  62]+0.091*[#  37]
          +0.037*[#  50]+0.037*[#  63]+0.011*[#  11]+0.011*[#  24]
    |psi|^2 = 1.000
==== e(  50) =     1.80635 eV ==== 
     psi = 0.267*[#  10]+0.267*[#  23]+0.182*[#  36]+0.127*[#  49]+0.127*[#  62]
          +0.009*[#  50]+0.009*[#  63]+0.004*[#  38]+0.002*[#  51]+0.002*[#  64]
          +0.001*[#  39]
    |psi|^2 = 0.999
==== e(  51) =     7.64688 eV ==== 
     psi = 0.295*[#  37]+0.274*[#  50]+0.274*[#  63]+0.074*[#  11]+0.074*[#  24]
          
    |psi|^2 = 0.994
==== e(  52) =     8.08763 eV ==== 
     psi = 0.314*[#  38]+0.105*[#  39]+0.063*[#  12]+0.063*[#  25]+0.057*[#  37]
          +0.052*[#  51]+0.052*[#  64]+0.045*[#  11]+0.045*[#  24]+0.035*[#  50]
          +0.035*[#  63]+0.021*[#  13]+0.021*[#  26]+0.017*[#  52]+0.017*[#  65]
          +0.011*[#  10]+0.011*[#  23]+0.009*[#  49]+0.009*[#  62]+0.008*[#  36]
          
    |psi|^2 = 0.991
==== e(  53) =     8.44438 eV ==== 
     psi = 0.543*[#  39]+0.181*[#  38]+0.077*[#  13]+0.077*[#  26]+0.026*[#  12]
          +0.026*[#  25]+0.024*[#  52]+0.024*[#  65]+0.008*[#  51]+0.008*[#  64]
          
    |psi|^2 = 0.994
==== e(  54) =     8.49412 eV ==== 
     psi = 0.185*[#  38]+0.133*[#  37]+0.089*[#  50]+0.089*[#  63]+0.062*[#  39]
          +0.053*[#  51]+0.053*[#  64]+0.043*[#  12]+0.043*[#  25]+0.043*[#  11]
          +0.043*[#  24]+0.028*[#  10]+0.028*[#  23]+0.018*[#  52]+0.018*[#  65]
          +0.014*[#  13]+0.014*[#  26]+0.014*[#  49]+0.014*[#  62]+0.004*[#  36]
          
    |psi|^2 = 0.991
==== e(  55) =     8.83657 eV ==== 
     psi = 0.275*[#  51]+0.275*[#  64]+0.092*[#  52]+0.092*[#  65]+0.040*[#  12]
          +0.040*[#  25]+0.036*[#  11]+0.036*[#  24]+0.019*[#  36]+0.016*[#  37]
          +0.013*[#  13]+0.013*[#  26]+0.013*[#  38]+0.009*[#  50]+0.009*[#  63]
          +0.004*[#  10]+0.004*[#  23]+0.004*[#  39]+0.002*[#  49]+0.002*[#  62]
          
    |psi|^2 = 0.992
==== e(  56) =     8.91366 eV ==== 
     psi = 0.316*[#  52]+0.316*[#  65]+0.105*[#  51]+0.105*[#  64]+0.053*[#  13]
          +0.053*[#  26]+0.018*[#  12]+0.018*[#  25]+0.005*[#  39]+0.002*[#  38]
          
    |psi|^2 = 0.993
==== e(  57) =     9.70140 eV ==== 
     psi = 0.276*[#  52]+0.276*[#  65]+0.107*[#  39]+0.092*[#  51]+0.092*[#  64]
          +0.039*[#  13]+0.039*[#  26]+0.036*[#  38]+0.013*[#  12]+0.013*[#  25]
          
    |psi|^2 = 0.986
==== e(  58) =    10.06081 eV ==== 
     psi = 0.210*[#  51]+0.210*[#  64]+0.165*[#  37]+0.070*[#  52]+0.070*[#  65]
          +0.057*[#  50]+0.057*[#  63]+0.038*[#  10]+0.038*[#  23]+0.023*[#  38]
          +0.012*[#  12]+0.012*[#  25]+0.008*[#  39]+0.004*[#  13]+0.004*[#  26]
          +0.001*[#  11]+0.001*[#  24]
    |psi|^2 = 0.984
==== e(  59) =    10.15845 eV ==== 
     psi = 0.227*[#  50]+0.227*[#  63]+0.111*[#  38]+0.089*[#  11]+0.089*[#  24]
          +0.037*[#  39]+0.025*[#  36]+0.021*[#  49]+0.021*[#  62]+0.020*[#  10]
          +0.020*[#  23]+0.019*[#  51]+0.019*[#  64]+0.018*[#  37]+0.011*[#  12]
          +0.011*[#  25]+0.006*[#  52]+0.006*[#  65]+0.004*[#  13]+0.004*[#  26]
          
    |psi|^2 = 0.987
==== e(  60) =    11.51058 eV ==== 
     psi = 0.194*[#  11]+0.194*[#  24]+0.110*[#  50]+0.110*[#  63]+0.057*[#  36]
          +0.054*[#  12]+0.054*[#  25]+0.035*[#  51]+0.035*[#  64]+0.020*[#  10]
          +0.020*[#  23]+0.018*[#  13]+0.018*[#  26]+0.012*[#  52]+0.012*[#  65]
          +0.008*[#  49]+0.008*[#  62]+0.007*[#  37]+0.001*[#  27]
    |psi|^2 = 0.968
==== e(  61) =    11.66775 eV ==== 
     psi = 0.199*[#  12]+0.199*[#  25]+0.131*[#  11]+0.131*[#  24]+0.066*[#  13]
          +0.066*[#  26]+0.028*[#  49]+0.028*[#  62]+0.024*[#  51]+0.024*[#  64]
          +0.020*[#  50]+0.020*[#  63]+0.008*[#  38]+0.008*[#  52]+0.008*[#  65]
          +0.006*[#  36]+0.003*[#  37]+0.003*[#  39]
    |psi|^2 = 0.973
==== e(  62) =    12.02163 eV ==== 
     psi = 0.294*[#  13]+0.294*[#  26]+0.098*[#  12]+0.098*[#  25]+0.068*[#  52]
          +0.068*[#  65]+0.023*[#  51]+0.023*[#  64]
    |psi|^2 = 0.966
==== e(  63) =    13.05406 eV ==== 
     psi = 0.140*[#  12]+0.140*[#  25]+0.128*[#  11]+0.128*[#  24]+0.091*[#  37]
          +0.062*[#  50]+0.062*[#  63]+0.047*[#  13]+0.047*[#  26]+0.033*[#  38]
          +0.017*[#  51]+0.017*[#  64]+0.011*[#  39]+0.009*[#  49]+0.009*[#  62]
          +0.006*[#  52]+0.006*[#  65]+0.004*[#  10]+0.004*[#  23]
    |psi|^2 = 0.960
==== e(  64) =    13.16853 eV ==== 
     psi = 0.267*[#  13]+0.267*[#  26]+0.089*[#  12]+0.089*[#  25]+0.083*[#  39]
          +0.055*[#  52]+0.055*[#  65]+0.028*[#  38]+0.018*[#  51]+0.018*[#  64]
          
    |psi|^2 = 0.971
==== e(  65) =    13.36939 eV ==== 
     psi = 0.159*[#  12]+0.159*[#  25]+0.101*[#  11]+0.101*[#  24]+0.086*[#  37]
          +0.053*[#  13]+0.053*[#  26]+0.051*[#  51]+0.051*[#  64]+0.045*[#  38]
          +0.024*[#  50]+0.024*[#  63]+0.017*[#  52]+0.017*[#  65]+0.015*[#  39]
          +0.005*[#  49]+0.005*[#  62]+0.002*[#  10]+0.002*[#  23]
    |psi|^2 = 0.967
==== e(  66) =    16.08738 eV ==== 
     psi = 0.002*[#  50]+0.002*[#  63]
    |psi|^2 = 0.008
==== e(  67) =    16.60785 eV ==== 
 
    |psi|^2 = 0.004
==== e(  68) =    17.27642 eV ==== 
 
    |psi|^2 = 0.002
==== e(  69) =    17.42234 eV ==== 
     psi = 0.004*[#  11]+0.004*[#  24]+0.002*[#  50]+0.002*[#  63]+0.001*[#  36]
          
    |psi|^2 = 0.018
==== e(  70) =    17.79012 eV ==== 
     psi = 0.002*[#  11]+0.002*[#  24]+0.001*[#  50]+0.001*[#  63]
    |psi|^2 = 0.013
==== e(  71) =    18.84618 eV ==== 
     psi = 0.003*[#  12]+0.003*[#  25]+0.002*[#  51]+0.002*[#  64]+0.001*[#  13]
          +0.001*[#  26]
    |psi|^2 = 0.014

 k =   0.1666667007 -0.0962250409  0.0240805340
==== e(   1) =  -197.53337 eV ==== 
     psi = 0.998*[#  27]
    |psi|^2 = 1.000
==== e(   2) =  -197.35811 eV ==== 
     psi = 0.499*[#  40]+0.499*[#  53]
    |psi|^2 = 1.000
==== e(   3) =  -197.35811 eV ==== 
     psi = 0.499*[#  40]+0.499*[#  53]
    |psi|^2 = 1.000
==== e(   4) =  -143.18732 eV ==== 
     psi = 0.499*[#   1]+0.499*[#  14]+0.001*[#  37]
    |psi|^2 = 1.000
==== e(   5) =  -143.18731 eV ==== 
     psi = 0.499*[#   1]+0.499*[#  14]
    |psi|^2 = 1.000
==== e(   6) =  -137.01412 eV ==== 
     psi = 1.000*[#  28]
    |psi|^2 = 1.000
==== e(   7) =  -136.98602 eV ==== 
     psi = 0.759*[#  29]+0.241*[#  30]
    |psi|^2 = 1.000
==== e(   8) =  -136.98548 eV ==== 
     psi = 0.759*[#  30]+0.241*[#  29]
    |psi|^2 = 1.000
==== e(   9) =  -136.83833 eV ==== 
     psi = 0.500*[#  41]+0.500*[#  54]
    |psi|^2 = 1.000
==== e(  10) =  -136.83720 eV ==== 
     psi = 0.500*[#  41]+0.500*[#  54]
    |psi|^2 = 1.000
==== e(  11) =  -136.80309 eV ==== 
     psi = 0.376*[#  42]+0.376*[#  55]+0.124*[#  43]+0.124*[#  56]
    |psi|^2 = 1.000
==== e(  12) =  -136.80258 eV ==== 
     psi = 0.368*[#  43]+0.368*[#  56]+0.131*[#  42]+0.131*[#  55]
    |psi|^2 = 1.000
==== e(  13) =  -136.80235 eV ==== 
     psi = 0.368*[#  42]+0.368*[#  55]+0.131*[#  43]+0.131*[#  56]
    |psi|^2 = 1.000
==== e(  14) =  -136.80181 eV ==== 
     psi = 0.376*[#  43]+0.376*[#  56]+0.124*[#  42]+0.124*[#  55]
    |psi|^2 = 1.000
==== e(  15) =   -81.21470 eV ==== 
     psi = 0.468*[#   3]+0.468*[#  16]+0.032*[#   4]+0.032*[#  17]
    |psi|^2 = 1.000
==== e(  16) =   -81.21470 eV ==== 
     psi = 0.470*[#   3]+0.470*[#  16]+0.030*[#   4]+0.030*[#  17]
    |psi|^2 = 1.000
==== e(  17) =   -81.21468 eV ==== 
     psi = 0.470*[#   4]+0.470*[#  17]+0.030*[#   3]+0.030*[#  16]
    |psi|^2 = 1.000
==== e(  18) =   -81.21468 eV ==== 
     psi = 0.468*[#   4]+0.468*[#  17]+0.032*[#   3]+0.032*[#  16]
    |psi|^2 = 1.000
==== e(  19) =   -81.20923 eV ==== 
     psi = 0.500*[#   2]+0.500*[#  15]
    |psi|^2 = 1.000
==== e(  20) =   -81.20923 eV ==== 
     psi = 0.500*[#   2]+0.500*[#  15]
    |psi|^2 = 1.000
==== e(  21) =   -37.18697 eV ==== 
     psi = 0.998*[#  31]+0.001*[#  32]
    |psi|^2 = 1.000
==== e(  22) =   -37.18048 eV ==== 
     psi = 0.733*[#  33]+0.265*[#  32]
    |psi|^2 = 1.000
==== e(  23) =   -37.18027 eV ==== 
     psi = 0.732*[#  32]+0.265*[#  33]+0.002*[#  31]
    |psi|^2 = 1.000
==== e(  24) =   -37.15257 eV ==== 
     psi = 0.747*[#  34]+0.251*[#  35]
    |psi|^2 = 1.000
==== e(  25) =   -37.15171 eV ==== 
     psi = 0.747*[#  35]+0.251*[#  34]
    |psi|^2 = 1.000
==== e(  26) =   -36.99876 eV ==== 
     psi = 0.495*[#  44]+0.495*[#  57]+0.004*[#  45]+0.004*[#  58]+0.001*[#  46]
          +0.001*[#  59]
    |psi|^2 = 1.000
==== e(  27) =   -36.99546 eV ==== 
     psi = 0.496*[#  44]+0.496*[#  57]+0.003*[#  45]+0.003*[#  58]
    |psi|^2 = 1.000
==== e(  28) =   -36.98896 eV ==== 
     psi = 0.373*[#  46]+0.373*[#  59]+0.126*[#  45]+0.126*[#  58]+0.001*[#  47]
          +0.001*[#  60]
    |psi|^2 = 1.000
==== e(  29) =   -36.98842 eV ==== 
     psi = 0.369*[#  45]+0.369*[#  58]+0.124*[#  46]+0.124*[#  59]+0.007*[#  44]
          +0.007*[#  57]
    |psi|^2 = 1.000
==== e(  30) =   -36.98537 eV ==== 
     psi = 0.369*[#  46]+0.369*[#  59]+0.130*[#  45]+0.130*[#  58]+0.001*[#  47]
          +0.001*[#  60]
    |psi|^2 = 1.000
==== e(  31) =   -36.98528 eV ==== 
     psi = 0.368*[#  45]+0.368*[#  58]+0.130*[#  46]+0.130*[#  59]+0.001*[#  44]
          +0.001*[#  57]
    |psi|^2 = 1.000
==== e(  32) =   -36.95511 eV ==== 
     psi = 0.374*[#  47]+0.374*[#  60]+0.124*[#  48]+0.124*[#  61]+0.001*[#  46]
          +0.001*[#  59]
    |psi|^2 = 1.000
==== e(  33) =   -36.95453 eV ==== 
     psi = 0.370*[#  48]+0.370*[#  61]+0.129*[#  47]+0.129*[#  60]
    |psi|^2 = 1.000
==== e(  34) =   -36.95436 eV ==== 
     psi = 0.369*[#  47]+0.369*[#  60]+0.129*[#  48]+0.129*[#  61]+0.001*[#  46]
          +0.001*[#  59]
    |psi|^2 = 1.000
==== e(  35) =   -36.95336 eV ==== 
     psi = 0.375*[#  48]+0.375*[#  61]+0.124*[#  47]+0.124*[#  60]
    |psi|^2 = 1.000
==== e(  36) =   -12.49548 eV ==== 
     psi = 0.339*[#   9]+0.339*[#  22]+0.113*[#   8]+0.113*[#  21]+0.029*[#   6]
          +0.029*[#  19]+0.010*[#   7]+0.010*[#  20]+0.008*[#   5]+0.008*[#  18]
          
    |psi|^2 = 1.000
==== e(  37) =   -12.49270 eV ==== 
     psi = 0.355*[#   9]+0.355*[#  22]+0.118*[#   8]+0.118*[#  21]+0.013*[#   5]
          +0.013*[#  18]+0.010*[#   6]+0.010*[#  19]+0.003*[#   7]+0.003*[#  20]
          
    |psi|^2 = 1.000
==== e(  38) =   -12.48645 eV ==== 
     psi = 0.351*[#   8]+0.351*[#  21]+0.117*[#   9]+0.117*[#  22]+0.024*[#   7]
          +0.024*[#  20]+0.008*[#   6]+0.008*[#  19]
    |psi|^2 = 1.000
==== e(  39) =   -12.48452 eV ==== 
     psi = 0.369*[#   8]+0.369*[#  21]+0.123*[#   9]+0.123*[#  22]+0.006*[#   7]
          +0.006*[#  20]+0.002*[#   6]+0.002*[#  19]
    |psi|^2 = 1.000
==== e(  40) =   -12.47744 eV ==== 
     psi = 0.383*[#   5]+0.383*[#  18]+0.080*[#   6]+0.080*[#  19]+0.027*[#   7]
          +0.027*[#  20]+0.008*[#   9]+0.008*[#  22]+0.003*[#   8]+0.003*[#  21]
          
    |psi|^2 = 1.000
==== e(  41) =   -12.47589 eV ==== 
     psi = 0.283*[#   5]+0.283*[#  18]+0.153*[#   6]+0.153*[#  19]+0.051*[#   7]
          +0.051*[#  20]+0.010*[#   9]+0.010*[#  22]+0.003*[#   8]+0.003*[#  21]
          
    |psi|^2 = 1.000
==== e(  42) =   -12.47239 eV ==== 
     psi = 0.267*[#   5]+0.267*[#  18]+0.161*[#   6]+0.161*[#  19]+0.053*[#   7]
          +0.053*[#  20]+0.014*[#   9]+0.014*[#  22]+0.005*[#   8]+0.005*[#  21]
          
    |psi|^2 = 1.000
==== e(  43) =   -12.47170 eV ==== 
     psi = 0.364*[#   7]+0.364*[#  20]+0.121*[#   6]+0.121*[#  19]+0.011*[#   8]
          +0.011*[#  21]+0.004*[#   9]+0.004*[#  22]
    |psi|^2 = 1.000
==== e(  44) =   -12.47046 eV ==== 
     psi = 0.317*[#   6]+0.317*[#  19]+0.106*[#   7]+0.106*[#  20]+0.045*[#   5]
          +0.045*[#  18]+0.024*[#   9]+0.024*[#  22]+0.008*[#   8]+0.008*[#  21]
          
    |psi|^2 = 1.000
==== e(  45) =   -12.46712 eV ==== 
     psi = 0.356*[#   7]+0.356*[#  20]+0.118*[#   6]+0.118*[#  19]+0.019*[#   8]
          +0.019*[#  21]+0.006*[#   9]+0.006*[#  22]
    |psi|^2 = 1.000
==== e(  46) =    -3.61750 eV ==== 
     psi = 0.382*[#  36]+0.156*[#  10]+0.156*[#  23]+0.110*[#  49]+0.110*[#  62]
          +0.020*[#  12]+0.020*[#  25]+0.007*[#  13]+0.007*[#  26]+0.006*[#  38]
          +0.005*[#  11]+0.005*[#  24]+0.004*[#  51]+0.004*[#  64]+0.002*[#  39]
          +0.002*[#  50]+0.002*[#  63]+0.001*[#  52]+0.001*[#  65]
    |psi|^2 = 1.000
==== e(  47) =    -2.50243 eV ==== 
     psi = 0.268*[#  49]+0.268*[#  62]+0.116*[#  36]+0.102*[#  10]+0.102*[#  23]
          +0.041*[#  11]+0.041*[#  24]+0.017*[#  37]+0.014*[#  50]+0.014*[#  63]
          +0.004*[#  12]+0.004*[#  25]+0.001*[#  13]+0.001*[#  26]+0.001*[#  51]
          +0.001*[#  64]
    |psi|^2 = 0.999
==== e(  48) =    -2.28507 eV ==== 
     psi = 0.267*[#  49]+0.267*[#  62]+0.174*[#  36]+0.066*[#  10]+0.066*[#  23]
          +0.052*[#  11]+0.052*[#  24]+0.013*[#  50]+0.013*[#  63]+0.011*[#  37]
          +0.005*[#  12]+0.005*[#  25]+0.002*[#  13]+0.002*[#  26]+0.001*[#  51]
          +0.001*[#  64]
    |psi|^2 = 0.999
==== e(  49) =     0.58131 eV ==== 
     psi = 0.254*[#  10]+0.254*[#  23]+0.184*[#  49]+0.184*[#  62]+0.070*[#  37]
          +0.011*[#  11]+0.011*[#  24]+0.006*[#  50]+0.006*[#  63]+0.006*[#  36]
          +0.004*[#  51]+0.004*[#  64]+0.001*[#  38]+0.001*[#  52]+0.001*[#  65]
          
    |psi|^2 = 0.999
==== e(  50) =     1.24307 eV ==== 
     psi = 0.288*[#  10]+0.288*[#  23]+0.197*[#  36]+0.072*[#  49]+0.072*[#  62]
          +0.030*[#  50]+0.030*[#  63]+0.011*[#  38]+0.004*[#  39]+0.002*[#  37]
          +0.002*[#  51]+0.002*[#  64]
    |psi|^2 = 0.999
==== e(  51) =     7.22021 eV ==== 
     psi = 0.234*[#  38]+0.091*[#  50]+0.091*[#  63]+0.089*[#  37]+0.078*[#  39]
          +0.070*[#  12]+0.070*[#  25]+0.056*[#  11]+0.056*[#  24]+0.034*[#  51]
          +0.034*[#  64]+0.023*[#  13]+0.023*[#  26]+0.011*[#  52]+0.011*[#  65]
          +0.006*[#  10]+0.006*[#  23]+0.004*[#  36]+0.002*[#  49]+0.002*[#  62]
          
    |psi|^2 = 0.992
==== e(  52) =     7.43706 eV ==== 
     psi = 0.240*[#  37]+0.160*[#  50]+0.160*[#  63]+0.057*[#  51]+0.057*[#  64]
          +0.051*[#  12]+0.051*[#  25]+0.049*[#  11]+0.049*[#  24]+0.019*[#  52]
          +0.019*[#  65]+0.017*[#  13]+0.017*[#  26]+0.015*[#  10]+0.015*[#  23]
          +0.009*[#  38]+0.003*[#  39]+0.002*[#  49]+0.002*[#  62]
    |psi|^2 = 0.995
==== e(  53) =     7.80435 eV ==== 
     psi = 0.147*[#  51]+0.147*[#  64]+0.134*[#  38]+0.093*[#  11]+0.093*[#  24]
          +0.049*[#  52]+0.049*[#  65]+0.045*[#  39]+0.044*[#  50]+0.044*[#  63]
          +0.039*[#  37]+0.017*[#  36]+0.016*[#  49]+0.016*[#  62]+0.016*[#  12]
          +0.016*[#  25]+0.006*[#  10]+0.006*[#  23]+0.005*[#  13]+0.005*[#  26]
          
    |psi|^2 = 0.990
==== e(  54) =     8.05523 eV ==== 
     psi = 0.395*[#  39]+0.132*[#  38]+0.098*[#  13]+0.098*[#  26]+0.077*[#  52]
          +0.077*[#  65]+0.033*[#  12]+0.033*[#  25]+0.026*[#  51]+0.026*[#  64]
          
    |psi|^2 = 0.995
==== e(  55) =     8.94302 eV ==== 
     psi = 0.259*[#  52]+0.259*[#  65]+0.148*[#  39]+0.086*[#  51]+0.086*[#  64]
          +0.049*[#  38]+0.037*[#  13]+0.037*[#  26]+0.012*[#  12]+0.012*[#  25]
          
    |psi|^2 = 0.991
==== e(  56) =     9.12773 eV ==== 
     psi = 0.199*[#  37]+0.106*[#  51]+0.106*[#  64]+0.097*[#  50]+0.097*[#  63]
          +0.060*[#  10]+0.060*[#  23]+0.039*[#  38]+0.035*[#  52]+0.035*[#  65]
          +0.032*[#  12]+0.032*[#  25]+0.017*[#  11]+0.017*[#  24]+0.013*[#  39]
          +0.011*[#  13]+0.011*[#  26]+0.009*[#  49]+0.009*[#  62]
    |psi|^2 = 0.987
==== e(  57) =     9.42643 eV ==== 
     psi = 0.251*[#  52]+0.251*[#  65]+0.084*[#  51]+0.084*[#  64]+0.082*[#  39]
          +0.079*[#  13]+0.079*[#  26]+0.027*[#  38]+0.026*[#  12]+0.026*[#  25]
          
    |psi|^2 = 0.991
==== e(  58) =     9.48822 eV ==== 
     psi = 0.190*[#  50]+0.190*[#  63]+0.079*[#  11]+0.079*[#  24]+0.064*[#  12]
          +0.064*[#  25]+0.053*[#  51]+0.053*[#  64]+0.048*[#  37]+0.025*[#  36]
          +0.023*[#  49]+0.023*[#  62]+0.021*[#  13]+0.021*[#  26]+0.018*[#  52]
          +0.018*[#  65]+0.005*[#  10]+0.005*[#  23]+0.003*[#  38]+0.001*[#  39]
          
    |psi|^2 = 0.987
==== e(  59) =     9.96419 eV ==== 
     psi = 0.161*[#  38]+0.152*[#  51]+0.152*[#  64]+0.097*[#  50]+0.097*[#  63]
          +0.054*[#  39]+0.051*[#  52]+0.051*[#  65]+0.047*[#  37]+0.019*[#  11]
          +0.019*[#  24]+0.019*[#  10]+0.019*[#  23]+0.014*[#  12]+0.014*[#  25]
          +0.010*[#  36]+0.005*[#  13]+0.005*[#  26]+0.001*[#  49]+0.001*[#  62]
          
    |psi|^2 = 0.990
==== e(  60) =    11.98798 eV ==== 
     psi = 0.172*[#  12]+0.172*[#  25]+0.109*[#  51]+0.109*[#  64]+0.068*[#  11]
          +0.068*[#  24]+0.057*[#  13]+0.057*[#  26]+0.052*[#  36]+0.036*[#  52]
          +0.036*[#  65]+0.012*[#  10]+0.012*[#  23]+0.007*[#  50]+0.007*[#  63]
          +0.001*[#  27]
    |psi|^2 = 0.980
==== e(  61) =    12.32046 eV ==== 
     psi = 0.153*[#  11]+0.153*[#  24]+0.146*[#  50]+0.146*[#  63]+0.086*[#  12]
          +0.086*[#  25]+0.029*[#  13]+0.029*[#  26]+0.028*[#  38]+0.017*[#  49]
          +0.017*[#  62]+0.012*[#  51]+0.012*[#  64]+0.009*[#  39]+0.008*[#  36]
          +0.007*[#  37]+0.007*[#  10]+0.007*[#  23]+0.004*[#  52]+0.004*[#  65]
          
    |psi|^2 = 0.960
==== e(  62) =    12.47745 eV ==== 
     psi = 0.248*[#  13]+0.248*[#  26]+0.112*[#  52]+0.112*[#  65]+0.083*[#  12]
          +0.083*[#  25]+0.037*[#  51]+0.037*[#  64]+0.006*[#  39]+0.002*[#  38]
          
    |psi|^2 = 0.969
==== e(  63) =    12.83790 eV ==== 
     psi = 0.255*[#  11]+0.255*[#  24]+0.072*[#  38]+0.066*[#  37]+0.052*[#  50]
          +0.052*[#  63]+0.040*[#  12]+0.040*[#  25]+0.024*[#  39]+0.022*[#  49]
          +0.022*[#  62]+0.013*[#  13]+0.013*[#  26]+0.008*[#  51]+0.008*[#  64]
          +0.003*[#  52]+0.003*[#  65]+0.002*[#  36]+0.001*[#  10]+0.001*[#  23]
          
    |psi|^2 = 0.955
==== e(  64) =    13.14281 eV ==== 
     psi = 0.268*[#  13]+0.268*[#  26]+0.108*[#  39]+0.089*[#  12]+0.089*[#  25]
          +0.040*[#  52]+0.040*[#  65]+0.036*[#  38]+0.013*[#  51]+0.013*[#  64]
          
    |psi|^2 = 0.967
==== e(  65) =    13.75064 eV ==== 
     psi = 0.153*[#  12]+0.153*[#  25]+0.150*[#  37]+0.071*[#  11]+0.071*[#  24]
          +0.051*[#  13]+0.051*[#  26]+0.050*[#  51]+0.050*[#  64]+0.040*[#  38]
          +0.034*[#  50]+0.034*[#  63]+0.017*[#  52]+0.017*[#  65]+0.013*[#  39]
          +0.004*[#  10]+0.004*[#  23]+0.001*[#  36]+0.001*[#  49]+0.001*[#  62]
          
    |psi|^2 = 0.966
==== e(  66) =    15.38477 eV ==== 
     psi = 0.002*[#  11]+0.002*[#  24]+0.003*[#  50]+0.003*[#  63]
    |psi|^2 = 0.014
==== e(  67) =    16.53420 eV ==== 
     psi = 0.003*[#  11]+0.003*[#  24]+0.003*[#  12]+0.003*[#  25]
    |psi|^2 = 0.017
==== e(  68) =    17.78506 eV ==== 
 
    |psi|^2 = 0.003
==== e(  69) =    17.91424 eV ==== 
     psi = 0.001*[#  12]+0.001*[#  25]
    |psi|^2 = 0.006
==== e(  70) =    18.39985 eV ==== 
 
    |psi|^2 = 0.006
==== e(  71) =    18.48487 eV ==== 
 
    |psi|^2 = 0.002

 k =   0.1666667007 -0.0962250409  0.2408054267
==== e(   1) =  -197.53337 eV ==== 
     psi = 0.998*[#  27]
    |psi|^2 = 1.000
==== e(   2) =  -197.35811 eV ==== 
     psi = 0.499*[#  40]+0.499*[#  53]
    |psi|^2 = 1.000
==== e(   3) =  -197.35811 eV ==== 
     psi = 0.499*[#  40]+0.499*[#  53]
    |psi|^2 = 1.000
==== e(   4) =  -143.18732 eV ==== 
     psi = 0.499*[#   1]+0.499*[#  14]+0.001*[#  37]
    |psi|^2 = 1.000
==== e(   5) =  -143.18732 eV ==== 
     psi = 0.499*[#   1]+0.499*[#  14]
    |psi|^2 = 1.000
==== e(   6) =  -137.01342 eV ==== 
     psi = 1.000*[#  28]
    |psi|^2 = 1.000
==== e(   7) =  -136.98564 eV ==== 
     psi = 0.734*[#  30]+0.266*[#  29]
    |psi|^2 = 1.000
==== e(   8) =  -136.98533 eV ==== 
     psi = 0.734*[#  29]+0.266*[#  30]
    |psi|^2 = 1.000
==== e(   9) =  -136.83787 eV ==== 
     psi = 0.500*[#  41]+0.500*[#  54]
    |psi|^2 = 1.000
==== e(  10) =  -136.83631 eV ==== 
     psi = 0.499*[#  41]+0.499*[#  54]
    |psi|^2 = 1.000
==== e(  11) =  -136.80360 eV ==== 
     psi = 0.373*[#  43]+0.373*[#  56]+0.127*[#  42]+0.127*[#  55]
    |psi|^2 = 1.000
==== e(  12) =  -136.80278 eV ==== 
     psi = 0.373*[#  42]+0.373*[#  55]+0.127*[#  43]+0.127*[#  56]
    |psi|^2 = 1.000
==== e(  13) =  -136.80127 eV ==== 
     psi = 0.384*[#  42]+0.384*[#  55]+0.116*[#  43]+0.116*[#  56]
    |psi|^2 = 1.000
==== e(  14) =  -136.80112 eV ==== 
     psi = 0.384*[#  43]+0.384*[#  56]+0.116*[#  42]+0.116*[#  55]
    |psi|^2 = 1.000
==== e(  15) =   -81.21470 eV ==== 
     psi = 0.469*[#   3]+0.469*[#  16]+0.031*[#   4]+0.031*[#  17]
    |psi|^2 = 1.000
==== e(  16) =   -81.21470 eV ==== 
     psi = 0.470*[#   3]+0.470*[#  16]+0.030*[#   4]+0.030*[#  17]
    |psi|^2 = 1.000
==== e(  17) =   -81.21468 eV ==== 
     psi = 0.471*[#   4]+0.471*[#  17]+0.029*[#   3]+0.029*[#  16]
    |psi|^2 = 1.000
==== e(  18) =   -81.21468 eV ==== 
     psi = 0.467*[#   4]+0.467*[#  17]+0.032*[#   3]+0.032*[#  16]
    |psi|^2 = 1.000
==== e(  19) =   -81.20923 eV ==== 
     psi = 0.500*[#   2]+0.500*[#  15]
    |psi|^2 = 1.000
==== e(  20) =   -81.20923 eV ==== 
     psi = 0.500*[#   2]+0.500*[#  15]
    |psi|^2 = 1.000
==== e(  21) =   -37.18364 eV ==== 
     psi = 0.985*[#  31]+0.011*[#  32]+0.004*[#  33]
    |psi|^2 = 1.000
==== e(  22) =   -37.18176 eV ==== 
     psi = 0.746*[#  33]+0.251*[#  32]+0.001*[#  34]
    |psi|^2 = 1.000
==== e(  23) =   -37.18017 eV ==== 
     psi = 0.734*[#  32]+0.247*[#  33]+0.015*[#  31]+0.002*[#  35]
    |psi|^2 = 1.000
==== e(  24) =   -37.15218 eV ==== 
     psi = 0.747*[#  34]+0.250*[#  35]+0.001*[#  33]
    |psi|^2 = 1.000
==== e(  25) =   -37.15053 eV ==== 
     psi = 0.747*[#  35]+0.250*[#  34]+0.002*[#  32]
    |psi|^2 = 1.000
==== e(  26) =   -36.99551 eV ==== 
     psi = 0.494*[#  44]+0.494*[#  57]+0.004*[#  45]+0.004*[#  58]+0.001*[#  46]
          +0.001*[#  59]
    |psi|^2 = 1.000
==== e(  27) =   -36.99227 eV ==== 
     psi = 0.473*[#  44]+0.473*[#  57]+0.020*[#  45]+0.020*[#  58]+0.007*[#  46]
          +0.007*[#  59]
    |psi|^2 = 1.000
==== e(  28) =   -36.98918 eV ==== 
     psi = 0.373*[#  46]+0.373*[#  59]+0.126*[#  45]+0.126*[#  58]
    |psi|^2 = 1.000
==== e(  29) =   -36.98765 eV ==== 
     psi = 0.370*[#  45]+0.370*[#  58]+0.124*[#  46]+0.124*[#  59]+0.005*[#  44]
          +0.005*[#  57]
    |psi|^2 = 1.000
==== e(  30) =   -36.98745 eV ==== 
     psi = 0.374*[#  46]+0.374*[#  59]+0.125*[#  45]+0.125*[#  58]
    |psi|^2 = 1.000
==== e(  31) =   -36.98590 eV ==== 
     psi = 0.351*[#  45]+0.351*[#  58]+0.118*[#  46]+0.118*[#  59]+0.027*[#  44]
          +0.027*[#  57]+0.002*[#  48]+0.002*[#  61]
    |psi|^2 = 1.000
==== e(  32) =   -36.95765 eV ==== 
     psi = 0.375*[#  47]+0.375*[#  60]+0.125*[#  48]+0.125*[#  61]
    |psi|^2 = 1.000
==== e(  33) =   -36.95322 eV ==== 
     psi = 0.374*[#  48]+0.374*[#  61]+0.125*[#  47]+0.125*[#  60]+0.001*[#  45]
          +0.001*[#  58]
    |psi|^2 = 1.000
==== e(  34) =   -36.95222 eV ==== 
     psi = 0.372*[#  48]+0.372*[#  61]+0.125*[#  47]+0.125*[#  60]+0.002*[#  45]
          +0.002*[#  58]
    |psi|^2 = 1.000
==== e(  35) =   -36.95122 eV ==== 
     psi = 0.374*[#  47]+0.374*[#  60]+0.125*[#  48]+0.125*[#  61]
    |psi|^2 = 1.000
==== e(  36) =   -12.49548 eV ==== 
     psi = 0.339*[#   9]+0.339*[#  22]+0.113*[#   8]+0.113*[#  21]+0.029*[#   6]
          +0.029*[#  19]+0.010*[#   7]+0.010*[#  20]+0.008*[#   5]+0.008*[#  18]
          
    |psi|^2 = 1.000
==== e(  37) =   -12.49269 eV ==== 
     psi = 0.355*[#   9]+0.355*[#  22]+0.118*[#   8]+0.118*[#  21]+0.013*[#   5]
          +0.013*[#  18]+0.010*[#   6]+0.010*[#  19]+0.003*[#   7]+0.003*[#  20]
          
    |psi|^2 = 1.000
==== e(  38) =   -12.48645 eV ==== 
     psi = 0.351*[#   8]+0.351*[#  21]+0.117*[#   9]+0.117*[#  22]+0.024*[#   7]
          +0.024*[#  20]+0.008*[#   6]+0.008*[#  19]
    |psi|^2 = 1.000
==== e(  39) =   -12.48451 eV ==== 
     psi = 0.369*[#   8]+0.369*[#  21]+0.123*[#   9]+0.123*[#  22]+0.006*[#   7]
          +0.006*[#  20]+0.002*[#   6]+0.002*[#  19]
    |psi|^2 = 1.000
==== e(  40) =   -12.47738 eV ==== 
     psi = 0.367*[#   5]+0.367*[#  18]+0.093*[#   6]+0.093*[#  19]+0.031*[#   7]
          +0.031*[#  20]+0.006*[#   9]+0.006*[#  22]+0.002*[#   8]+0.002*[#  21]
          
    |psi|^2 = 1.000
==== e(  41) =   -12.47592 eV ==== 
     psi = 0.304*[#   5]+0.304*[#  18]+0.136*[#   6]+0.136*[#  19]+0.045*[#   7]
          +0.045*[#  20]+0.011*[#   9]+0.011*[#  22]+0.004*[#   8]+0.004*[#  21]
          
    |psi|^2 = 1.000
==== e(  42) =   -12.47247 eV ==== 
     psi = 0.260*[#   5]+0.260*[#  18]+0.166*[#   6]+0.166*[#  19]+0.055*[#   7]
          +0.055*[#  20]+0.014*[#   9]+0.014*[#  22]+0.005*[#   8]+0.005*[#  21]
          
    |psi|^2 = 1.000
==== e(  43) =   -12.47174 eV ==== 
     psi = 0.364*[#   7]+0.364*[#  20]+0.121*[#   6]+0.121*[#  19]+0.011*[#   8]
          +0.011*[#  21]+0.004*[#   9]+0.004*[#  22]
    |psi|^2 = 1.000
==== e(  44) =   -12.47041 eV ==== 
     psi = 0.316*[#   6]+0.316*[#  19]+0.106*[#   7]+0.106*[#  20]+0.047*[#   5]
          +0.047*[#  18]+0.024*[#   9]+0.024*[#  22]+0.008*[#   8]+0.008*[#  21]
          
    |psi|^2 = 1.000
==== e(  45) =   -12.46709 eV ==== 
     psi = 0.356*[#   7]+0.356*[#  20]+0.118*[#   6]+0.118*[#  19]+0.019*[#   8]
          +0.019*[#  21]+0.006*[#   9]+0.006*[#  22]
    |psi|^2 = 1.000
==== e(  46) =    -3.50827 eV ==== 
     psi = 0.473*[#  36]+0.154*[#  10]+0.154*[#  23]+0.052*[#  49]+0.052*[#  62]
          +0.017*[#  12]+0.017*[#  25]+0.017*[#  11]+0.017*[#  24]+0.012*[#  50]
          +0.012*[#  63]+0.006*[#  38]+0.006*[#  13]+0.006*[#  26]+0.002*[#  39]
          +0.001*[#  51]+0.001*[#  64]
    |psi|^2 = 1.000
==== e(  47) =    -2.98186 eV ==== 
     psi = 0.326*[#  49]+0.326*[#  62]+0.109*[#  10]+0.109*[#  23]+0.031*[#  11]
          +0.031*[#  24]+0.018*[#  37]+0.010*[#  12]+0.010*[#  25]+0.007*[#  36]
          +0.005*[#  51]+0.005*[#  64]+0.003*[#  13]+0.003*[#  26]+0.002*[#  52]
          +0.002*[#  65]
    |psi|^2 = 1.000
==== e(  48) =    -1.75596 eV ==== 
     psi = 0.292*[#  49]+0.292*[#  62]+0.221*[#  36]+0.056*[#  11]+0.056*[#  24]
          +0.026*[#  10]+0.026*[#  23]+0.012*[#  50]+0.012*[#  63]
    |psi|^2 = 0.999
==== e(  49) =     0.16613 eV ==== 
     psi = 0.304*[#  10]+0.304*[#  23]+0.114*[#  49]+0.114*[#  62]+0.078*[#  37]
          +0.030*[#  50]+0.030*[#  63]+0.009*[#  11]+0.009*[#  24]+0.001*[#  36]
          
    |psi|^2 = 0.999
==== e(  50) =     1.50544 eV ==== 
     psi = 0.272*[#  10]+0.272*[#  23]+0.171*[#  36]+0.115*[#  49]+0.115*[#  62]
          +0.013*[#  38]+0.008*[#  50]+0.008*[#  63]+0.006*[#  51]+0.006*[#  64]
          +0.004*[#  39]+0.002*[#  52]+0.002*[#  65]+0.001*[#  12]+0.001*[#  25]
          
    |psi|^2 = 0.999
==== e(  51) =     7.07039 eV ==== 
     psi = 0.174*[#  38]+0.083*[#  12]+0.083*[#  25]+0.081*[#  51]+0.081*[#  64]
          +0.073*[#  37]+0.058*[#  39]+0.051*[#  11]+0.051*[#  24]+0.050*[#  50]
          +0.050*[#  63]+0.028*[#  13]+0.028*[#  26]+0.027*[#  52]+0.027*[#  65]
          +0.014*[#  10]+0.014*[#  23]+0.007*[#  49]+0.007*[#  62]+0.006*[#  36]
          
    |psi|^2 = 0.994
==== e(  52) =     7.75891 eV ==== 
     psi = 0.336*[#  37]+0.245*[#  50]+0.245*[#  63]+0.072*[#  11]+0.072*[#  24]
          +0.004*[#  12]+0.004*[#  25]+0.002*[#  51]+0.002*[#  64]+0.001*[#  38]
          +0.001*[#  49]+0.001*[#  62]+0.001*[#  10]+0.001*[#  13]+0.001*[#  23]
          +0.001*[#  26]
    |psi|^2 = 0.994
==== e(  53) =     7.87020 eV ==== 
     psi = 0.170*[#  38]+0.100*[#  50]+0.100*[#  63]+0.092*[#  11]+0.092*[#  24]
          +0.085*[#  37]+0.061*[#  51]+0.061*[#  64]+0.057*[#  39]+0.020*[#  52]
          +0.020*[#  65]+0.018*[#  12]+0.018*[#  25]+0.017*[#  10]+0.017*[#  23]
          +0.017*[#  36]+0.016*[#  49]+0.016*[#  62]+0.006*[#  13]+0.006*[#  26]
          
    |psi|^2 = 0.992
==== e(  54) =     8.10417 eV ==== 
     psi = 0.444*[#  39]+0.148*[#  38]+0.098*[#  13]+0.098*[#  26]+0.053*[#  52]
          +0.053*[#  65]+0.033*[#  12]+0.033*[#  25]+0.018*[#  51]+0.018*[#  64]
          
    |psi|^2 = 0.994
==== e(  55) =     8.71018 eV ==== 
     psi = 0.283*[#  52]+0.283*[#  65]+0.094*[#  51]+0.094*[#  64]+0.064*[#  13]
          +0.064*[#  26]+0.052*[#  39]+0.021*[#  12]+0.021*[#  25]+0.017*[#  38]
          
    |psi|^2 = 0.995
==== e(  56) =     8.75771 eV ==== 
     psi = 0.215*[#  51]+0.215*[#  64]+0.089*[#  38]+0.082*[#  12]+0.082*[#  25]
          +0.072*[#  52]+0.072*[#  65]+0.030*[#  39]+0.027*[#  13]+0.027*[#  26]
          +0.016*[#  36]+0.012*[#  50]+0.012*[#  63]+0.010*[#  11]+0.010*[#  24]
          +0.005*[#  37]+0.004*[#  49]+0.004*[#  62]+0.003*[#  10]+0.003*[#  23]
          
    |psi|^2 = 0.987
==== e(  57) =     9.37261 eV ==== 
     psi = 0.128*[#  51]+0.128*[#  64]+0.090*[#  50]+0.090*[#  63]+0.070*[#  38]
          +0.068*[#  37]+0.051*[#  12]+0.051*[#  25]+0.043*[#  52]+0.043*[#  65]
          +0.040*[#  10]+0.040*[#  23]+0.031*[#  11]+0.031*[#  24]+0.023*[#  39]
          +0.017*[#  13]+0.017*[#  26]+0.009*[#  49]+0.009*[#  62]
    |psi|^2 = 0.982
==== e(  58) =     9.71992 eV ==== 
     psi = 0.268*[#  52]+0.268*[#  65]+0.147*[#  39]+0.089*[#  51]+0.089*[#  64]
          +0.049*[#  38]+0.027*[#  13]+0.027*[#  26]+0.009*[#  12]+0.009*[#  25]
          
    |psi|^2 = 0.984
==== e(  59) =    10.34106 eV ==== 
     psi = 0.218*[#  50]+0.218*[#  63]+0.101*[#  37]+0.070*[#  38]+0.061*[#  51]
          +0.061*[#  64]+0.048*[#  10]+0.048*[#  23]+0.023*[#  39]+0.020*[#  52]
          +0.020*[#  65]+0.020*[#  11]+0.020*[#  24]+0.012*[#  12]+0.012*[#  25]
          +0.008*[#  49]+0.008*[#  62]+0.004*[#  13]+0.004*[#  26]
    |psi|^2 = 0.983
==== e(  60) =    11.39371 eV ==== 
     psi = 0.216*[#  11]+0.216*[#  24]+0.093*[#  12]+0.093*[#  25]+0.059*[#  36]
          +0.036*[#  50]+0.036*[#  63]+0.031*[#  51]+0.031*[#  64]+0.031*[#  13]
          +0.031*[#  26]+0.027*[#  49]+0.027*[#  62]+0.012*[#  37]+0.010*[#  52]
          +0.010*[#  65]+0.006*[#  38]+0.005*[#  10]+0.005*[#  23]+0.002*[#  39]
          +0.001*[#  27]
    |psi|^2 = 0.979
==== e(  61) =    12.01034 eV ==== 
     psi = 0.296*[#  13]+0.296*[#  26]+0.099*[#  12]+0.099*[#  25]+0.066*[#  52]
          +0.066*[#  65]+0.022*[#  51]+0.022*[#  64]+0.004*[#  39]+0.001*[#  38]
          
    |psi|^2 = 0.973
==== e(  62) =    12.39816 eV ==== 
     psi = 0.119*[#  11]+0.119*[#  24]+0.116*[#  12]+0.116*[#  25]+0.085*[#  51]
          +0.085*[#  64]+0.042*[#  38]+0.041*[#  50]+0.041*[#  63]+0.039*[#  13]
          +0.039*[#  26]+0.028*[#  52]+0.028*[#  65]+0.022*[#  36]+0.015*[#  49]
          +0.015*[#  62]+0.014*[#  39]+0.012*[#  37]+0.002*[#  10]+0.002*[#  23]
          
    |psi|^2 = 0.982
==== e(  63) =    13.35705 eV ==== 
     psi = 0.128*[#  12]+0.128*[#  25]+0.125*[#  50]+0.125*[#  63]+0.100*[#  11]
          +0.100*[#  24]+0.071*[#  38]+0.043*[#  13]+0.043*[#  26]+0.030*[#  37]
          +0.024*[#  39]+0.007*[#  49]+0.007*[#  62]+0.002*[#  51]+0.002*[#  64]
          
    |psi|^2 = 0.937
==== e(  64) =    13.57153 eV ==== 
     psi = 0.248*[#  13]+0.248*[#  26]+0.094*[#  39]+0.083*[#  12]+0.083*[#  25]
          +0.072*[#  52]+0.072*[#  65]+0.031*[#  38]+0.024*[#  51]+0.024*[#  64]
          
    |psi|^2 = 0.980
==== e(  65) =    13.73813 eV ==== 
     psi = 0.164*[#  37]+0.144*[#  11]+0.144*[#  24]+0.112*[#  12]+0.112*[#  25]
          +0.061*[#  51]+0.061*[#  64]+0.037*[#  13]+0.037*[#  26]+0.026*[#  38]
          +0.020*[#  52]+0.020*[#  65]+0.009*[#  39]+0.002*[#  50]+0.002*[#  63]
          +0.001*[#  49]+0.001*[#  62]
    |psi|^2 = 0.957
==== e(  66) =    15.88493 eV ==== 
     psi = 0.002*[#  11]+0.002*[#  24]
    |psi|^2 = 0.009
==== e(  67) =    16.64748 eV ==== 
     psi = 0.002*[#  50]+0.002*[#  51]+0.002*[#  63]+0.002*[#  64]+0.002*[#  11]
          +0.002*[#  12]+0.002*[#  24]+0.002*[#  25]
    |psi|^2 = 0.019
==== e(  68) =    16.83569 eV ==== 
     psi = 0.005*[#  11]+0.005*[#  24]+0.005*[#  50]+0.005*[#  63]+0.004*[#  12]
          +0.004*[#  25]+0.001*[#  13]+0.001*[#  26]
    |psi|^2 = 0.034
==== e(  69) =    17.76051 eV ==== 
     psi = 0.001*[#  13]+0.001*[#  26]
    |psi|^2 = 0.004
==== e(  70) =    17.93935 eV ==== 
     psi = 0.002*[#  12]+0.002*[#  25]+0.001*[#  11]+0.001*[#  24]+0.001*[#  38]
          
    |psi|^2 = 0.015
==== e(  71) =    18.56175 eV ==== 
     psi = 0.004*[#  11]+0.004*[#  24]+0.002*[#  12]+0.002*[#  25]
    |psi|^2 = 0.018

 k =   0.2500000460 -0.1443375584  0.0361208003
==== e(   1) =  -197.53337 eV ==== 
     psi = 0.998*[#  27]
    |psi|^2 = 1.000
==== e(   2) =  -197.35811 eV ==== 
     psi = 0.499*[#  40]+0.499*[#  53]
    |psi|^2 = 1.000
==== e(   3) =  -197.35811 eV ==== 
     psi = 0.499*[#  40]+0.499*[#  53]
    |psi|^2 = 1.000
==== e(   4) =  -143.18732 eV ==== 
     psi = 0.499*[#   1]+0.499*[#  14]
    |psi|^2 = 1.000
==== e(   5) =  -143.18732 eV ==== 
     psi = 0.499*[#   1]+0.499*[#  14]
    |psi|^2 = 1.000
==== e(   6) =  -137.01471 eV ==== 
     psi = 1.000*[#  28]
    |psi|^2 = 1.000
==== e(   7) =  -136.98735 eV ==== 
     psi = 0.754*[#  29]+0.246*[#  30]
    |psi|^2 = 1.000
==== e(   8) =  -136.98601 eV ==== 
     psi = 0.754*[#  30]+0.246*[#  29]
    |psi|^2 = 1.000
==== e(   9) =  -136.83899 eV ==== 
     psi = 0.500*[#  41]+0.500*[#  54]
    |psi|^2 = 1.000
==== e(  10) =  -136.83771 eV ==== 
     psi = 0.500*[#  41]+0.500*[#  54]
    |psi|^2 = 1.000
==== e(  11) =  -136.80503 eV ==== 
     psi = 0.375*[#  42]+0.375*[#  55]+0.124*[#  43]+0.124*[#  56]
    |psi|^2 = 1.000
==== e(  12) =  -136.80357 eV ==== 
     psi = 0.373*[#  43]+0.373*[#  56]+0.127*[#  42]+0.127*[#  55]
    |psi|^2 = 1.000
==== e(  13) =  -136.80309 eV ==== 
     psi = 0.373*[#  42]+0.373*[#  55]+0.127*[#  43]+0.127*[#  56]
    |psi|^2 = 1.000
==== e(  14) =  -136.80190 eV ==== 
     psi = 0.376*[#  43]+0.376*[#  56]+0.124*[#  42]+0.124*[#  55]
    |psi|^2 = 1.000
==== e(  15) =   -81.21471 eV ==== 
     psi = 0.440*[#   3]+0.440*[#  16]+0.060*[#   4]+0.060*[#  17]
    |psi|^2 = 1.000
==== e(  16) =   -81.21471 eV ==== 
     psi = 0.442*[#   3]+0.442*[#  16]+0.058*[#   4]+0.058*[#  17]
    |psi|^2 = 1.000
==== e(  17) =   -81.21469 eV ==== 
     psi = 0.443*[#   4]+0.443*[#  17]+0.057*[#   3]+0.057*[#  16]
    |psi|^2 = 1.000
==== e(  18) =   -81.21468 eV ==== 
     psi = 0.439*[#   4]+0.439*[#  17]+0.060*[#   3]+0.060*[#  16]
    |psi|^2 = 1.000
==== e(  19) =   -81.20923 eV ==== 
     psi = 0.500*[#   2]+0.500*[#  15]
    |psi|^2 = 1.000
==== e(  20) =   -81.20923 eV ==== 
     psi = 0.500*[#   2]+0.500*[#  15]
    |psi|^2 = 1.000
==== e(  21) =   -37.18856 eV ==== 
     psi = 0.990*[#  31]+0.005*[#  32]+0.002*[#  35]+0.002*[#  33]
    |psi|^2 = 1.000
==== e(  22) =   -37.18154 eV ==== 
     psi = 0.728*[#  33]+0.271*[#  32]
    |psi|^2 = 1.000
==== e(  23) =   -37.18139 eV ==== 
     psi = 0.722*[#  32]+0.269*[#  33]+0.007*[#  31]+0.001*[#  35]
    |psi|^2 = 1.000
==== e(  24) =   -37.15459 eV ==== 
     psi = 0.748*[#  34]+0.251*[#  35]
    |psi|^2 = 1.000
==== e(  25) =   -37.15322 eV ==== 
     psi = 0.745*[#  35]+0.250*[#  34]+0.003*[#  31]+0.002*[#  32]
    |psi|^2 = 1.000
==== e(  26) =   -37.00100 eV ==== 
     psi = 0.495*[#  44]+0.495*[#  57]+0.002*[#  45]+0.002*[#  58]+0.002*[#  48]
          +0.002*[#  61]
    |psi|^2 = 1.000
==== e(  27) =   -36.99649 eV ==== 
     psi = 0.488*[#  44]+0.488*[#  57]+0.009*[#  45]+0.009*[#  58]+0.003*[#  46]
          +0.003*[#  59]
    |psi|^2 = 1.000
==== e(  28) =   -36.99009 eV ==== 
     psi = 0.373*[#  46]+0.373*[#  59]+0.126*[#  45]+0.126*[#  58]
    |psi|^2 = 1.000
==== e(  29) =   -36.98896 eV ==== 
     psi = 0.372*[#  45]+0.372*[#  58]+0.124*[#  46]+0.124*[#  59]+0.004*[#  44]
          +0.004*[#  57]
    |psi|^2 = 1.000
==== e(  30) =   -36.98687 eV ==== 
     psi = 0.367*[#  45]+0.367*[#  58]+0.121*[#  46]+0.121*[#  59]+0.011*[#  44]
          +0.011*[#  57]
    |psi|^2 = 1.000
==== e(  31) =   -36.98633 eV ==== 
     psi = 0.376*[#  46]+0.376*[#  59]+0.123*[#  45]+0.123*[#  58]
    |psi|^2 = 1.000
==== e(  32) =   -36.95817 eV ==== 
     psi = 0.375*[#  47]+0.375*[#  60]+0.124*[#  48]+0.124*[#  61]
    |psi|^2 = 1.000
==== e(  33) =   -36.95631 eV ==== 
     psi = 0.374*[#  48]+0.374*[#  61]+0.124*[#  47]+0.124*[#  60]+0.002*[#  44]
          +0.002*[#  57]
    |psi|^2 = 1.000
==== e(  34) =   -36.95543 eV ==== 
     psi = 0.375*[#  47]+0.375*[#  60]+0.124*[#  48]+0.124*[#  61]
    |psi|^2 = 1.000
==== e(  35) =   -36.95471 eV ==== 
     psi = 0.376*[#  48]+0.376*[#  61]+0.124*[#  47]+0.124*[#  60]
    |psi|^2 = 1.000
==== e(  36) =   -12.49887 eV ==== 
     psi = 0.310*[#   9]+0.310*[#  22]+0.103*[#   8]+0.103*[#  21]+0.052*[#   6]
          +0.052*[#  19]+0.017*[#   7]+0.017*[#  20]+0.016*[#   5]+0.016*[#  18]
          
    |psi|^2 = 1.000
==== e(  37) =   -12.49509 eV ==== 
     psi = 0.331*[#   9]+0.331*[#  22]+0.110*[#   8]+0.110*[#  21]+0.027*[#   5]
          +0.027*[#  18]+0.023*[#   6]+0.023*[#  19]+0.008*[#   7]+0.008*[#  20]
          
    |psi|^2 = 1.000
==== e(  38) =   -12.48035 eV ==== 
     psi = 0.309*[#   8]+0.309*[#  21]+0.103*[#   9]+0.103*[#  22]+0.065*[#   7]
          +0.065*[#  20]+0.022*[#   6]+0.022*[#  19]
    |psi|^2 = 1.000
==== e(  39) =   -12.48015 eV ==== 
     psi = 0.292*[#   6]+0.292*[#  19]+0.097*[#   7]+0.097*[#  20]+0.080*[#   5]
          +0.080*[#  18]+0.023*[#   9]+0.023*[#  22]+0.008*[#   8]+0.008*[#  21]
          
    |psi|^2 = 1.000
==== e(  40) =   -12.47823 eV ==== 
     psi = 0.347*[#   8]+0.347*[#  21]+0.116*[#   9]+0.116*[#  22]+0.027*[#   7]
          +0.027*[#  20]+0.009*[#   6]+0.009*[#  19]
    |psi|^2 = 1.000
==== e(  41) =   -12.47534 eV ==== 
     psi = 0.277*[#   6]+0.277*[#  19]+0.092*[#   7]+0.092*[#  20]+0.074*[#   5]
          +0.074*[#  18]+0.043*[#   9]+0.043*[#  22]+0.014*[#   8]+0.014*[#  21]
          
    |psi|^2 = 1.000
[...]
    |psi|^2 = 1.000
==== e(  32) =   -36.95803 eV ==== 
     psi = 0.497*[#  48]+0.497*[#  61]+0.003*[#  45]+0.003*[#  58]
    |psi|^2 = 1.000
==== e(  33) =   -36.95696 eV ==== 
     psi = 0.499*[#  47]+0.499*[#  60]
    |psi|^2 = 1.000
==== e(  34) =   -36.95357 eV ==== 
     psi = 0.499*[#  47]+0.499*[#  60]
    |psi|^2 = 1.000
==== e(  35) =   -36.95292 eV ==== 
     psi = 0.498*[#  48]+0.498*[#  61]+0.002*[#  45]+0.002*[#  58]
    |psi|^2 = 1.000
==== e(  36) =   -12.49351 eV ==== 
     psi = 0.476*[#   8]+0.476*[#  21]+0.022*[#   7]+0.022*[#  20]+0.001*[#  39]
          +0.001*[#   5]+0.001*[#  18]
    |psi|^2 = 1.000
==== e(  37) =   -12.49136 eV ==== 
     psi = 0.493*[#   8]+0.493*[#  21]+0.005*[#   7]+0.005*[#  20]+0.002*[#   5]
          +0.002*[#  18]
    |psi|^2 = 1.000
==== e(  38) =   -12.49118 eV ==== 
     psi = 0.479*[#   9]+0.479*[#  22]+0.020*[#   6]+0.020*[#  19]+0.001*[#  38]
          
    |psi|^2 = 1.000
==== e(  39) =   -12.48926 eV ==== 
     psi = 0.496*[#   9]+0.496*[#  22]+0.004*[#   6]+0.004*[#  19]
    |psi|^2 = 1.000
==== e(  40) =   -12.47973 eV ==== 
     psi = 0.494*[#   5]+0.494*[#  18]+0.004*[#   7]+0.004*[#  20]+0.002*[#   8]
          +0.002*[#  21]
    |psi|^2 = 1.000
==== e(  41) =   -12.47689 eV ==== 
     psi = 0.488*[#   5]+0.488*[#  18]+0.011*[#   7]+0.011*[#  20]
    |psi|^2 = 1.000
==== e(  42) =   -12.47134 eV ==== 
     psi = 0.482*[#   7]+0.482*[#  20]+0.011*[#   5]+0.011*[#  18]+0.007*[#   8]
          +0.007*[#  21]
    |psi|^2 = 1.000
==== e(  43) =   -12.47072 eV ==== 
     psi = 0.494*[#   6]+0.494*[#  19]+0.006*[#   9]+0.006*[#  22]
    |psi|^2 = 1.000
==== e(  44) =   -12.46806 eV ==== 
     psi = 0.475*[#   7]+0.475*[#  20]+0.021*[#   8]+0.021*[#  21]+0.004*[#   5]
          +0.004*[#  18]
    |psi|^2 = 1.000
==== e(  45) =   -12.46704 eV ==== 
     psi = 0.481*[#   6]+0.481*[#  19]+0.019*[#   9]+0.019*[#  22]
    |psi|^2 = 1.000
==== e(  46) =    -3.79591 eV ==== 
     psi = 0.381*[#  36]+0.174*[#  10]+0.174*[#  23]+0.117*[#  49]+0.117*[#  62]
          +0.008*[#  13]+0.008*[#  26]+0.006*[#  11]+0.006*[#  24]+0.003*[#  39]
          +0.002*[#  50]+0.002*[#  63]+0.001*[#  52]+0.001*[#  65]
    |psi|^2 = 1.000
==== e(  47) =    -2.63181 eV ==== 
     psi = 0.257*[#  49]+0.257*[#  62]+0.123*[#  10]+0.123*[#  23]+0.086*[#  36]
          +0.042*[#  11]+0.042*[#  24]+0.025*[#  37]+0.019*[#  50]+0.019*[#  63]
          +0.003*[#  13]+0.003*[#  26]
    |psi|^2 = 1.000
==== e(  48) =    -2.41109 eV ==== 
     psi = 0.260*[#  49]+0.260*[#  62]+0.195*[#  36]+0.067*[#  11]+0.067*[#  24]
          +0.056*[#  10]+0.056*[#  23]+0.013*[#  50]+0.013*[#  63]+0.011*[#  37]
          
    |psi|^2 = 0.999
==== e(  49) =     0.66742 eV ==== 
     psi = 0.236*[#  10]+0.236*[#  23]+0.197*[#  49]+0.197*[#  62]+0.084*[#  37]
          +0.016*[#  11]+0.016*[#  24]+0.006*[#  50]+0.006*[#  63]+0.003*[#  36]
          +0.001*[#  52]+0.001*[#  65]
    |psi|^2 = 1.000
==== e(  50) =     1.41000 eV ==== 
     psi = 0.279*[#  10]+0.279*[#  23]+0.211*[#  36]+0.069*[#  49]+0.069*[#  62]
          +0.042*[#  50]+0.042*[#  63]+0.004*[#  39]
    |psi|^2 = 0.999
==== e(  51) =     7.77539 eV ==== 
     psi = 0.213*[#  39]+0.203*[#  50]+0.203*[#  63]+0.082*[#  37]+0.049*[#  13]
          +0.049*[#  26]+0.045*[#  11]+0.045*[#  24]+0.035*[#  52]+0.035*[#  65]
          +0.011*[#  10]+0.011*[#  23]+0.009*[#  36]+0.001*[#  49]+0.001*[#  62]
          
    |psi|^2 = 0.993
==== e(  52) =     8.00859 eV ==== 
     psi = 0.350*[#  37]+0.096*[#  11]+0.096*[#  24]+0.079*[#  50]+0.079*[#  63]
          +0.067*[#  52]+0.067*[#  65]+0.029*[#  13]+0.029*[#  26]+0.029*[#  39]
          +0.021*[#  10]+0.021*[#  23]+0.014*[#  49]+0.014*[#  62]+0.004*[#  36]
          
    |psi|^2 = 0.996
==== e(  53) =     8.38682 eV ==== 
     psi = 0.616*[#  38]+0.107*[#  12]+0.107*[#  25]+0.082*[#  51]+0.082*[#  64]
          
    |psi|^2 = 0.994
==== e(  54) =     8.56399 eV ==== 
     psi = 0.456*[#  39]+0.119*[#  50]+0.119*[#  63]+0.055*[#  52]+0.055*[#  65]
          +0.037*[#  13]+0.037*[#  26]+0.022*[#  11]+0.022*[#  24]+0.014*[#  10]
          +0.014*[#  23]+0.013*[#  49]+0.013*[#  62]+0.007*[#  37]+0.001*[#  36]
          
    |psi|^2 = 0.989
==== e(  55) =     9.02254 eV ==== 
     psi = 0.328*[#  52]+0.328*[#  65]+0.083*[#  37]+0.045*[#  13]+0.045*[#  26]
          +0.039*[#  11]+0.039*[#  24]+0.020*[#  36]+0.019*[#  50]+0.019*[#  63]
          +0.009*[#  10]+0.009*[#  23]+0.003*[#  49]+0.003*[#  62]
    |psi|^2 = 0.991
==== e(  56) =     9.06942 eV ==== 
     psi = 0.366*[#  51]+0.366*[#  64]+0.171*[#  38]+0.045*[#  12]+0.045*[#  25]
          
    |psi|^2 = 0.994
==== e(  57) =     9.59249 eV ==== 
     psi = 0.373*[#  51]+0.373*[#  64]+0.081*[#  38]+0.078*[#  12]+0.078*[#  25]
          
    |psi|^2 = 0.985
==== e(  58) =     9.62506 eV ==== 
     psi = 0.248*[#  52]+0.248*[#  65]+0.105*[#  39]+0.063*[#  50]+0.063*[#  63]
          +0.063*[#  13]+0.063*[#  26]+0.045*[#  37]+0.028*[#  11]+0.028*[#  24]
          +0.012*[#  36]+0.007*[#  10]+0.007*[#  23]+0.005*[#  49]+0.005*[#  62]
          
    |psi|^2 = 0.991
==== e(  59) =    10.16382 eV ==== 
     psi = 0.208*[#  50]+0.208*[#  63]+0.098*[#  37]+0.074*[#  13]+0.074*[#  26]
          +0.050*[#  10]+0.050*[#  23]+0.043*[#  11]+0.043*[#  24]+0.042*[#  52]
          +0.042*[#  65]+0.014*[#  49]+0.014*[#  62]+0.013*[#  39]+0.005*[#  36]
          
    |psi|^2 = 0.983
==== e(  60) =    11.30570 eV ==== 
     psi = 0.252*[#  11]+0.252*[#  24]+0.071*[#  52]+0.071*[#  65]+0.063*[#  36]
          +0.044*[#  39]+0.041*[#  50]+0.041*[#  63]+0.029*[#  49]+0.029*[#  62]
          +0.024*[#  13]+0.024*[#  26]+0.012*[#  37]+0.007*[#  10]+0.007*[#  23]
          +0.001*[#  27]
    |psi|^2 = 0.971
==== e(  61) =    11.93782 eV ==== 
     psi = 0.390*[#  12]+0.390*[#  25]+0.086*[#  51]+0.086*[#  64]+0.015*[#  38]
          
    |psi|^2 = 0.967
==== e(  62) =    12.36440 eV ==== 
     psi = 0.243*[#  13]+0.243*[#  26]+0.110*[#  50]+0.110*[#  63]+0.062*[#  52]
          +0.062*[#  65]+0.053*[#  11]+0.053*[#  24]+0.006*[#  10]+0.006*[#  23]
          +0.006*[#  36]+0.002*[#  49]+0.002*[#  62]+0.002*[#  37]
    |psi|^2 = 0.961
==== e(  63) =    12.93016 eV ==== 
     psi = 0.318*[#  13]+0.318*[#  26]+0.107*[#  39]+0.040*[#  52]+0.040*[#  65]
          +0.037*[#  37]+0.029*[#  11]+0.029*[#  24]+0.015*[#  50]+0.015*[#  63]
          +0.006*[#  49]+0.006*[#  62]+0.003*[#  10]+0.003*[#  23]
    |psi|^2 = 0.967
==== e(  64) =    13.14133 eV ==== 
     psi = 0.229*[#  11]+0.229*[#  24]+0.145*[#  37]+0.079*[#  13]+0.079*[#  26]
          +0.040*[#  50]+0.040*[#  63]+0.034*[#  52]+0.034*[#  65]+0.010*[#  39]
          +0.008*[#  49]+0.008*[#  62]+0.002*[#  10]+0.002*[#  23]
    |psi|^2 = 0.941
==== e(  65) =    13.32200 eV ==== 
     psi = 0.358*[#  12]+0.358*[#  25]+0.103*[#  38]+0.080*[#  51]+0.080*[#  64]
          
    |psi|^2 = 0.981
==== e(  66) =    16.19406 eV ==== 
     psi = 0.004*[#  11]+0.004*[#  24]+0.002*[#  13]+0.002*[#  26]+0.001*[#  50]
          +0.001*[#  63]
    |psi|^2 = 0.018
==== e(  67) =    16.32525 eV ==== 
     psi = 0.007*[#  11]+0.007*[#  24]+0.006*[#  50]+0.006*[#  63]+0.001*[#  37]
          
    |psi|^2 = 0.030
==== e(  68) =    17.41230 eV ==== 
 
    |psi|^2 = 0.002
==== e(  69) =    17.79192 eV ==== 
     psi = 0.002*[#  50]+0.002*[#  63]+0.002*[#  11]+0.002*[#  24]+0.001*[#  13]
          +0.001*[#  26]
    |psi|^2 = 0.011
==== e(  70) =    17.95051 eV ==== 
 
    |psi|^2 = 0.001
==== e(  71) =    18.14104 eV ==== 
     psi = 0.001*[#  13]+0.001*[#  26]+0.001*[#  50]+0.001*[#  63]
    |psi|^2 = 0.009

 k =   0.0000000000 -1.0584754324  0.4816107626
==== e(   1) =  -197.53337 eV ==== 
     psi = 0.998*[#  27]+0.001*[#  11]+0.001*[#  24]
    |psi|^2 = 1.000
==== e(   2) =  -197.35811 eV ==== 
     psi = 0.499*[#  40]+0.499*[#  53]
    |psi|^2 = 1.000
==== e(   3) =  -197.35811 eV ==== 
     psi = 0.499*[#  40]+0.499*[#  53]
    |psi|^2 = 1.000
==== e(   4) =  -143.18732 eV ==== 
     psi = 0.499*[#   1]+0.499*[#  14]
    |psi|^2 = 1.000
==== e(   5) =  -143.18731 eV ==== 
     psi = 0.499*[#   1]+0.499*[#  14]+0.001*[#  37]
    |psi|^2 = 1.000
==== e(   6) =  -137.01325 eV ==== 
     psi = 1.000*[#  28]
    |psi|^2 = 1.000
==== e(   7) =  -136.98648 eV ==== 
     psi = 1.000*[#  30]
    |psi|^2 = 1.000
==== e(   8) =  -136.98523 eV ==== 
     psi = 1.000*[#  29]
    |psi|^2 = 1.000
==== e(   9) =  -136.83791 eV ==== 
     psi = 0.500*[#  41]+0.500*[#  54]
    |psi|^2 = 1.000
==== e(  10) =  -136.83585 eV ==== 
     psi = 0.500*[#  41]+0.500*[#  54]
    |psi|^2 = 1.000
==== e(  11) =  -136.80510 eV ==== 
     psi = 0.500*[#  43]+0.500*[#  56]
    |psi|^2 = 1.000
==== e(  12) =  -136.80218 eV ==== 
     psi = 0.500*[#  42]+0.500*[#  55]
    |psi|^2 = 1.000
==== e(  13) =  -136.80174 eV ==== 
     psi = 0.500*[#  42]+0.500*[#  55]
    |psi|^2 = 1.000
==== e(  14) =  -136.80131 eV ==== 
     psi = 0.500*[#  43]+0.500*[#  56]
    |psi|^2 = 1.000
==== e(  15) =   -81.21469 eV ==== 
     psi = 0.500*[#   3]+0.500*[#  16]
    |psi|^2 = 1.000
==== e(  16) =   -81.21469 eV ==== 
     psi = 0.500*[#   3]+0.500*[#  16]
    |psi|^2 = 1.000
==== e(  17) =   -81.21468 eV ==== 
     psi = 0.500*[#   4]+0.500*[#  17]
    |psi|^2 = 1.000
==== e(  18) =   -81.21468 eV ==== 
     psi = 0.500*[#   4]+0.500*[#  17]
    |psi|^2 = 1.000
==== e(  19) =   -81.20923 eV ==== 
     psi = 0.500*[#   2]+0.500*[#  15]
    |psi|^2 = 1.000
==== e(  20) =   -81.20923 eV ==== 
     psi = 0.500*[#   2]+0.500*[#  15]
    |psi|^2 = 1.000
==== e(  21) =   -37.18400 eV ==== 
     psi = 0.860*[#  31]+0.138*[#  33]+0.002*[#  34]
    |psi|^2 = 1.000
==== e(  22) =   -37.18135 eV ==== 
     psi = 0.859*[#  33]+0.139*[#  31]+0.001*[#  34]
    |psi|^2 = 1.000
==== e(  23) =   -37.18009 eV ==== 
     psi = 0.999*[#  32]
    |psi|^2 = 1.000
==== e(  24) =   -37.15279 eV ==== 
     psi = 0.999*[#  35]
    |psi|^2 = 1.000
==== e(  25) =   -37.15159 eV ==== 
     psi = 0.997*[#  34]+0.002*[#  33]
    |psi|^2 = 1.000
==== e(  26) =   -36.99690 eV ==== 
     psi = 0.482*[#  44]+0.482*[#  57]+0.016*[#  46]+0.016*[#  59]+0.002*[#  47]
          +0.002*[#  60]
    |psi|^2 = 1.000
==== e(  27) =   -36.99101 eV ==== 
     psi = 0.450*[#  44]+0.450*[#  57]+0.050*[#  46]+0.050*[#  59]
    |psi|^2 = 1.000
==== e(  28) =   -36.98917 eV ==== 
     psi = 0.438*[#  46]+0.438*[#  59]+0.061*[#  44]+0.061*[#  57]
    |psi|^2 = 1.000
==== e(  29) =   -36.98794 eV ==== 
     psi = 0.499*[#  45]+0.499*[#  58]+0.001*[#  48]+0.001*[#  61]
    |psi|^2 = 1.000
==== e(  30) =   -36.98710 eV ==== 
     psi = 0.495*[#  46]+0.495*[#  59]+0.004*[#  44]+0.004*[#  57]
    |psi|^2 = 1.000
==== e(  31) =   -36.98572 eV ==== 
     psi = 0.498*[#  45]+0.498*[#  58]+0.002*[#  48]+0.002*[#  61]
    |psi|^2 = 1.000
==== e(  32) =   -36.95752 eV ==== 
     psi = 0.498*[#  48]+0.498*[#  61]+0.002*[#  45]+0.002*[#  58]
    |psi|^2 = 1.000
==== e(  33) =   -36.95505 eV ==== 
     psi = 0.498*[#  47]+0.498*[#  60]+0.002*[#  44]+0.002*[#  57]
    |psi|^2 = 1.000
==== e(  34) =   -36.95262 eV ==== 
     psi = 0.499*[#  47]+0.499*[#  60]
    |psi|^2 = 1.000
==== e(  35) =   -36.95232 eV ==== 
     psi = 0.499*[#  48]+0.499*[#  61]
    |psi|^2 = 1.000
==== e(  36) =   -12.49351 eV ==== 
     psi = 0.476*[#   8]+0.476*[#  21]+0.022*[#   7]+0.022*[#  20]+0.001*[#  39]
          +0.001*[#   5]+0.001*[#  18]
    |psi|^2 = 1.000
==== e(  37) =   -12.49135 eV ==== 
     psi = 0.493*[#   8]+0.493*[#  21]+0.005*[#   7]+0.005*[#  20]+0.002*[#   5]
          +0.002*[#  18]
    |psi|^2 = 1.000
==== e(  38) =   -12.49119 eV ==== 
     psi = 0.479*[#   9]+0.479*[#  22]+0.020*[#   6]+0.020*[#  19]+0.001*[#  38]
          
    |psi|^2 = 1.000
==== e(  39) =   -12.48925 eV ==== 
     psi = 0.496*[#   9]+0.496*[#  22]+0.004*[#   6]+0.004*[#  19]
    |psi|^2 = 1.000
==== e(  40) =   -12.47957 eV ==== 
     psi = 0.494*[#   5]+0.494*[#  18]+0.004*[#   7]+0.004*[#  20]+0.002*[#   8]
          +0.002*[#  21]
    |psi|^2 = 1.000
==== e(  41) =   -12.47705 eV ==== 
     psi = 0.488*[#   5]+0.488*[#  18]+0.011*[#   7]+0.011*[#  20]
    |psi|^2 = 1.000
==== e(  42) =   -12.47138 eV ==== 
     psi = 0.481*[#   7]+0.481*[#  20]+0.011*[#   5]+0.011*[#  18]+0.007*[#   8]
          +0.007*[#  21]
    |psi|^2 = 1.000
==== e(  43) =   -12.47074 eV ==== 
     psi = 0.494*[#   6]+0.494*[#  19]+0.005*[#   9]+0.005*[#  22]
    |psi|^2 = 1.000
==== e(  44) =   -12.46801 eV ==== 
     psi = 0.475*[#   7]+0.475*[#  20]+0.021*[#   8]+0.021*[#  21]+0.004*[#   5]
          +0.004*[#  18]
    |psi|^2 = 1.000
==== e(  45) =   -12.46701 eV ==== 
     psi = 0.481*[#   6]+0.481*[#  19]+0.019*[#   9]+0.019*[#  22]
    |psi|^2 = 1.000
==== e(  46) =    -3.68155 eV ==== 
     psi = 0.465*[#  36]+0.169*[#  10]+0.169*[#  23]+0.054*[#  49]+0.054*[#  62]
          +0.020*[#  11]+0.020*[#  24]+0.015*[#  50]+0.015*[#  63]+0.007*[#  13]
          +0.007*[#  26]+0.002*[#  39]
    |psi|^2 = 1.000
==== e(  47) =    -3.14380 eV ==== 
     psi = 0.321*[#  49]+0.321*[#  62]+0.119*[#  10]+0.119*[#  23]+0.038*[#  11]
          +0.038*[#  24]+0.024*[#  37]+0.007*[#  36]+0.004*[#  13]+0.004*[#  26]
          +0.002*[#  52]+0.002*[#  65]
    |psi|^2 = 1.000
==== e(  48) =    -1.82082 eV ==== 
     psi = 0.283*[#  49]+0.283*[#  62]+0.220*[#  36]+0.066*[#  11]+0.066*[#  24]
          +0.026*[#  10]+0.026*[#  23]+0.014*[#  50]+0.014*[#  63]
    |psi|^2 = 0.999
==== e(  49) =     0.12553 eV ==== 
     psi = 0.289*[#  10]+0.289*[#  23]+0.115*[#  49]+0.115*[#  62]+0.091*[#  37]
          +0.037*[#  50]+0.037*[#  63]+0.012*[#  11]+0.012*[#  24]+0.001*[#  36]
          
    |psi|^2 = 1.000
==== e(  50) =     1.80129 eV ==== 
     psi = 0.267*[#  10]+0.267*[#  23]+0.182*[#  36]+0.127*[#  49]+0.127*[#  62]
          +0.010*[#  50]+0.010*[#  63]+0.005*[#  39]+0.002*[#  52]+0.002*[#  65]
          
    |psi|^2 = 0.999
==== e(  51) =     7.63509 eV ==== 
     psi = 0.279*[#  37]+0.274*[#  50]+0.274*[#  63]+0.071*[#  11]+0.071*[#  24]
          +0.011*[#  39]+0.003*[#  13]+0.003*[#  26]+0.003*[#  52]+0.003*[#  65]
          
    |psi|^2 = 0.994
==== e(  52) =     8.02594 eV ==== 
     psi = 0.355*[#  39]+0.095*[#  37]+0.083*[#  13]+0.083*[#  26]+0.080*[#  52]
          +0.080*[#  65]+0.050*[#  11]+0.050*[#  24]+0.031*[#  50]+0.031*[#  63]
          +0.013*[#  10]+0.013*[#  23]+0.009*[#  49]+0.009*[#  62]+0.008*[#  36]
          
    |psi|^2 = 0.992
==== e(  53) =     8.43597 eV ==== 
     psi = 0.699*[#  38]+0.103*[#  12]+0.103*[#  25]+0.043*[#  51]+0.043*[#  64]
          
    |psi|^2 = 0.994
==== e(  54) =     8.58384 eV ==== 
     psi = 0.323*[#  39]+0.090*[#  50]+0.090*[#  63]+0.086*[#  37]+0.074*[#  52]
          +0.074*[#  65]+0.052*[#  13]+0.052*[#  26]+0.034*[#  11]+0.034*[#  24]
          +0.025*[#  10]+0.025*[#  23]+0.014*[#  49]+0.014*[#  62]+0.004*[#  36]
          
    |psi|^2 = 0.990
==== e(  55) =     8.91400 eV ==== 
     psi = 0.355*[#  52]+0.355*[#  65]+0.050*[#  13]+0.050*[#  26]+0.040*[#  37]
          +0.039*[#  11]+0.039*[#  24]+0.018*[#  36]+0.011*[#  39]+0.007*[#  10]
          +0.007*[#  23]+0.006*[#  50]+0.006*[#  63]+0.003*[#  49]+0.003*[#  62]
          
    |psi|^2 = 0.991
==== e(  56) =     8.94978 eV ==== 
     psi = 0.411*[#  51]+0.411*[#  64]+0.063*[#  12]+0.063*[#  25]+0.042*[#  38]
          
    |psi|^2 = 0.992
==== e(  57) =     9.65101 eV ==== 
     psi = 0.362*[#  51]+0.362*[#  64]+0.127*[#  38]+0.068*[#  12]+0.068*[#  25]
          
    |psi|^2 = 0.987
==== e(  58) =     9.95493 eV ==== 
     psi = 0.218*[#  52]+0.218*[#  65]+0.159*[#  37]+0.082*[#  50]+0.082*[#  63]
          +0.041*[#  11]+0.041*[#  24]+0.034*[#  10]+0.034*[#  23]+0.021*[#  13]
          +0.021*[#  26]+0.016*[#  36]+0.006*[#  39]+0.006*[#  49]+0.006*[#  62]
          
    |psi|^2 = 0.987
==== e(  59) =    10.08174 eV ==== 
     psi = 0.201*[#  50]+0.201*[#  63]+0.142*[#  39]+0.071*[#  52]+0.071*[#  65]
          +0.056*[#  11]+0.056*[#  24]+0.036*[#  13]+0.036*[#  26]+0.023*[#  10]
          +0.023*[#  23]+0.020*[#  37]+0.017*[#  49]+0.017*[#  62]+0.012*[#  36]
          
    |psi|^2 = 0.985
==== e(  60) =    11.56009 eV ==== 
     psi = 0.184*[#  11]+0.184*[#  24]+0.109*[#  13]+0.109*[#  26]+0.077*[#  52]
          +0.077*[#  65]+0.060*[#  50]+0.060*[#  63]+0.055*[#  36]+0.013*[#  39]
          +0.012*[#  10]+0.012*[#  23]+0.009*[#  49]+0.009*[#  62]+0.001*[#  37]
          +0.001*[#  27]
    |psi|^2 = 0.972
==== e(  61) =    11.77845 eV ==== 
     psi = 0.200*[#  13]+0.200*[#  26]+0.139*[#  11]+0.139*[#  24]+0.085*[#  50]
          +0.085*[#  63]+0.024*[#  49]+0.024*[#  62]+0.015*[#  39]+0.013*[#  52]
          +0.013*[#  65]+0.008*[#  37]+0.007*[#  10]+0.007*[#  23]+0.007*[#  36]
          
    |psi|^2 = 0.968
==== e(  62) =    12.13305 eV ==== 
     psi = 0.376*[#  12]+0.376*[#  25]+0.106*[#  51]+0.106*[#  64]
    |psi|^2 = 0.965
==== e(  63) =    12.95128 eV ==== 
     psi = 0.194*[#  13]+0.194*[#  26]+0.127*[#  11]+0.127*[#  24]+0.107*[#  37]
          +0.049*[#  50]+0.049*[#  63]+0.039*[#  39]+0.024*[#  52]+0.024*[#  65]
          +0.011*[#  49]+0.011*[#  62]+0.006*[#  10]+0.006*[#  23]
    |psi|^2 = 0.965
==== e(  64) =    13.05981 eV ==== 
     psi = 0.362*[#  12]+0.362*[#  25]+0.116*[#  38]+0.064*[#  51]+0.064*[#  64]
          
    |psi|^2 = 0.968
==== e(  65) =    13.40311 eV ==== 
     psi = 0.215*[#  13]+0.215*[#  26]+0.099*[#  11]+0.099*[#  24]+0.077*[#  37]
          +0.066*[#  52]+0.066*[#  65]+0.063*[#  39]+0.028*[#  50]+0.028*[#  63]
          +0.004*[#  49]+0.004*[#  62]+0.001*[#  10]+0.001*[#  23]
    |psi|^2 = 0.966
==== e(  66) =    16.04504 eV ==== 
     psi = 0.003*[#  50]+0.003*[#  63]
    |psi|^2 = 0.008
==== e(  67) =    16.64815 eV ==== 
     psi = 0.001*[#  13]+0.001*[#  26]
    |psi|^2 = 0.004
==== e(  68) =    17.33304 eV ==== 
 
    |psi|^2 = 0.002
==== e(  69) =    17.50151 eV ==== 
     psi = 0.005*[#  11]+0.005*[#  24]+0.002*[#  50]+0.002*[#  63]+0.002*[#  13]
          +0.002*[#  26]+0.002*[#  36]
    |psi|^2 = 0.024
==== e(  70) =    17.68737 eV ==== 
     psi = 0.001*[#  11]+0.001*[#  24]+0.001*[#  50]+0.001*[#  63]
    |psi|^2 = 0.008
==== e(  71) =    18.75780 eV ==== 
     psi = 0.002*[#  13]+0.002*[#  26]+0.001*[#  52]+0.001*[#  65]
    |psi|^2 = 0.008

Lowdin Charges: 

     Atom #   1: total charge =  22.4580, s =  3.9676, 
     Atom #   1: total charge =  22.4580, p =  8.4918, pz=  2.8199, px=  2.8363, py=  2.8356, 
     Atom #   1: total charge =  22.4580, d =  9.9986, dz2=  1.9999, dxz=  1.9995, dyz=  1.9995, dx2-y2=  1.9998, dxy=  1.9998, 
     Atom #   2: total charge =  22.4580, s =  3.9676, 
     Atom #   2: total charge =  22.4580, p =  8.4918, pz=  2.8199, px=  2.8363, py=  2.8356, 
     Atom #   2: total charge =  22.4580, d =  9.9986, dz2=  1.9999, dxz=  1.9995, dyz=  1.9995, dx2-y2=  1.9998, dxy=  1.9998, 
     Atom #   3: total charge =  24.4175, s =  3.8741, 
     Atom #   3: total charge =  24.4175, p = 10.5438, pz=  3.4716, px=  3.5363, py=  3.5359, 
     Atom #   3: total charge =  24.4175, d =  9.9996, dz2=  2.0000, dxz=  1.9999, dyz=  1.9999, dx2-y2=  1.9999, dxy=  1.9999, 
     Atom #   4: total charge =  24.2507, s =  3.9235, 
     Atom #   4: total charge =  24.2507, p = 10.3275, pz=  3.4040, px=  3.4616, py=  3.4619, 
     Atom #   4: total charge =  24.2507, d =  9.9998, dz2=  2.0000, dxz=  1.9999, dyz=  1.9999, dx2-y2=  2.0000, dxy=  2.0000, 
     Atom #   5: total charge =  24.2507, s =  3.9235, 
     Atom #   5: total charge =  24.2507, p = 10.3275, pz=  3.4040, px=  3.4616, py=  3.4619, 
     Atom #   5: total charge =  24.2507, d =  9.9998, dz2=  2.0000, dxz=  1.9999, dyz=  1.9999, dx2-y2=  2.0000, dxy=  2.0000, 
     Spilling Parameter:   0.0014
 
     PROJWFC      :     12.29s CPU     19.51s WALL

 
   This run was terminated on:  21:53:34  11May2023            

=------------------------------------------------------------------------------=
   JOB DONE.
=------------------------------------------------------------------------------=
