 written on 11May2023 at 21:56:20 
          15
         313
    2    1    1    1    1    1    2    2    2    2    1    1    1    1    1
    1    1    1    1    1    4    2    4    1    1    1    1    1    1    1
    1    1    1    1    1    1    2    1    2    1    1    2    2    1    1
    1    1    1    1    1    1    1    1    1    1    1    1    1    2    1
    2    1    1    1    1    1    1    2    1    1    1    1    1    1    1
    1    1    1    1    1    1    1    2    1    2    1    1    1    1    1
    1    1    1    1    1    1    1    1    1    1    1    1    1    1    1
    1    2    1    2    1    1    1    1    1    1    1    1    1    1    1
    1    1    1    1    1    1    1    1    1    1    2    1    2    1    1
    1    1    1    1    1    1    1    1    2    2    1    1    1    1    1
    1    1    1    1    1    2    1    2    1    1    1    1    1    1    1
    1    1    1    2    2    1    1    1    1    1    1    1    1    1    1
    2    1    2    1    1    1    1    1    1    1    1    1    1    1    1
    1    1    1    1    1    1    1    1    1    2    1    2    1    1    1
    1    1    1    1    1    1    1    1    1    1    1    1    1    1    1
    1    1    1    2    1    2    1    1    1    1    1    1    1    1    1
    1    1    1    1    1    2    1    1    1    1    1    1    2    1    2
    1    1    1    1    1    1    1    1    1    1    1    1    1    1    1
    2    2    1    1    2    1    2    1    1    1    1    1    1    1    1
    1    1    1    1    1    4    2    4    1    1    1    1    1    1    1
    1    1    1    2    2    2    2    1    1    1    1    1    2
   -8    4    0    1    1   -0.000685    0.000000
   -8    4    0    2    1    0.000523   -0.000000
   -8    4    0    3    1   -0.000038   -0.000000
   -8    4    0    4    1   -0.000133    0.000000
   -8    4    0    5    1    0.000109    0.000000
   -8    4    0    6    1   -0.000125    0.000001
   -8    4    0    7    1    0.000431    0.000000
   -8    4    0    8    1   -0.000672   -0.000000
   -8    4    0    9    1    0.000284    0.000000
   -8    4    0   10    1    0.000849   -0.000000
   -8    4    0   11    1   -0.000168   -0.000000
   -8    4    0   12    1    0.000298    0.000000
   -8    4    0   13    1    0.000160    0.000000
   -8    4    0   14    1    0.000190   -0.000000
   -8    4    0   15    1   -0.001322    0.000000
   -8    4    0    1    2   -0.000306    0.000000
   -8    4    0    2    2   -0.000480   -0.000000
   -8    4    0    3    2   -0.000118   -0.000000
   -8    4    0    4    2    0.000028    0.000000
   -8    4    0    5    2    0.000091   -0.000000
   -8    4    0    6    2    0.000791    0.000000
   -8    4    0    7    2   -0.000133   -0.000000
   -8    4    0    8    2    0.000927    0.000001
   -8    4    0    9    2   -0.000002   -0.000000
   -8    4    0   10    2   -0.001012    0.000001
   -8    4    0   11    2    0.000076    0.000000
   -8    4    0   12    2   -0.000274   -0.000001
   -8    4    0   13    2    0.000326   -0.000000
   -8    4    0   14    2    0.000011    0.000000
   -8    4    0   15    2    0.001115   -0.000001
   -8    4    0    1    3    0.000198    0.000000
   -8    4    0    2    3   -0.000350    0.000000
   -8    4    0    3    3    0.003681    0.000000
   -8    4    0    4    3   -0.000436    0.000000
   -8    4    0    5    3   -0.000078   -0.000000
   -8    4    0    6    3   -0.000472    0.000000
   -8    4    0    7    3   -0.000445   -0.000000
   -8    4    0    8    3    0.001373    0.000000
   -8    4    0    9    3   -0.000552    0.000000
   -8    4    0   10    3    0.000780   -0.000001
   -8    4    0   11    3   -0.000611   -0.000001
   -8    4    0   12    3   -0.001610   -0.000000
   -8    4    0   13    3   -0.000315    0.000000
   -8    4    0   14    3   -0.000525    0.000001
   -8    4    0   15    3    0.000254    0.000000
   -8    4    0    1    4   -0.000111   -0.000000
   -8    4    0    2    4    0.000079   -0.000000
   -8    4    0    3    4   -0.000978   -0.000000
   -8    4    0    4    4   -0.000641    0.000000
   -8    4    0    5    4    0.000428    0.000000
   -8    4    0    6    4    0.000009   -0.000000
   -8    4    0    7    4   -0.000463   -0.000000
   -8    4    0    8    4    0.000622    0.000000
   -8    4    0    9    4    0.000069   -0.000000
   -8    4    0   10    4   -0.000893    0.000000
   -8    4    0   11    4   -0.000360    0.000000
   -8    4    0   12    4   -0.000334    0.000000
   -8    4    0   13    4   -0.000078   -0.000000
   -8    4    0   14    4    0.000564   -0.000000
   -8    4    0   15    4    0.000085   -0.000000
   -8    4    0    1    5   -0.000092    0.000000
   -8    4    0    2    5    0.000023    0.000000
   -8    4    0    3    5    0.000277    0.000000
   -8    4    0    4    5    0.000680    0.000000
   -8    4    0    5    5   -0.000504    0.000000
   -8    4    0    6    5    0.000262    0.000000
   -8    4    0    7    5    0.000588   -0.000000
   -8    4    0    8    5   -0.001134   -0.000000
   -8    4    0    9    5    0.000100    0.000000
   -8    4    0   10    5    0.000427   -0.000000
   -8    4    0   11    5    0.000108   -0.000000
   -8    4    0   12    5    0.000185    0.000000
   -8    4    0   13    5    0.000136   -0.000000
   -8    4    0   14    5   -0.001251    0.000000
   -8    4    0   15    5    0.000014    0.000000
   -8    4    0    1    6    0.000264   -0.000000
   -8    4    0    2    6    0.000660   -0.000001
   -8    4    0    3    6   -0.000311    0.000001
   -8    4    0    4    6    0.000139    0.000000
   -8    4    0    5    6    0.000391   -0.000000
   -8    4    0    6    6    0.006294    0.000001
   -8    4    0    7    6    0.000428   -0.000000
   -8    4    0    8    6   -0.000509    0.000002
   -8    4    0    9    6   -0.000036   -0.000001
   -8    4    0   10    6   -0.000343    0.000002
   -8    4    0   11    6   -0.000011    0.000002
   -8    4    0   12    6   -0.000336   -0.000005
   -8    4    0   13    6    0.000835   -0.000000
   -8    4    0   14    6    0.000078    0.000000
   -8    4    0   15    6    0.001264   -0.000005
   -8    4    0    1    7    0.000087   -0.000000
   -8    4    0    2    7    0.000158   -0.000000
   -8    4    0    3    7   -0.000856    0.000000
   -8    4    0    4    7   -0.000996    0.000000
   -8    4    0    5    7    0.000641    0.000000
   -8    4    0    6    7    0.000477   -0.000000
   -8    4    0    7    7   -0.000364   -0.000000
   -8    4    0    8    7    0.000345    0.000000
   -8    4    0    9    7   -0.000766   -0.000000
   -8    4    0   10    7    0.000022    0.000000
   -8    4    0   11    7   -0.000679    0.000000
   -8    4    0   12    7   -0.000706   -0.000001
   -8    4    0   13    7   -0.000792    0.000000
   -8    4    0   14    7   -0.000116   -0.000000
   -8    4    0   15    7    0.000317   -0.000001
   -8    4    0    1    8   -0.000096   -0.000000
   -8    4    0    2    8    0.000340    0.000000
   -8    4    0    3    8   -0.000341   -0.000001
   -8    4    0    4    8    0.001066    0.000000
   -8    4    0    5    8   -0.000998   -0.000000
   -8    4    0    6    8   -0.000218   -0.000003
   -8    4    0    7    8    0.000468   -0.000000
   -8    4    0    8    8   -0.001014   -0.000001
   -8    4    0    9    8    0.000703    0.000000
   -8    4    0   10    8    0.001625   -0.000000
   -8    4    0   11    8    0.000540   -0.000000
   -8    4    0   12    8    0.000824    0.000001
   -8    4    0   13    8    0.000302    0.000000
   -8    4    0   14    8   -0.000630   -0.000000
   -8    4    0   15    8   -0.001000    0.000001
   -8    4    0    1    9    0.000351    0.000000
   -8    4    0    2    9    0.000229    0.000000
   -8    4    0    3    9   -0.000686   -0.000000
   -8    4    0    4    9   -0.000211   -0.000000
   -8    4    0    5    9    0.000051   -0.000000
   -8    4    0    6    9   -0.000252    0.000001
   -8    4    0    7    9   -0.000414    0.000000
   -8    4    0    8    9   -0.000314   -0.000000
   -8    4    0    9    9   -0.000294    0.000000
   -8    4    0   10    9   -0.000564   -0.000000
   -8    4    0   11    9   -0.000061   -0.000000
   -8    4    0   12    9    0.000093    0.000000
   -8    4    0   13    9   -0.000353   -0.000000
   -8    4    0   14    9   -0.000133    0.000000
   -8    4    0   15    9    0.000454    0.000001
   -8    4    0    1   10    0.000551   -0.000000
   -8    4    0    2   10   -0.000594    0.000000
   -8    4    0    3   10    0.000115    0.000000
   -8    4    0    4   10    0.000508   -0.000000
   -8    4    0    5   10    0.000203    0.000000
   -8    4    0    6   10   -0.000359   -0.000003
   -8    4    0    7   10   -0.000271   -0.000000
   -8    4    0    8   10    0.001412   -0.000000
   -8    4    0    9   10    0.000103    0.000000
   -8    4    0   10   10    0.000108   -0.000000
   -8    4    0   11   10    0.000203   -0.000000
   -8    4    0   12   10   -0.000256    0.000001
   -8    4    0   13   10    0.000528    0.000000
   -8    4    0   14   10    0.000873   -0.000000
   -8    4    0   15   10    0.001487    0.000001
   -8    4    0    1   11   -0.000342   -0.000000
   -8    4    0    2   11    0.000398    0.000000
   -8    4    0    3   11    0.000169    0.000000
   -8    4    0    4   11   -0.000981   -0.000000
   -8    4    0    5   11   -0.000139    0.000000
   -8    4    0    6   11    0.000257   -0.000001
   -8    4    0    7   11   -0.000144   -0.000000
   -8    4    0    8   11    0.000076   -0.000000
   -8    4    0    9   11   -0.000223    0.000000
   -8    4    0   10   11    0.000255    0.000000
   -8    4    0   11   11   -0.000349   -0.000000
   -8    4    0   12   11    0.000118    0.000001
   -8    4    0   13   11   -0.000058    0.000000
   -8    4    0   14   11    0.000581   -0.000000
   -8    4    0   15   11   -0.000468    0.000000
   -8    4    0    1   12    0.000763    0.000001
   -8    4    0    2   12   -0.001089   -0.000000
   -8    4    0    3   12   -0.000692    0.000000
   -8    4    0    4   12   -0.000493   -0.000000
   -8    4    0    5   12    0.000296   -0.000000
   -8    4    0    6   12   -0.000943    0.000003
   -8    4    0    7   12   -0.000564    0.000000
   -8    4    0    8   12    0.001967   -0.000000
   -8    4    0    9   12    0.000534   -0.000000
   -8    4    0   10   12   -0.000799   -0.000000
   -8    4    0   11   12    0.000218   -0.000000
   -8    4    0   12   12   -0.000538   -0.000000
   -8    4    0   13   12    0.000259   -0.000000
   -8    4    0   14   12    0.000553    0.000000
   -8    4    0   15   12    0.000578    0.000000
   -8    4    0    1   13   -0.000118    0.000000
   -8    4    0    2   13    0.000381    0.000000
   -8    4    0    3   13   -0.000769    0.000000
   -8    4    0    4   13   -0.000460   -0.000000
   -8    4    0    5   13    0.000376   -0.000000
   -8    4    0    6   13    0.000615    0.000000
   -8    4    0    7   13   -0.000147   -0.000000
   -8    4    0    8   13   -0.000459   -0.000000
   -8    4    0    9   13   -0.000187    0.000000
   -8    4    0   10   13   -0.000144   -0.000000
   -8    4    0   11   13    0.000088   -0.000000
   -8    4    0   12   13   -0.000012    0.000000
   -8    4    0   13   13   -0.000387   -0.000000
   -8    4    0   14   13    0.000103    0.000000
   -8    4    0   15   13    0.000229    0.000000
   -8    4    0    1   14   -0.000072   -0.000000
   -8    4    0    2   14    0.000021   -0.000000
   -8    4    0    3   14    0.002461   -0.000001
   -8    4    0    4   14    0.000243    0.000000
   -8    4    0    5   14   -0.000698   -0.000000
   -8    4    0    6   14   -0.000358   -0.000001
   -8    4    0    7   14    0.000091   -0.000000
   -8    4    0    8   14   -0.000487    0.000001
   -8    4    0    9   14    0.000005   -0.000000
   -8    4    0   10   14    0.001125    0.000000
   -8    4    0   11   14    0.000198    0.000000
   -8    4    0   12   14   -0.000315   -0.000000
   -8    4    0   13   14   -0.000314    0.000000
   -8    4    0   14   14   -0.000821    0.000000
   -8    4    0   15   14   -0.000169   -0.000001
   -8    4    0    1   15   -0.000465    0.000001
   -8    4    0    2   15    0.000256   -0.000000
   -8    4    0    3   15    0.000724   -0.000001
   -8    4    0    4   15    0.000051    0.000000
   -8    4    0    5   15   -0.000122   -0.000000
   -8    4    0    6   15    0.001779    0.000006
   -8    4    0    7   15    0.000224    0.000000
   -8    4    0    8   15   -0.000926   -0.000000
   -8    4    0    9   15   -0.000060   -0.000000
   -8    4    0   10   15    0.001755   -0.000001
   -8    4    0   11   15   -0.000660   -0.000000
   -8    4    0   12   15    0.001736    0.000000
   -8    4    0   13   15    0.000074   -0.000000
   -8    4    0   14   15   -0.000392    0.000000
   -8    4    0   15   15   -0.001528    0.000000
   -7    2    0    1    1    0.000036   -0.000000
   -7    2    0    2    1    0.000255    0.000000
   -7    2    0    3    1   -0.001124    0.000000
   -7    2    0    4    1   -0.000095    0.000000
   -7    2    0    5    1   -0.000157    0.000000
   -7    2    0    6    1    0.000674   -0.000000
   -7    2    0    7    1    0.000153   -0.000000
   -7    2    0    8    1   -0.000277    0.000000
   -7    2    0    9    1    0.000203    0.000000
   -7    2    0   10    1   -0.000903   -0.000000
   -7    2    0   11    1   -0.000080   -0.000000
   -7    2    0   12    1    0.000709   -0.000000
   -7    2    0   13    1   -0.000179    0.000000
   -7    2    0   14    1    0.000513    0.000000
   -7    2    0   15    1   -0.000395   -0.000000
   -7    2    0    1    2    0.000578   -0.000000
   -7    2    0    2    2   -0.000067    0.000000
   -7    2    0    3    2   -0.000581    0.000000
   -7    2    0    4    2    0.000075   -0.000000
   -7    2    0    5    2   -0.000003    0.000000
   -7    2    0    6    2   -0.000808   -0.000000
   -7    2    0    7    2    0.000165    0.000000
   -7    2    0    8    2   -0.000122   -0.000000
   -7    2    0    9    2   -0.000285    0.000000
   -7    2    0   10    2   -0.000052   -0.000000
   -7    2    0   11    2    0.000226   -0.000000
   -7    2    0   12    2   -0.000114    0.000001
   -7    2    0   13    2    0.000233    0.000000
   -7    2    0   14    2    0.000239   -0.000000
   -7    2    0   15    2    0.000447    0.000001
   -7    2    0    1    3   -0.000017    0.000000
   -7    2    0    2    3   -0.000500   -0.000000
   -7    2    0    3    3    0.004810    0.000000
   -7    2    0    4    3   -0.000191    0.000000
   -7    2    0    5    3   -0.000775   -0.000000
   -7    2    0    6    3   -0.000564    0.000001
   -7    2    0    7    3    0.000063    0.000000
   -7    2    0    8    3   -0.000979    0.000001
   -7    2    0    9    3    0.000382   -0.000000
   -7    2    0   10    3    0.001512   -0.000000
   -7    2    0   11    3    0.000123   -0.000000
   -7    2    0   12    3   -0.001456   -0.000001
   -7    2    0   13    3   -0.000794    0.000000
   -7    2    0   14    3    0.000572    0.000000
   -7    2    0   15    3   -0.001190   -0.000000
   -7    2    0    1    4    0.000088   -0.000000
   -7    2    0    2    4    0.000177    0.000000
   -7    2    0    3    4   -0.000899    0.000000
   -7    2    0    4    4   -0.000182    0.000000
   -7    2    0    5    4    0.000340   -0.000000
   -7    2    0    6    4   -0.000270   -0.000000
   -7    2    0    7    4   -0.000201   -0.000000
   -7    2    0    8    4    0.000314   -0.000000
   -7    2    0    9    4    0.000305   -0.000000
   -7    2    0   10    4   -0.000452    0.000000
   -7    2    0   11    4   -0.000471    0.000000
   -7    2    0   12    4   -0.000390   -0.000000
   -7    2    0   13    4   -0.000170    0.000000
   -7    2    0   14    4    0.000778   -0.000000
   -7    2    0   15    4    0.000457   -0.000000
   -7    2    0    1    5   -0.000284    0.000000
   -7    2    0    2    5    0.000037    0.000000
   -7    2    0    3    5   -0.001054   -0.000000
   -7    2    0    4    5   -0.000873   -0.000000
   -7    2    0    5    5    0.000121   -0.000000
   -7    2    0    6    5    0.000325    0.000000
   -7    2    0    7    5    0.000175    0.000000
   -7    2    0    8    5   -0.000481    0.000000
   -7    2    0    9    5    0.000357    0.000000
   -7    2    0   10    5   -0.000367    0.000000
   -7    2    0   11    5    0.000088    0.000000
   -7    2    0   12    5    0.000267   -0.000000
   -7    2    0   13    5   -0.000048    0.000000
   -7    2    0   14    5    0.001007    0.000000
   -7    2    0   15    5   -0.000083    0.000000
   -7    2    0    1    6    0.000013    0.000000
   -7    2    0    2    6   -0.000274    0.000001
   -7    2    0    3    6   -0.001073   -0.000000
   -7    2    0    4    6   -0.000097   -0.000000
   -7    2    0    5    6   -0.000416   -0.000000
   -7    2    0    6    6   -0.005360   -0.000000
   -7    2    0    7    6   -0.000008    0.000000
   -7    2    0    8    6    0.000514   -0.000001
   -7    2    0    9    6   -0.000195    0.000000
   -7    2    0   10    6   -0.000566   -0.000001
   -7    2    0   11    6    0.000540   -0.000001
   -7    2    0   12    6   -0.000185    0.000003
   -7    2    0   13    6   -0.000019    0.000000
   -7    2    0   14    6    0.000545   -0.000000
   -7    2    0   15    6   -0.000340    0.000002
   -7    2    0    1    7   -0.000057    0.000000
   -7    2    0    2    7    0.000346    0.000000
   -7    2    0    3    7    0.000834    0.000000
   -7    2    0    4    7    0.000457   -0.000000
   -7    2    0    5    7   -0.000007    0.000000
   -7    2    0    6    7   -0.000044    0.000000
   -7    2    0    7    7   -0.000114    0.000000
   -7    2    0    8    7    0.000486   -0.000000
   -7    2    0    9    7    0.000317    0.000000
   -7    2    0   10    7    0.000457   -0.000000
   -7    2    0   11    7   -0.000119   -0.000000
   -7    2    0   12    7   -0.000463    0.000001
   -7    2    0   13    7   -0.000230    0.000000
   -7    2    0   14    7   -0.000195   -0.000000
   -7    2    0   15    7   -0.000491    0.000001
   -7    2    0    1    8   -0.000888    0.000000
   -7    2    0    2    8   -0.000007   -0.000000
   -7    2    0    3    8   -0.001682   -0.000000
   -7    2    0    4    8   -0.002041    0.000000
   -7    2    0    5    8    0.000509   -0.000000
   -7    2    0    6    8    0.000393    0.000002
   -7    2    0    7    8    0.000096    0.000000
   -7    2    0    8    8   -0.001040    0.000000
   -7    2    0    9    8    0.000644   -0.000000
   -7    2    0   10    8   -0.000962    0.000000
   -7    2    0   11    8   -0.000799    0.000000
   -7    2    0   12    8    0.000806   -0.000001
   -7    2    0   13    8    0.000470   -0.000000
   -7    2    0   14    8    0.001394    0.000000
   -7    2    0   15    8   -0.000433   -0.000001
   -7    2    0    1    9   -0.000031   -0.000000
   -7    2    0    2    9   -0.000199   -0.000000
   -7    2    0    3    9   -0.000468    0.000000
   -7    2    0    4    9    0.000137    0.000000
   -7    2    0    5    9   -0.000558    0.000000
   -7    2    0    6    9    0.000700   -0.000001
   -7    2    0    7    9   -0.000365   -0.000000
   -7    2    0    8    9   -0.000502    0.000000
   -7    2    0    9    9    0.000340   -0.000000
   -7    2    0   10    9    0.000340    0.000000
   -7    2    0   11    9    0.000667    0.000000
   -7    2    0   12    9    0.000403   -0.000000
   -7    2    0   13    9   -0.000459    0.000000
   -7    2    0   14    9    0.000423    0.000000
   -7    2    0   15    9   -0.000470   -0.000000
   -7    2    0    1   10   -0.000081    0.000000
   -7    2    0    2   10   -0.000426   -0.000000
   -7    2    0    3   10   -0.000203   -0.000000
   -7    2    0    4   10   -0.000481   -0.000000
   -7    2    0    5   10    0.000536    0.000000
   -7    2    0    6   10   -0.001197    0.000001
   -7    2    0    7   10    0.000342    0.000000
   -7    2    0    8   10   -0.000003    0.000000
   -7    2    0    9   10   -0.000478   -0.000000
   -7    2    0   10   10   -0.001489    0.000000
   -7    2    0   11   10   -0.000432    0.000000
   -7    2    0   12   10   -0.000173   -0.000001
   -7    2    0   13   10    0.000235   -0.000000
   -7    2    0   14   10    0.000339    0.000000
   -7    2    0   15   10    0.000163   -0.000001
   -7    2    0    1   11   -0.000126    0.000000
   -7    2    0    2   11    0.000196    0.000000
   -7    2    0    3   11    0.001878    0.000000
   -7    2    0    4   11    0.001140   -0.000000
   -7    2    0    5   11   -0.000093    0.000000
   -7    2    0    6   11   -0.000088    0.000001
   -7    2    0    7   11   -0.000178    0.000000
   -7    2    0    8   11    0.000708   -0.000000
   -7    2    0    9   11   -0.000067   -0.000000
   -7    2    0   10   11    0.001915    0.000000
   -7    2    0   11   11    0.000475   -0.000000
   -7    2    0   12   11   -0.000857    0.000000
   -7    2    0   13   11   -0.000278   -0.000000
   -7    2    0   14   11   -0.002040    0.000000
   -7    2    0   15   11   -0.001167   -0.000000
   -7    2    0    1   12    0.000542   -0.000000
   -7    2    0    2   12   -0.000438    0.000000
   -7    2    0    3   12   -0.000521    0.000000
   -7    2    0    4   12    0.000394   -0.000000
   -7    2    0    5   12   -0.000381    0.000000
   -7    2    0    6   12   -0.000448   -0.000002
   -7    2    0    7   12   -0.000265   -0.000000
   -7    2    0    8   12   -0.000815    0.000000
   -7    2    0    9   12   -0.000710    0.000000
   -7    2    0   10   12   -0.000443    0.000000
   -7    2    0   11   12   -0.001011   -0.000000
   -7    2    0   12   12    0.000253    0.000000
   -7    2    0   13   12   -0.000219    0.000000
   -7    2    0   14   12   -0.000194    0.000000
   -7    2    0   15   12    0.000449    0.000000
   -7    2    0    1   13   -0.000187   -0.000000
   -7    2    0    2   13    0.000203   -0.000000
   -7    2    0    3   13   -0.000787    0.000000
   -7    2    0    4   13    0.000040    0.000000
   -7    2    0    5   13   -0.000005   -0.000000
   -7    2    0    6   13   -0.000734   -0.000001
   -7    2    0    7   13    0.000214    0.000000
   -7    2    0    8   13    0.000124    0.000000
   -7    2    0    9   13    0.000707   -0.000000
   -7    2    0   10   13   -0.000350    0.000000
   -7    2    0   11   13    0.000097    0.000000
   -7    2    0   12   13   -0.000646   -0.000000
   -7    2    0   13   13    0.000237    0.000000
   -7    2    0   14   13    0.000293   -0.000000
   -7    2    0   15   13   -0.000091   -0.000000
   -7    2    0    1   14    0.000145   -0.000000
   -7    2    0    2   14   -0.000162   -0.000000
   -7    2    0    3   14    0.002459   -0.000000
   -7    2    0    4   14    0.000473    0.000000
   -7    2    0    5   14   -0.001444   -0.000000
   -7    2    0    6   14   -0.000665   -0.000000
   -7    2    0    7   14    0.000085    0.000000
   -7    2    0    8   14   -0.001432   -0.000000
   -7    2    0    9   14    0.000054   -0.000000
   -7    2    0   10   14    0.000449    0.000000
   -7    2    0   11   14    0.001524    0.000000
   -7    2    0   12   14    0.000491   -0.000000
   -7    2    0   13   14   -0.000386   -0.000000
   -7    2    0   14   14   -0.001176   -0.000000
   -7    2    0   15   14    0.000489   -0.000000
   -7    2    0    1   15   -0.000100   -0.000001
   -7    2    0    2   15    0.000563    0.000000
   -7    2    0    3   15   -0.000526    0.000000
   -7    2    0    4   15   -0.000178   -0.000000
   -7    2    0    5   15    0.000213    0.000000
   -7    2    0    6   15   -0.000142   -0.000003
   -7    2    0    7   15    0.000151   -0.000001
   -7    2    0    8   15   -0.000280    0.000001
   -7    2    0    9   15   -0.000558    0.000000
   -7    2    0   10   15   -0.000813    0.000001
   -7    2    0   11   15    0.000544    0.000000
   -7    2    0   12   15   -0.000155   -0.000000
   -7    2    0   13   15   -0.000041    0.000000
   -7    2    0   14   15    0.000558    0.000000
   -7    2    0   15   15    0.001390   -0.000000
   -7    3   -1    1    1   -0.000133   -0.000000
   -7    3   -1    2    1   -0.000331   -0.000000
   -7    3   -1    3    1    0.001079   -0.000000
   -7    3   -1    4    1    0.000290    0.000000
   -7    3   -1    5    1   -0.000107   -0.000000
   -7    3   -1    6    1   -0.000552   -0.000000
   -7    3   -1    7    1   -0.000257   -0.000000
   -7    3   -1    8    1   -0.000249    0.000000
   -7    3   -1    9    1    0.000067   -0.000000
   -7    3   -1   10    1    0.000199    0.000000
   -7    3   -1   11    1   -0.000825    0.000000
   -7    3   -1   12    1    0.000604   -0.000000
   -7    3   -1   13    1   -0.000072    0.000000
   -7    3   -1   14    1   -0.000041    0.000000
   -7    3   -1   15    1    0.000501   -0.000000
   -7    3   -1    1    2    0.000564   -0.000000
   -7    3   -1    2    2   -0.000188    0.000000
   -7    3   -1    3    2    0.000454    0.000000
   -7    3   -1    4    2   -0.000187   -0.000000
   -7    3   -1    5    2    0.000051    0.000000
   -7    3   -1    6    2   -0.000197   -0.000001
   -7    3   -1    7    2    0.000379    0.000000
   -7    3   -1    8    2   -0.000117   -0.000001
   -7    3   -1    9    2   -0.000216    0.000000
   -7    3   -1   10    2   -0.000851   -0.000000
   -7    3   -1   11    2    0.000256   -0.000000
   -7    3   -1   12    2   -0.000123    0.000001
   -7    3   -1   13    2    0.000043    0.000000
   -7    3   -1   14    2    0.000043   -0.000000
   -7    3   -1   15    2    0.000346    0.000001
   -7    3   -1    1    3    0.000148    0.000000
   -7    3   -1    2    3   -0.000245   -0.000000
   -7    3   -1    3    3    0.004052    0.000000
   -7    3   -1    4    3    0.000638    0.000000
   -7    3   -1    5    3   -0.000082   -0.000000
   -7    3   -1    6    3    0.000580    0.000000
   -7    3   -1    7    3   -0.000186   -0.000000
   -7    3   -1    8    3   -0.000432    0.000001
   -7    3   -1    9    3   -0.000745    0.000000
   -7    3   -1   10    3    0.001297    0.000000
   -7    3   -1   11    3    0.001778    0.000000
   -7    3   -1   12    3    0.000079   -0.000000
   -7    3   -1   13    3   -0.000079   -0.000000
   -7    3   -1   14    3   -0.000451    0.000001
   -7    3   -1   15    3   -0.000864   -0.000000
   -7    3   -1    1    4    0.000080   -0.000000
   -7    3   -1    2    4   -0.000030   -0.000000
   -7    3   -1    3    4    0.000317    0.000000
   -7    3   -1    4    4   -0.000641    0.000000
   -7    3   -1    5    4    0.000615   -0.000000
   -7    3   -1    6    4   -0.000171   -0.000000
   -7    3   -1    7    4   -0.000461   -0.000000
   -7    3   -1    8    4    0.000953   -0.000000
   -7    3   -1    9    4   -0.000104   -0.000000
   -7    3   -1   10    4    0.000421    0.000000
   -7    3   -1   11    4   -0.000931    0.000000
   -7    3   -1   12    4    0.000159   -0.000000
   -7    3   -1   13    4   -0.000202   -0.000000
   -7    3   -1   14    4    0.000632   -0.000000
   -7    3   -1   15    4   -0.000412   -0.000000
   -7    3   -1    1    5    0.000144    0.000000
   -7    3   -1    2    5   -0.000101   -0.000000
   -7    3   -1    3    5    0.000396   -0.000000
   -7    3   -1    4    5    0.000593   -0.000000
   -7    3   -1    5    5   -0.000926    0.000000
   -7    3   -1    6    5   -0.000599    0.000001
   -7    3   -1    7    5    0.000135   -0.000000
   -7    3   -1    8    5   -0.001176    0.000000
   -7    3   -1    9    5    0.000173   -0.000000
   -7    3   -1   10    5    0.000508   -0.000000
   -7    3   -1   11    5    0.000581   -0.000000
   -7    3   -1   12    5   -0.000035   -0.000000
   -7    3   -1   13    5   -0.000229    0.000000
   -7    3   -1   14    5   -0.001084    0.000000
   -7    3   -1   15    5    0.000174   -0.000000
   -7    3   -1    1    6   -0.001780    0.000000
   -7    3   -1    2    6    0.001080    0.000001
   -7    3   -1    3    6    0.000588   -0.000001
   -7    3   -1    4    6    0.000534   -0.000000
   -7    3   -1    5    6    0.000165    0.000000
   -7    3   -1    6    6    0.001811   -0.000001
   -7    3   -1    7    6    0.000238    0.000000
   -7    3   -1    8    6    0.000296   -0.000003
   -7    3   -1    9    6    0.000079    0.000001
   -7    3   -1   10    6    0.000149   -0.000002
   -7    3   -1   11    6   -0.001215   -0.000002
   -7    3   -1   12    6   -0.000143    0.000005
   -7    3   -1   13    6   -0.000364   -0.000000
   -7    3   -1   14    6   -0.000376   -0.000000
   -7    3   -1   15    6   -0.001157    0.000004
   -7    3   -1    1    7    0.000436    0.000000
   -7    3   -1    2    7   -0.000190    0.000000
   -7    3   -1    3    7   -0.001793   -0.000000
   -7    3   -1    4    7   -0.000612   -0.000000
   -7    3   -1    5    7    0.000424   -0.000000
   -7    3   -1    6    7   -0.000463    0.000000
   -7    3   -1    7    7   -0.000175    0.000000
   -7    3   -1    8    7   -0.000002   -0.000001
   -7    3   -1    9    7   -0.000185    0.000000
   -7    3   -1   10    7   -0.001726   -0.000001
   -7    3   -1   11    7    0.000076   -0.000000
   -7    3   -1   12    7   -0.000256    0.000001
   -7    3   -1   13    7    0.000094   -0.000000
   -7    3   -1   14    7    0.000399   -0.000000
   -7    3   -1   15    7    0.000620    0.000001
   -7    3   -1    1    8   -0.000831    0.000000
   -7    3   -1    2    8    0.000380   -0.000000
   -7    3   -1    3    8    0.001791   -0.000001
   -7    3   -1    4    8    0.001336    0.000000
   -7    3   -1    5    8   -0.000828   -0.000000
   -7    3   -1    6    8    0.000172    0.000003
   -7    3   -1    7    8   -0.000588    0.000000
   -7    3   -1    8    8    0.000284    0.000001
   -7    3   -1    9    8    0.000433   -0.000000
   -7    3   -1   10    8    0.002781    0.000000
   -7    3   -1   11    8    0.000527    0.000000
   -7    3   -1   12    8    0.000600   -0.000001
   -7    3   -1   13    8   -0.000797   -0.000000
   -7    3   -1   14    8   -0.001460    0.000000
   -7    3   -1   15    8   -0.000610   -0.000001
   -7    3   -1    1    9    0.000046   -0.000000
   -7    3   -1    2    9   -0.000302   -0.000000
   -7    3   -1    3    9    0.000788    0.000000
   -7    3   -1    4    9    0.000400    0.000000
   -7    3   -1    5    9    0.000023    0.000000
   -7    3   -1    6    9    0.001030   -0.000001
   -7    3   -1    7    9   -0.000493   -0.000000
   -7    3   -1    8    9    0.000250    0.000000
   -7    3   -1    9    9   -0.000367   -0.000000
   -7    3   -1   10    9    0.001339    0.000000
   -7    3   -1   11    9    0.000105    0.000000
   -7    3   -1   12    9    0.000424   -0.000000
   -7    3   -1   13    9   -0.000330    0.000000
   -7    3   -1   14    9   -0.001309    0.000000
   -7    3   -1   15    9   -0.000244   -0.000000
   -7    3   -1    1   10   -0.000759    0.000000
   -7    3   -1    2   10   -0.000418   -0.000000
   -7    3   -1    3   10    0.001641    0.000000
   -7    3   -1    4   10    0.000157    0.000000
   -7    3   -1    5   10   -0.000840   -0.000000
   -7    3   -1    6   10    0.000284    0.000003
   -7    3   -1    7   10   -0.000371    0.000000
   -7    3   -1    8   10    0.002155    0.000000
   -7    3   -1    9   10   -0.000468   -0.000000
   -7    3   -1   10   10    0.000611    0.000000
   -7    3   -1   11   10    0.000584    0.000000
   -7    3   -1   12   10   -0.000074   -0.000001
   -7    3   -1   13   10    0.000200   -0.000000
   -7    3   -1   14   10   -0.000669    0.000000
   -7    3   -1   15   10   -0.000631   -0.000001
   -7    3   -1    1   11   -0.000172    0.000000
   -7    3   -1    2   11   -0.000137   -0.000000
   -7    3   -1    3   11   -0.001186    0.000000
   -7    3   -1    4   11   -0.000662   -0.000000
   -7    3   -1    5   11    0.000945   -0.000000
   -7    3   -1    6   11    0.000676    0.000001
   -7    3   -1    7   11   -0.000517    0.000000
   -7    3   -1    8   11    0.001284   -0.000000
   -7    3   -1    9   11    0.000459   -0.000000
   -7    3   -1   10   11    0.000271   -0.000000
   -7    3   -1   11   11   -0.001097    0.000000
   -7    3   -1   12   11   -0.000730    0.000000
   -7    3   -1   13   11    0.000054   -0.000000
   -7    3   -1   14   11    0.000744    0.000000
   -7    3   -1   15   11   -0.000783    0.000000
   -7    3   -1    1   12    0.000300   -0.000001
   -7    3   -1    2   12    0.000175    0.000000
   -7    3   -1    3   12   -0.001544    0.000001
   -7    3   -1    4   12   -0.000808   -0.000000
   -7    3   -1    5   12    0.000942    0.000000
   -7    3   -1    6   12   -0.000812   -0.000004
   -7    3   -1    7   12    0.000307   -0.000000
   -7    3   -1    8   12    0.001090    0.000000
   -7    3   -1    9   12   -0.000195    0.000000
   -7    3   -1   10   12   -0.001373    0.000000
   -7    3   -1   11   12   -0.000536    0.000000
   -7    3   -1   12   12   -0.000985    0.000000
   -7    3   -1   13   12    0.000106    0.000000
   -7    3   -1   14   12    0.001132   -0.000000
   -7    3   -1   15   12    0.001584   -0.000000
   -7    3   -1    1   13   -0.000429   -0.000000
   -7    3   -1    2   13    0.000362   -0.000000
   -7    3   -1    3   13   -0.001182   -0.000000
   -7    3   -1    4   13   -0.000550   -0.000000
   -7    3   -1    5   13    0.000515    0.000000
   -7    3   -1    6   13    0.000757   -0.000001
   -7    3   -1    7   13   -0.000639   -0.000000
   -7    3   -1    8   13    0.000114    0.000000
   -7    3   -1    9   13    0.000108   -0.000000
   -7    3   -1   10   13    0.000342    0.000000
   -7    3   -1   11   13   -0.000290    0.000000
   -7    3   -1   12   13    0.000196   -0.000000
   -7    3   -1   13   13   -0.000318    0.000000
   -7    3   -1   14   13    0.000185    0.000000
   -7    3   -1   15   13   -0.000270   -0.000000
   -7    3   -1    1   14   -0.000510   -0.000000
   -7    3   -1    2   14    0.000647    0.000000
   -7    3   -1    3   14   -0.000119   -0.000001
   -7    3   -1    4   14    0.000250    0.000000
   -7    3   -1    5   14   -0.000523   -0.000000
   -7    3   -1    6   14    0.001544    0.000000
   -7    3   -1    7   14    0.000243   -0.000000
   -7    3   -1    8   14   -0.001373   -0.000000
   -7    3   -1    9   14   -0.000180   -0.000000
   -7    3   -1   10   14    0.001650    0.000000
   -7    3   -1   11   14    0.000619    0.000000
   -7    3   -1   12   14    0.000380   -0.000000
   -7    3   -1   13   14   -0.000448   -0.000000
   -7    3   -1   14   14   -0.001675   -0.000000
   -7    3   -1   15   14   -0.000074   -0.000000
   -7    3   -1    1   15    0.000057   -0.000001
   -7    3   -1    2   15    0.000870    0.000000
   -7    3   -1    3   15    0.001292    0.000001
   -7    3   -1    4   15    0.000448   -0.000000
   -7    3   -1    5   15   -0.000776    0.000000
   -7    3   -1    6   15    0.000562   -0.000005
   -7    3   -1    7   15    0.000386   -0.000000
   -7    3   -1    8   15   -0.002410    0.000001
   -7    3   -1    9   15   -0.000320    0.000000
   -7    3   -1   10   15    0.000718    0.000001
   -7    3   -1   11   15    0.000650    0.000001
   -7    3   -1   12   15    0.000978    0.000000
   -7    3   -1   13   15    0.000150    0.000000
   -7    3   -1   14   15    0.000398   -0.000000
   -7    3   -1   15   15   -0.000625   -0.000001
   -7    3    0    1    1   -0.000237    0.000000
   -7    3    0    2    1   -0.000057   -0.000000
   -7    3    0    3    1    0.001158   -0.000000
   -7    3    0    4    1    0.000232   -0.000000
   -7    3    0    5    1   -0.000040    0.000000
   -7    3    0    6    1   -0.000173    0.000001
   -7    3    0    7    1    0.000171    0.000000
   -7    3    0    8    1    0.000024   -0.000000
   -7    3    0    9    1    0.000013   -0.000000
   -7    3    0   10    1    0.000742   -0.000000
   -7    3    0   11    1   -0.000083   -0.000000
   -7    3    0   12    1   -0.000104    0.000000
   -7    3    0   13    1    0.000186   -0.000000
   -7    3    0   14    1   -0.000649   -0.000000
   -7    3    0   15    1   -0.000949    0.000000
   -7    3    0    1    2   -0.000529    0.000000
   -7    3    0    2    2    0.000004   -0.000000
   -7    3    0    3    2   -0.000418   -0.000000
   -7    3    0    4    2   -0.000277    0.000000
   -7    3    0    5    2    0.000079   -0.000000
   -7    3    0    6    2    0.001317    0.000001
   -7    3    0    7    2   -0.000288   -0.000000
   -7    3    0    8    2    0.000553    0.000000
   -7    3    0    9    2    0.000113   -0.000000
   -7    3    0   10    2    0.000086    0.000000
   -7    3    0   11    2    0.000033    0.000000
   -7    3    0   12    2   -0.000287   -0.000001
   -7    3    0   13    2   -0.000149   -0.000000
   -7    3    0   14    2   -0.000129    0.000000
   -7    3    0   15    2    0.000267   -0.000001
   -7    3    0    1    3    0.000334   -0.000000
   -7    3    0    2    3    0.000415    0.000000
   -7    3    0    3    3   -0.002473   -0.000000
   -7    3    0    4    3    0.000192   -0.000000
   -7    3    0    5    3    0.000254    0.000000
   -7    3    0    6    3   -0.000011   -0.000001
   -7    3    0    7    3    0.000093    0.000000
   -7    3    0    8    3   -0.000648   -0.000001
   -7    3    0    9    3    0.000447    0.000000
   -7    3    0   10    3   -0.001626    0.000000
   -7    3    0   11    3    0.000513    0.000001
   -7    3    0   12    3    0.001661    0.000001
   -7    3    0   13    3   -0.000080   -0.000000
   -7    3    0   14    3    0.000691   -0.000000
   -7    3    0   15    3    0.001421    0.000000
   -7    3    0    1    4    0.000015    0.000000
   -7    3    0    2    4   -0.000078   -0.000000
   -7    3    0    3    4    0.001400   -0.000000
   -7    3    0    4    4    0.000501   -0.000000
   -7    3    0    5    4   -0.000479    0.000000
   -7    3    0    6    4    0.000339   -0.000000
   -7    3    0    7    4    0.000045    0.000000
   -7    3    0    8    4   -0.000616    0.000000
   -7    3    0    9    4    0.000421    0.000000
   -7    3    0   10    4    0.000889   -0.000000
   -7    3    0   11    4    0.000238   -0.000000
   -7    3    0   12    4    0.000299    0.000000
   -7    3    0   13    4   -0.000208    0.000000
   -7    3    0   14    4   -0.000420    0.000000
   -7    3    0   15    4   -0.000720    0.000000
   -7    3    0    1    5    0.000371   -0.000000
   -7    3    0    2    5   -0.000133   -0.000000
   -7    3    0    3    5    0.000275    0.000000
   -7    3    0    4    5    0.000234    0.000000
   -7    3    0    5    5    0.000060    0.000000
   -7    3    0    6    5   -0.000164   -0.000000
   -7    3    0    7    5   -0.000064   -0.000000
   -7    3    0    8    5    0.000670   -0.000000
   -7    3    0    9    5   -0.000545    0.000000
   -7    3    0   10    5   -0.000138    0.000000
   -7    3    0   11    5    0.000180   -0.000000
   -7    3    0   12    5   -0.000121    0.000000
   -7    3    0   13    5   -0.000040    0.000000
   -7    3    0   14    5   -0.000070   -0.000000
   -7    3    0   15    5    0.000083    0.000000
   -7    3    0    1    6    0.000566   -0.000000
   -7    3    0    2    6    0.000198   -0.000001
   -7    3    0    3    6    0.000162    0.000000
   -7    3    0    4    6   -0.000136    0.000000
   -7    3    0    5    6    0.000443    0.000000
   -7    3    0    6    6    0.005707    0.000001
   -7    3    0    7    6   -0.000044   -0.000000
   -7    3    0    8    6   -0.000144    0.000002
   -7    3    0    9    6   -0.000696   -0.000001
   -7    3    0   10    6    0.000303    0.000002
   -7    3    0   11    6   -0.000542    0.000002
   -7    3    0   12    6   -0.000319   -0.000005
   -7    3    0   13    6   -0.000004   -0.000000
   -7    3    0   14    6   -0.001539    0.000000
   -7    3    0   15    6    0.000300   -0.000004
   -7    3    0    1    7   -0.000479   -0.000000
   -7    3    0    2    7   -0.000088   -0.000000
   -7    3    0    3    7    0.000410   -0.000000
   -7    3    0    4    7    0.000424    0.000000
   -7    3    0    5    7   -0.000762   -0.000000
   -7    3    0    6    7   -0.000484   -0.000001
   -7    3    0    7    7    0.000252   -0.000000
   -7    3    0    8    7   -0.000053    0.000001
   -7    3    0    9    7    0.000729   -0.000000
   -7    3    0   10    7   -0.000279    0.000000
   -7    3    0   11    7    0.000947    0.000000
   -7    3    0   12    7   -0.000385   -0.000001
   -7    3    0   13    7    0.000518   -0.000000
   -7    3    0   14    7    0.000359    0.000000
   -7    3    0   15    7    0.000128   -0.000001
   -7    3    0    1    8    0.001313   -0.000000
   -7    3    0    2    8    0.000065    0.000000
   -7    3    0    3    8    0.001365    0.000001
   -7    3    0    4    8    0.000719   -0.000000
   -7    3    0    5    8   -0.000009    0.000000
   -7    3    0    6    8   -0.000477   -0.000003
   -7    3    0    7    8    0.000179   -0.000000
   -7    3    0    8    8   -0.001204   -0.000000
   -7    3    0    9    8   -0.001326    0.000000
   -7    3    0   10    8   -0.000231   -0.000000
   -7    3    0   11    8    0.000193   -0.000001
   -7    3    0   12    8    0.000510    0.000001
   -7    3    0   13    8   -0.000028    0.000000
   -7    3    0   14    8   -0.000817   -0.000000
   -7    3    0   15    8    0.000172    0.000001
   -7    3    0    1    9   -0.000055    0.000000
   -7    3    0    2    9    0.000035    0.000000
   -7    3    0    3    9    0.000756   -0.000000
   -7    3    0    4    9    0.000404   -0.000000
   -7    3    0    5    9    0.000230   -0.000000
   -7    3    0    6    9   -0.000806    0.000001
   -7    3    0    7    9    0.000052    0.000000
   -7    3    0    8    9    0.000401   -0.000000
   -7    3    0    9    9    0.000352    0.000000
   -7    3    0   10    9    0.000125   -0.000000
   -7    3    0   11    9   -0.000509   -0.000000
   -7    3    0   12    9   -0.000088    0.000000
   -7    3    0   13    9    0.000008   -0.000000
   -7    3    0   14    9   -0.000038   -0.000000
   -7    3    0   15    9   -0.000206    0.000000
   -7    3    0    1   10    0.000517   -0.000000
   -7    3    0    2   10    0.000360    0.000000
   -7    3    0    3   10   -0.000192   -0.000000
   -7    3    0    4   10   -0.000604   -0.000000
   -7    3    0    5   10    0.000140    0.000000
   -7    3    0    6   10    0.000723   -0.000003
   -7    3    0    7   10    0.000003   -0.000000
   -7    3    0    8   10   -0.000528   -0.000000
   -7    3    0    9   10   -0.000843    0.000000
   -7    3    0   10   10   -0.001863   -0.000000
   -7    3    0   11   10    0.000099   -0.000000
   -7    3    0   12   10   -0.000248    0.000001
   -7    3    0   13   10   -0.000633    0.000000
   -7    3    0   14   10   -0.000276   -0.000000
   -7    3    0   15   10    0.000969    0.000001
   -7    3    0    1   11   -0.000243   -0.000000
   -7    3    0    2   11    0.000555    0.000000
   -7    3    0    3   11   -0.000076   -0.000000
   -7    3    0    4   11    0.000087    0.000000
   -7    3    0    5   11    0.000024   -0.000000
   -7    3    0    6   11    0.000394   -0.000001
   -7    3    0    7   11    0.000295   -0.000000
   -7    3    0    8   11   -0.001435   -0.000000
   -7    3    0    9   11    0.000523    0.000000
   -7    3    0   10   11   -0.000773    0.000000
   -7    3    0   11   11    0.000144    0.000000
   -7    3    0   12   11    0.000623   -0.000000
   -7    3    0   13   11    0.000306    0.000000
   -7    3    0   14   11    0.000689   -0.000000
   -7    3    0   15   11    0.000418   -0.000000
   -7    3    0    1   12    0.000166    0.000001
   -7    3    0    2   12   -0.000450   -0.000000
   -7    3    0    3   12   -0.000036   -0.000001
   -7    3    0    4   12   -0.000441    0.000000
   -7    3    0    5   12    0.000522   -0.000000
   -7    3    0    6   12    0.000569    0.000003
   -7    3    0    7   12   -0.000114    0.000000
   -7    3    0    8   12    0.001168   -0.000000
   -7    3    0    9   12    0.000147   -0.000000
   -7    3    0   10   12    0.000223   -0.000000
   -7    3    0   11   12    0.000114   -0.000000
   -7    3    0   12   12   -0.000775   -0.000001
   -7    3    0   13   12   -0.000342   -0.000000
   -7    3    0   14   12   -0.000233   -0.000000
   -7    3    0   15   12    0.000169    0.000000
   -7    3    0    1   13   -0.000241    0.000000
   -7    3    0    2   13   -0.000071    0.000000
   -7    3    0    3   13    0.001420   -0.000000
   -7    3    0    4   13    0.000812   -0.000000
   -7    3    0    5   13   -0.000652   -0.000000
   -7    3    0    6   13    0.000194    0.000001
   -7    3    0    7   13    0.000494    0.000000
   -7    3    0    8   13   -0.000625   -0.000000
   -7    3    0    9   13    0.000639    0.000000
   -7    3    0   10   13    0.000396   -0.000000
   -7    3    0   11   13    0.000598   -0.000000
   -7    3    0   12   13    0.000499    0.000000
   -7    3    0   13   13    0.000498   -0.000000
   -7    3    0   14   13   -0.000481   -0.000000
   -7    3    0   15   13   -0.000441    0.000000
   -7    3    0    1   14   -0.000034    0.000000
   -7    3    0    2   14    0.000143    0.000000
   -7    3    0    3   14   -0.002312    0.000000
   -7    3    0    4   14    0.000079   -0.000000
   -7    3    0    5   14    0.001043    0.000000
   -7    3    0    6   14    0.000140   -0.000000
   -7    3    0    7   14    0.000540   -0.000000
   -7    3    0    8   14    0.000485    0.000000
   -7    3    0    9   14   -0.000703    0.000000
   -7    3    0   10   14   -0.000342   -0.000000
   -7    3    0   11   14   -0.000111    0.000000
   -7    3    0   12   14    0.000336    0.000000
   -7    3    0   13   14    0.000595    0.000000
   -7    3    0   14   14    0.000576    0.000000
   -7    3    0   15   14   -0.000245    0.000000
   -7    3    0    1   15   -0.000498    0.000001
   -7    3    0    2   15    0.000307   -0.000000
   -7    3    0    3   15   -0.000493   -0.000001
   -7    3    0    4   15    0.000086    0.000000
   -7    3    0    5   15    0.000136   -0.000000
   -7    3    0    6   15    0.001068    0.000006
   -7    3    0    7   15    0.000035    0.000000
   -7    3    0    8   15   -0.000250   -0.000001
   -7    3    0    9   15    0.000569   -0.000000
   -7    3    0   10   15    0.000960   -0.000001
   -7    3    0   11   15   -0.000398   -0.000000
   -7    3    0   12   15    0.001001    0.000000
   -7    3    0   13   15    0.000347   -0.000000
   -7    3    0   14   15    0.000265    0.000000
   -7    3    0   15   15   -0.001397    0.000001
   -7    4   -1    1    1    0.000377    0.000000
   -7    4   -1    2    1   -0.000415    0.000000
   -7    4   -1    3    1   -0.000623    0.000000
   -7    4   -1    4    1   -0.000100   -0.000000
   -7    4   -1    5    1    0.000048    0.000000
   -7    4   -1    6    1    0.000466    0.000001
   -7    4   -1    7    1    0.000067    0.000000
   -7    4   -1    8    1    0.000536   -0.000000
   -7    4   -1    9    1    0.000046    0.000000
   -7    4   -1   10    1   -0.000771   -0.000000
   -7    4   -1   11    1    0.000734   -0.000000
   -7    4   -1   12    1   -0.000744    0.000000
   -7    4   -1   13    1   -0.000051   -0.000000
   -7    4   -1   14    1    0.000002   -0.000000
   -7    4   -1   15    1    0.000403    0.000000
   -7    4   -1    1    2   -0.000422    0.000000
   -7    4   -1    2    2    0.000338   -0.000000
   -7    4   -1    3    2   -0.000434   -0.000000
   -7    4   -1    4    2   -0.000053    0.000000
   -7    4   -1    5    2   -0.000076   -0.000000
   -7    4   -1    6    2    0.000344    0.000001
   -7    4   -1    7    2   -0.000051   -0.000000
   -7    4   -1    8    2   -0.000371    0.000001
   -7    4   -1    9    2    0.000156   -0.000000
   -7    4   -1   10    2    0.000413    0.000001
   -7    4   -1   11    2   -0.000110    0.000000
   -7    4   -1   12    2   -0.000148   -0.000001
   -7    4   -1   13    2    0.000267   -0.000000
   -7    4   -1   14    2    0.000032    0.000000
   -7    4   -1   15    2   -0.000803   -0.000001
   -7    4   -1    1    3   -0.000015   -0.000000
   -7    4   -1    2    3    0.000658   -0.000000
   -7    4   -1    3    3   -0.003015    0.000000
   -7    4   -1    4    3   -0.000632   -0.000000
   -7    4   -1    5    3    0.000555    0.000000
   -7    4   -1    6    3   -0.000005   -0.000000
   -7    4   -1    7    3   -0.000095   -0.000000
   -7    4   -1    8    3    0.000378   -0.000001
   -7    4   -1    9    3    0.000201   -0.000000
   -7    4   -1   10    3    0.000752    0.000000
   -7    4   -1   11    3   -0.001630   -0.000000
   -7    4   -1   12    3   -0.000432    0.000000
   -7    4   -1   13    3   -0.000720    0.000000
   -7    4   -1   14    3   -0.000659   -0.000001
   -7    4   -1   15    3    0.000644    0.000000
   -7    4   -1    1    4    0.000022   -0.000000
   -7    4   -1    2    4    0.000039    0.000000
   -7    4   -1    3    4   -0.000527   -0.000000
   -7    4   -1    4    4    0.000241   -0.000000
   -7    4   -1    5    4   -0.000422    0.000000
   -7    4   -1    6    4    0.000753   -0.000000
   -7    4   -1    7    4   -0.000352   -0.000000
   -7    4   -1    8    4   -0.000702    0.000000
   -7    4   -1    9    4    0.000007    0.000000
   -7    4   -1   10    4    0.001292   -0.000000
   -7    4   -1   11    4    0.000450    0.000000
   -7    4   -1   12    4   -0.000000   -0.000000
   -7    4   -1   13    4   -0.000654    0.000000
   -7    4   -1   14    4   -0.000771    0.000000
   -7    4   -1   15    4    0.000147    0.000000
   -7    4   -1    1    5    0.000129   -0.000000
   -7    4   -1    2    5   -0.000110    0.000000
   -7    4   -1    3    5    0.000464    0.000000
   -7    4   -1    4    5   -0.000059    0.000000
   -7    4   -1    5    5    0.000331   -0.000000
   -7    4   -1    6    5    0.000372   -0.000000
   -7    4   -1    7    5    0.000563    0.000000
   -7    4   -1    8    5   -0.000157   -0.000000
   -7    4   -1    9    5   -0.000406    0.000000
   -7    4   -1   10    5   -0.000710   -0.000000
   -7    4   -1   11    5   -0.000007   -0.000000
   -7    4   -1   12    5    0.000222    0.000000
   -7    4   -1   13    5    0.000550   -0.000000
   -7    4   -1   14    5    0.000420   -0.000000
   -7    4   -1   15    5   -0.000033    0.000000
   -7    4   -1    1    6    0.001839   -0.000001
   -7    4   -1    2    6   -0.000778   -0.000001
   -7    4   -1    3    6   -0.000037    0.000000
   -7    4   -1    4    6    0.000107    0.000000
   -7    4   -1    5    6   -0.000501   -0.000000
   -7    4   -1    6    6   -0.004381    0.000001
   -7    4   -1    7    6    0.000433   -0.000000
   -7    4   -1    8    6   -0.000303    0.000004
   -7    4   -1    9    6    0.000364   -0.000001
   -7    4   -1   10    6   -0.001262    0.000003
   -7    4   -1   11    6    0.001389    0.000002
   -7    4   -1   12    6   -0.000474   -0.000007
   -7    4   -1   13    6    0.000609   -0.000000
   -7    4   -1   14    6    0.000328    0.000001
   -7    4   -1   15    6    0.001098   -0.000006
   -7    4   -1    1    7   -0.000391    0.000000
   -7    4   -1    2    7    0.000443   -0.000000
   -7    4   -1    3    7    0.000697    0.000000
   -7    4   -1    4    7    0.000286    0.000000
   -7    4   -1    5    7   -0.000043    0.000000
   -7    4   -1    6    7    0.001279   -0.000000
   -7    4   -1    7    7   -0.000214    0.000000
   -7    4   -1    8    7   -0.000568    0.000000
   -7    4   -1    9    7   -0.000077   -0.000000
   -7    4   -1   10    7    0.000222    0.000000
   -7    4   -1   11    7    0.000723    0.000000
   -7    4   -1   12    7   -0.000078   -0.000001
   -7    4   -1   13    7   -0.000168    0.000000
   -7    4   -1   14    7   -0.000481   -0.000000
   -7    4   -1   15    7   -0.000654   -0.000001
   -7    4   -1    1    8    0.001008   -0.000000
   -7    4   -1    2    8   -0.000615    0.000000
   -7    4   -1    3    8   -0.001444    0.000000
   -7    4   -1    4    8   -0.000371   -0.000000
   -7    4   -1    5    8    0.000927    0.000000
   -7    4   -1    6    8   -0.001407   -0.000004
   -7    4   -1    7    8    0.000592   -0.000000
   -7    4   -1    8    8    0.001452   -0.000001
   -7    4   -1    9    8   -0.000384    0.000001
   -7    4   -1   10    8   -0.000851   -0.000000
   -7    4   -1   11    8   -0.000731   -0.000000
   -7    4   -1   12    8   -0.000266    0.000002
   -7    4   -1   13    8   -0.000087    0.000000
   -7    4   -1   14    8    0.000622   -0.000000
   -7    4   -1   15    8    0.000661    0.000001
   -7    4   -1    1    9    0.000340    0.000000
   -7    4   -1    2    9    0.000069    0.000000
   -7    4   -1    3    9   -0.000883   -0.000000
   -7    4   -1    4    9   -0.000620   -0.000000
   -7    4   -1    5    9    0.000740   -0.000000
   -7    4   -1    6    9   -0.000699    0.000002
   -7    4   -1    7    9   -0.000536    0.000000
   -7    4   -1    8    9    0.000602   -0.000000
   -7    4   -1    9    9   -0.000034    0.000000
   -7    4   -1   10    9   -0.000211   -0.000000
   -7    4   -1   11    9   -0.000903   -0.000000
   -7    4   -1   12    9   -0.000421    0.000001
   -7    4   -1   13    9   -0.000307   -0.000000
   -7    4   -1   14    9    0.000936   -0.000000
   -7    4   -1   15    9    0.000153    0.000001
   -7    4   -1    1   10    0.000615   -0.000000
   -7    4   -1    2   10   -0.000193    0.000000
   -7    4   -1    3   10   -0.001080    0.000000
   -7    4   -1    4   10   -0.000280   -0.000000
   -7    4   -1    5   10   -0.000145    0.000000
   -7    4   -1    6   10   -0.000503   -0.000004
   -7    4   -1    7   10   -0.000398   -0.000000
   -7    4   -1    8   10    0.000303   -0.000000
   -7    4   -1    9   10   -0.000492    0.000001
   -7    4   -1   10   10    0.000066   -0.000000
   -7    4   -1   11   10   -0.000137   -0.000000
   -7    4   -1   12   10    0.000558    0.000001
   -7    4   -1   13   10   -0.000202    0.000000
   -7    4   -1   14   10   -0.000342   -0.000000
   -7    4   -1   15   10   -0.000104    0.000001
   -7    4   -1    1   11    0.000338   -0.000000
   -7    4   -1    2   11   -0.000116    0.000000
   -7    4   -1    3   11    0.001311   -0.000000
   -7    4   -1    4   11    0.000301   -0.000000
   -7    4   -1    5   11   -0.000825    0.000000
   -7    4   -1    6   11   -0.000301   -0.000002
   -7    4   -1    7   11   -0.000477   -0.000000
   -7    4   -1    8   11   -0.000538    0.000000
   -7    4   -1    9   11   -0.000034    0.000000
   -7    4   -1   10   11    0.000245    0.000000
   -7    4   -1   11   11    0.000994   -0.000000
   -7    4   -1   12   11   -0.000115    0.000000
   -7    4   -1   13   11   -0.000605    0.000000
   -7    4   -1   14   11   -0.000979   -0.000000
   -7    4   -1   15   11    0.000576   -0.000000
   -7    4   -1    1   12   -0.000454    0.000001
   -7    4   -1    2   12    0.000272   -0.000000
   -7    4   -1    3   12    0.001242   -0.000001
   -7    4   -1    4   12    0.000265    0.000000
   -7    4   -1    5   12   -0.000922   -0.000000
   -7    4   -1    6   12    0.001553    0.000006
   -7    4   -1    7   12   -0.000009    0.000000
   -7    4   -1    8   12   -0.001576   -0.000000
   -7    4   -1    9   12    0.000378   -0.000000
   -7    4   -1   10   12    0.001318   -0.000001
   -7    4   -1   11   12    0.000016   -0.000000
   -7    4   -1   12   12    0.001410   -0.000000
   -7    4   -1   13   12   -0.000061   -0.000000
   -7    4   -1   14   12   -0.000761    0.000000
   -7    4   -1   15   12   -0.001156   -0.000000
   -7    4   -1    1   13    0.000266    0.000000
   -7    4   -1    2   13   -0.000067    0.000000
   -7    4   -1    3   13    0.000446    0.000000
   -7    4   -1    4   13    0.000597   -0.000000
   -7    4   -1    5   13   -0.000070   -0.000000
   -7    4   -1    6   13   -0.000117    0.000000
   -7    4   -1    7   13   -0.000251    0.000000
   -7    4   -1    8   13   -0.000104   -0.000000
   -7    4   -1    9   13   -0.000058    0.000000
   -7    4   -1   10   13    0.000283   -0.000000
   -7    4   -1   11   13    0.000388   -0.000000
   -7    4   -1   12   13   -0.000257    0.000000
   -7    4   -1   13   13   -0.000265    0.000000
   -7    4   -1   14   13   -0.000449   -0.000000
   -7    4   -1   15   13    0.000228    0.000000
   -7    4   -1    1   14    0.000277    0.000000
   -7    4   -1    2   14   -0.000322   -0.000000
   -7    4   -1    3   14    0.000953    0.000001
   -7    4   -1    4   14    0.000206    0.000000
   -7    4   -1    5   14    0.000518   -0.000000
   -7    4   -1    6   14   -0.000629   -0.000000
   -7    4   -1    7   14    0.000185    0.000000
   -7    4   -1    8   14    0.000947    0.000000
   -7    4   -1    9   14    0.000031   -0.000000
   -7    4   -1   10   14   -0.000608   -0.000000
   -7    4   -1   11   14   -0.000669    0.000000
   -7    4   -1   12   14   -0.000305   -0.000000
   -7    4   -1   13   14    0.000663    0.000000
   -7    4   -1   14   14    0.001328    0.000000
   -7    4   -1   15   14    0.000127   -0.000000
   -7    4   -1    1   15   -0.000320    0.000001
   -7    4   -1    2   15   -0.000792    0.000000
   -7    4   -1    3   15   -0.001242   -0.000001
   -7    4   -1    4   15   -0.000417    0.000000
   -7    4   -1    5   15    0.000751   -0.000000
   -7    4   -1    6   15   -0.000826    0.000008
   -7    4   -1    7   15   -0.000599    0.000000
   -7    4   -1    8   15    0.001484   -0.000001
   -7    4   -1    9   15   -0.000019   -0.000000
   -7    4   -1   10   15   -0.000776   -0.000001
   -7    4   -1   11   15   -0.000785   -0.000001
   -7    4   -1   12   15   -0.000357   -0.000000
   -7    4   -1   13   15    0.000145   -0.000000
   -7    4   -1   14   15   -0.000148    0.000000
   -7    4   -1   15   15    0.001682    0.000001
   -7    4    0    1    1    0.000318   -0.000000
   -7    4    0    2    1   -0.000189    0.000000
   -7    4    0    3    1   -0.000745   -0.000000
   -7    4    0    4    1   -0.000258    0.000000
   -7    4    0    5    1    0.000071   -0.000000
   -7    4    0    6    1   -0.000345   -0.000001
   -7    4    0    7    1   -0.000249   -0.000000
   -7    4    0    8    1    0.000552    0.000000
   -7    4    0    9    1   -0.000333   -0.000000
   -7    4    0   10    1   -0.001354    0.000000
   -7    4    0   11    1    0.000318    0.000000
   -7    4    0   12    1   -0.000601   -0.000000
   -7    4    0   13    1   -0.000111   -0.000000
   -7    4    0   14    1    0.000419    0.000000
   -7    4    0   15    1    0.001434   -0.000000
   -7    4    0    1    2    0.000570   -0.000000
   -7    4    0    2    2    0.000195    0.000000
   -7    4    0    3    2    0.000184    0.000000
   -7    4    0    4    2    0.000180   -0.000000
   -7    4    0    5    2    0.000002    0.000000
   -7    4    0    6    2   -0.001367   -0.000001
   -7    4    0    7    2    0.000284    0.000000
   -7    4    0    8    2   -0.000646   -0.000001
   -7    4    0    9    2   -0.000123    0.000000
   -7    4    0   10    2    0.000338   -0.000001
   -7    4    0   11    2   -0.000135   -0.000000
   -7    4    0   12    2    0.000496    0.000001
   -7    4    0   13    2   -0.000067    0.000000
   -7    4    0   14    2    0.000011   -0.000000
   -7    4    0   15    2   -0.000319    0.000001
   -7    4    0    1    3   -0.000370    0.000000
   -7    4    0    2    3   -0.000219   -0.000000
   -7    4    0    3    3    0.002872    0.000000
   -7    4    0    4    3    0.000188    0.000000
   -7    4    0    5    3   -0.000049    0.000000
   -7    4    0    6    3    0.000223    0.000001
   -7    4    0    7    3    0.000225   -0.000000
   -7    4    0    8    3    0.000736    0.000001
   -7    4    0    9    3   -0.000233   -0.000000
   -7    4    0   10    3    0.001587   -0.000000
   -7    4    0   11    3   -0.000427   -0.000000
   -7    4    0   12    3   -0.000727   -0.000001
   -7    4    0   13    3    0.000475    0.000000
   -7    4    0   14    3   -0.001304    0.000000
   -7    4    0   15    3   -0.001518   -0.000001
   -7    4    0    1    4   -0.000058    0.000000
   -7    4    0    2    4   -0.000115   -0.000000
   -7    4    0    3    4   -0.000508   -0.000000
   -7    4    0    4    4    0.000023    0.000000
   -7    4    0    5    4    0.000223   -0.000000
   -7    4    0    6    4   -0.000537    0.000000
   -7    4    0    7    4    0.000115   -0.000000
   -7    4    0    8    4    0.000222   -0.000000
   -7    4    0    9    4    0.000131   -0.000000
   -7    4    0   10    4   -0.000737    0.000000
   -7    4    0   11    4   -0.000022   -0.000000
   -7    4    0   12    4    0.000240   -0.000000
   -7    4    0   13    4    0.000375   -0.000000
   -7    4    0   14    4    0.000698   -0.000000
   -7    4    0   15    4    0.000179    0.000000
   -7    4    0    1    5   -0.000178   -0.000000
   -7    4    0    2    5    0.000170   -0.000000
   -7    4    0    3    5   -0.000673    0.000000
   -7    4    0    4    5   -0.000313   -0.000000
   -7    4    0    5    5    0.000138    0.000000
   -7    4    0    6    5    0.000454    0.000000
   -7    4    0    7    5    0.000135   -0.000000
   -7    4    0    8    5   -0.000186    0.000000
   -7    4    0    9    5   -0.000049   -0.000000
   -7    4    0   10    5    0.000712   -0.000000
   -7    4    0   11    5    0.000034    0.000000
   -7    4    0   12    5   -0.000170   -0.000000
   -7    4    0   13    5   -0.000304    0.000000
   -7    4    0   14    5   -0.000482    0.000000
   -7    4    0   15    5   -0.000036   -0.000000
   -7    4    0    1    6   -0.000859    0.000001
   -7    4    0    2    6   -0.000062    0.000001
   -7    4    0    3    6    0.000027   -0.000000
   -7    4    0    4    6   -0.000194   -0.000000
   -7    4    0    5    6   -0.000071   -0.000000
   -7    4    0    6    6   -0.004266   -0.000001
   -7    4    0    7    6   -0.000579    0.000000
   -7    4    0    8    6    0.001314   -0.000004
   -7    4    0    9    6   -0.000023    0.000001
   -7    4    0   10    6   -0.000942   -0.000003
   -7    4    0   11    6    0.000723   -0.000003
   -7    4    0   12    6    0.000214    0.000007
   -7    4    0   13    6   -0.000329    0.000000
   -7    4    0   14    6    0.001377   -0.000001
   -7    4    0   15    6    0.000206    0.000007
   -7    4    0    1    7    0.000019   -0.000000
   -7    4    0    2    7   -0.000154    0.000000
   -7    4    0    3    7    0.000493    0.000000
   -7    4    0    4    7    0.000681   -0.000000
   -7    4    0    5    7   -0.000375    0.000000
   -7    4    0    6    7   -0.000658    0.000000
   -7    4    0    7    7    0.000212    0.000000
   -7    4    0    8    7   -0.000146   -0.000000
   -7    4    0    9    7    0.000176    0.000000
   -7    4    0   10    7   -0.000225   -0.000000
   -7    4    0   11    7    0.000407   -0.000000
   -7    4    0   12    7    0.000787    0.000001
   -7    4    0   13    7    0.000707   -0.000000
   -7    4    0   14    7   -0.000273   -0.000000
   -7    4    0   15    7   -0.000035    0.000001
   -7    4    0    1    8   -0.000633    0.000000
   -7    4    0    2    8    0.000198   -0.000000
   -7    4    0    3    8   -0.001409   -0.000001
   -7    4    0    4    8   -0.000919    0.000000
   -7    4    0    5    8    0.000889   -0.000000
   -7    4    0    6    8    0.001101    0.000005
   -7    4    0    7    8   -0.000335   -0.000000
   -7    4    0    8    8   -0.000241    0.000000
   -7    4    0    9    8    0.000165   -0.000000
   -7    4    0   10    8   -0.000644    0.000000
   -7    4    0   11    8   -0.000892    0.000000
   -7    4    0   12    8   -0.000691   -0.000002
   -7    4    0   13    8   -0.000495   -0.000000
   -7    4    0   14    8    0.000157    0.000000
   -7    4    0   15    8    0.000843   -0.000001
   -7    4    0    1    9   -0.000154   -0.000000
   -7    4    0    2    9   -0.000193   -0.000000
   -7    4    0    3    9    0.000382    0.000000
   -7    4    0    4    9    0.000395    0.000000
   -7    4    0    5    9   -0.000432    0.000000
   -7    4    0    6    9    0.000206   -0.000002
   -7    4    0    7    9    0.000124   -0.000000
   -7    4    0    8    9   -0.000142    0.000000
   -7    4    0    9    9    0.000594   -0.000000
   -7    4    0   10    9    0.000192    0.000000
   -7    4    0   11    9    0.000061    0.000000
   -7    4    0   12    9   -0.000213   -0.000000
   -7    4    0   13    9    0.000272    0.000000
   -7    4    0   14    9   -0.000507    0.000000
   -7    4    0   15    9   -0.000153   -0.000001
   -7    4    0    1   10   -0.000370    0.000000
   -7    4    0    2   10    0.000373   -0.000000
   -7    4    0    3   10   -0.000154   -0.000000
   -7    4    0    4   10    0.000192    0.000000
   -7    4    0    5   10   -0.000065    0.000000
   -7    4    0    6   10    0.000381    0.000004
   -7    4    0    7   10    0.000069    0.000000
   -7    4    0    8   10   -0.000370    0.000000
   -7    4    0    9   10   -0.000619   -0.000000
   -7    4    0   10   10   -0.000993    0.000000
   -7    4    0   11   10    0.000565    0.000000
   -7    4    0   12   10    0.000300   -0.000001
   -7    4    0   13   10    0.000256   -0.000000
   -7    4    0   14   10    0.000111    0.000000
   -7    4    0   15   10   -0.001195   -0.000001
   -7    4    0    1   11    0.000058    0.000000
   -7    4    0    2   11   -0.000595   -0.000000
   -7    4    0    3   11   -0.000068    0.000000
   -7    4    0    4   11    0.000015    0.000000
   -7    4    0    5   11    0.000202   -0.000000
   -7    4    0    6   11   -0.000950    0.000002
   -7    4    0    7   11   -0.000244    0.000000
   -7    4    0    8   11    0.001102    0.000000
   -7    4    0    9   11    0.000521   -0.000000
   -7    4    0   10   11   -0.001221   -0.000000
   -7    4    0   11   11   -0.000248   -0.000000
   -7    4    0   12   11   -0.000536   -0.000000
   -7    4    0   13   11    0.000537    0.000000
   -7    4    0   14   11    0.000754    0.000000
   -7    4    0   15   11    0.000074    0.000000
   -7    4    0    1   12   -0.000070   -0.000001
   -7    4    0    2   12    0.000833    0.000000
   -7    4    0    3   12    0.000220    0.000001
   -7    4    0    4   12   -0.000157   -0.000000
   -7    4    0    5   12   -0.000075    0.000000
   -7    4    0    6   12    0.000392   -0.000005
   -7    4    0    7   12    0.000302   -0.000000
   -7    4    0    8   12   -0.000771    0.000000
   -7    4    0    9   12   -0.000127    0.000000
   -7    4    0   10   12    0.000143    0.000000
   -7    4    0   11   12    0.000002    0.000000
   -7    4    0   12   12    0.000299    0.000001
   -7    4    0   13   12   -0.000095    0.000000
   -7    4    0   14   12    0.001209   -0.000000
   -7    4    0   15   12   -0.001242   -0.000000
   -7    4    0    1   13    0.000077   -0.000000
   -7    4    0    2   13   -0.000422   -0.000000
   -7    4    0    3   13   -0.000236   -0.000000
   -7    4    0    4   13    0.000236    0.000000
   -7    4    0    5   13    0.000026   -0.000000
   -7    4    0    6   13   -0.000997   -0.000000
   -7    4    0    7   13   -0.000033   -0.000000
   -7    4    0    8   13    0.000550    0.000000
   -7    4    0    9   13    0.000188   -0.000000
   -7    4    0   10   13   -0.000502    0.000000
   -7    4    0   11   13    0.000156    0.000000
   -7    4    0   12   13   -0.000101   -0.000000
   -7    4    0   13   13    0.000428   -0.000000
   -7    4    0   14   13   -0.000083    0.000000
   -7    4    0   15   13    0.000148   -0.000000
   -7    4    0    1   14    0.000067    0.000000
   -7    4    0    2   14    0.000039    0.000000
   -7    4    0    3   14    0.001652    0.000000
   -7    4    0    4   14   -0.000607   -0.000000
   -7    4    0    5   14    0.000023   -0.000000
   -7    4    0    6   14    0.000666    0.000000
   -7    4    0    7   14    0.000099    0.000000
   -7    4    0    8   14   -0.000128   -0.000000
   -7    4    0    9   14    0.000303    0.000000
   -7    4    0   10   14    0.000307   -0.000000
   -7    4    0   11   14   -0.000541   -0.000000
   -7    4    0   12   14   -0.001001    0.000000
   -7    4    0   13   14    0.000042   -0.000000
   -7    4    0   14   14   -0.000631   -0.000000
   -7    4    0   15   14    0.000107    0.000000
   -7    4    0    1   15    0.000670   -0.000001
   -7    4    0    2   15   -0.000825    0.000000
   -7    4    0    3   15    0.001025    0.000001
   -7    4    0    4   15    0.000400   -0.000000
   -7    4    0    5   15   -0.000268    0.000000
   -7    4    0    6   15   -0.001865   -0.000008
   -7    4    0    7   15    0.000422   -0.000000
   -7    4    0    8   15    0.000674    0.000001
   -7    4    0    9   15   -0.000183    0.000000
   -7    4    0   10   15   -0.000575    0.000001
   -7    4    0   11   15    0.000852    0.000001
   -7    4    0   12   15   -0.001180   -0.000000
   -7    4    0   13   15   -0.000077    0.000000
   -7    4    0   14   15   -0.000534   -0.000000
   -7    4    0   15   15    0.000861   -0.000001
   -7    5   -1    1    1   -0.000157   -0.000000
   -7    5   -1    2    1    0.000626   -0.000000
   -7    5   -1    3    1    0.000403   -0.000000
   -7    5   -1    4    1    0.000106    0.000000
   -7    5   -1    5    1   -0.000017   -0.000000
   -7    5   -1    6    1   -0.000537   -0.000001
   -7    5   -1    7    1    0.000460   -0.000000
   -7    5   -1    8    1   -0.000880    0.000000
   -7    5   -1    9    1    0.000077    0.000000
   -7    5   -1   10    1   -0.000045    0.000000
   -7    5   -1   11    1   -0.000379   -0.000000
   -7    5   -1   12    1    0.000351    0.000000
   -7    5   -1   13    1    0.000181    0.000000
   -7    5   -1   14    1    0.000132   -0.000000
   -7    5   -1   15    1   -0.001009   -0.000000
   -7    5   -1    1    2    0.000276   -0.000000
   -7    5   -1    2    2   -0.000179    0.000000
   -7    5   -1    3    2    0.000138    0.000000
   -7    5   -1    4    2   -0.000055   -0.000000
   -7    5   -1    5    2    0.000004    0.000000
   -7    5   -1    6    2   -0.000241   -0.000001
   -7    5   -1    7    2   -0.000209    0.000000
   -7    5   -1    8    2    0.000032   -0.000001
   -7    5   -1    9    2   -0.000181    0.000000
   -7    5   -1   10    2   -0.000360   -0.000000
   -7    5   -1   11    2   -0.000253   -0.000000
   -7    5   -1   12    2    0.000567    0.000001
   -7    5   -1   13    2   -0.000101    0.000000
   -7    5   -1   14    2   -0.000090   -0.000000
   -7    5   -1   15    2    0.001008    0.000001
   -7    5   -1    1    3   -0.000143   -0.000000
   -7    5   -1    2    3   -0.000180    0.000000
   -7    5   -1    3    3   -0.000093   -0.000000
   -7    5   -1    4    3    0.000736   -0.000000
   -7    5   -1    5    3   -0.000870    0.000000
   -7    5   -1    6    3    0.000320   -0.000000
   -7    5   -1    7    3    0.000424    0.000000
   -7    5   -1    8    3   -0.000962    0.000001
   -7    5   -1    9    3   -0.000038   -0.000000
   -7    5   -1   10    3   -0.000485   -0.000000
   -7    5   -1   11    3    0.001248    0.000000
   -7    5   -1   12    3    0.000214   -0.000000
   -7    5   -1   13    3    0.000416   -0.000000
   -7    5   -1   14    3    0.000791    0.000001
   -7    5   -1   15    3   -0.000379   -0.000001
   -7    5   -1    1    4    0.000067    0.000000
   -7    5   -1    2    4    0.000011    0.000000
   -7    5   -1    3    4    0.000397   -0.000000
   -7    5   -1    4    4    0.000078    0.000000
   -7    5   -1    5    4    0.000325   -0.000000
   -7    5   -1    6    4   -0.000454    0.000001
   -7    5   -1    7    4    0.000131    0.000000
   -7    5   -1    8    4    0.000435   -0.000000
   -7    5   -1    9    4   -0.000022    0.000000
   -7    5   -1   10    4    0.000159    0.000000
   -7    5   -1   11    4   -0.000240   -0.000000
   -7    5   -1   12    4   -0.000066    0.000000
   -7    5   -1   13    4    0.000032    0.000000
   -7    5   -1   14    4    0.000244   -0.000000
   -7    5   -1   15    4   -0.000068    0.000000
   -7    5   -1    1    5   -0.000150   -0.000000
   -7    5   -1    2    5    0.000111   -0.000000
   -7    5   -1    3    5   -0.001042    0.000000
   -7    5   -1    4    5   -0.000536    0.000000
   -7    5   -1    5    5    0.000184   -0.000000
   -7    5   -1    6    5   -0.000099   -0.000000
   -7    5   -1    7    5   -0.000149    0.000000
   -7    5   -1    8    5    0.000081    0.000000
   -7    5   -1    9    5    0.000448   -0.000000
   -7    5   -1   10    5   -0.000222    0.000000
   -7    5   -1   11    5   -0.001091    0.000000
   -7    5   -1   12    5   -0.000690   -0.000000
   -7    5   -1   13    5    0.000154    0.000000
   -7    5   -1   14    5    0.000048    0.000000
   -7    5   -1   15    5   -0.000108   -0.000000
   -7    5   -1    1    6   -0.001908    0.000001
   -7    5   -1    2    6    0.000143    0.000001
   -7    5   -1    3    6    0.000786   -0.000001
   -7    5   -1    4    6    0.000024   -0.000000
   -7    5   -1    5    6   -0.000047    0.000000
   -7    5   -1    6    6    0.003570   -0.000001
   -7    5   -1    7    6    0.000128   -0.000000
   -7    5   -1    8    6   -0.000275   -0.000005
   -7    5   -1    9    6   -0.000054    0.000002
   -7    5   -1   10    6    0.001059   -0.000005
   -7    5   -1   11    6   -0.000452   -0.000003
   -7    5   -1   12    6    0.000824    0.000007
   -7    5   -1   13    6    0.000258    0.000000
   -7    5   -1   14    6   -0.000293   -0.000001
   -7    5   -1   15    6   -0.001638    0.000009
   -7    5   -1    1    7   -0.000149    0.000000
   -7    5   -1    2    7    0.000070    0.000000
   -7    5   -1    3    7    0.000073   -0.000000
   -7    5   -1    4    7    0.000701   -0.000000
   -7    5   -1    5    7    0.000208    0.000000
   -7    5   -1    6    7   -0.000939    0.000000
   -7    5   -1    7    7    0.000439    0.000000
   -7    5   -1    8    7   -0.000477   -0.000000
   -7    5   -1    9    7    0.000583    0.000000
   -7    5   -1   10    7   -0.001656   -0.000001
   -7    5   -1   11    7    0.000207   -0.000000
   -7    5   -1   12    7   -0.000255    0.000000
   -7    5   -1   13    7    0.000318    0.000000
   -7    5   -1   14    7    0.000392    0.000000
   -7    5   -1   15    7    0.000197    0.000000
   -7    5   -1    1    8   -0.000565    0.000000
   -7    5   -1    2    8    0.000540   -0.000000
   -7    5   -1    3    8    0.000826   -0.000000
   -7    5   -1    4    8   -0.001077    0.000000
   -7    5   -1    5    8   -0.000186   -0.000000
   -7    5   -1    6    8    0.000962    0.000004
   -7    5   -1    7    8   -0.000667    0.000000
   -7    5   -1    8    8    0.000689    0.000000
   -7    5   -1    9    8    0.000359   -0.000001
   -7    5   -1   10    8    0.002055    0.000000
   -7    5   -1   11    8   -0.000571    0.000000
   -7    5   -1   12    8   -0.000379   -0.000001
   -7    5   -1   13    8   -0.000340   -0.000000
   -7    5   -1   14    8    0.000118    0.000000
   -7    5   -1   15    8   -0.000689   -0.000001
   -7    5   -1    1    9   -0.000476   -0.000000
   -7    5   -1    2    9    0.000225   -0.000000
   -7    5   -1    3    9   -0.000298    0.000000
   -7    5   -1    4    9   -0.000066    0.000000
   -7    5   -1    5    9   -0.000144    0.000000
   -7    5   -1    6    9    0.001457   -0.000002
   -7    5   -1    7    9   -0.000658   -0.000000
   -7    5   -1    8    9    0.000647    0.000001
   -7    5   -1    9    9    0.000475   -0.000000
   -7    5   -1   10    9    0.001316    0.000001
   -7    5   -1   11    9    0.000164    0.000000
   -7    5   -1   12    9   -0.000315   -0.000001
   -7    5   -1   13    9   -0.000573    0.000000
   -7    5   -1   14    9   -0.000385    0.000000
   -7    5   -1   15    9   -0.000537   -0.000001
   -7    5   -1    1   10   -0.000341    0.000000
   -7    5   -1    2   10   -0.000335   -0.000000
   -7    5   -1    3   10    0.000972   -0.000000
   -7    5   -1    4   10   -0.000317    0.000000
   -7    5   -1    5   10    0.000168   -0.000000
   -7    5   -1    6   10    0.000859    0.000005
   -7    5   -1    7   10   -0.000572    0.000000
   -7    5   -1    8   10    0.000706    0.000000
   -7    5   -1    9   10   -0.000886   -0.000001
   -7    5   -1   10   10    0.000289   -0.000000
   -7    5   -1   11   10    0.000185    0.000000
   -7    5   -1   12   10    0.000874   -0.000001
   -7    5   -1   13   10   -0.000241   -0.000000
   -7    5   -1   14   10   -0.000617    0.000000
   -7    5   -1   15   10    0.000073   -0.000001
   -7    5   -1    1   11   -0.000387    0.000000
   -7    5   -1    2   11    0.000343   -0.000000
   -7    5   -1    3   11   -0.001307   -0.000000
   -7    5   -1    4   11    0.000165   -0.000000
   -7    5   -1    5   11    0.000569   -0.000000
   -7    5   -1    6   11    0.000223    0.000002
   -7    5   -1    7   11   -0.000072    0.000000
   -7    5   -1    8   11    0.000202    0.000000
   -7    5   -1    9   11    0.000125   -0.000000
   -7    5   -1   10   11    0.000029   -0.000000
   -7    5   -1   11   11    0.000174    0.000000
   -7    5   -1   12   11    0.000648   -0.000000
   -7    5   -1   13   11    0.000091   -0.000000
   -7    5   -1   14   11    0.000709    0.000000
   -7    5   -1   15   11   -0.000383   -0.000000
   -7    5   -1    1   12    0.000891   -0.000001
   -7    5   -1    2   12   -0.000770    0.000000
   -7    5   -1    3   12   -0.000804    0.000001
   -7    5   -1    4   12    0.000209   -0.000000
   -7    5   -1    5   12    0.000167    0.000000
   -7    5   -1    6   12   -0.001478   -0.000007
   -7    5   -1    7   12    0.000332   -0.000000
   -7    5   -1    8   12    0.000374    0.000001
   -7    5   -1    9   12   -0.000449    0.000000
   -7    5   -1   10   12   -0.001119    0.000001
   -7    5   -1   11   12    0.000208    0.000000
   -7    5   -1   12   12   -0.000495    0.000000
   -7    5   -1   13   12    0.000121    0.000000
   -7    5   -1   14   12    0.000243   -0.000000
   -7    5   -1   15   12    0.000883    0.000000
   -7    5   -1    1   13   -0.000288   -0.000000
   -7    5   -1    2   13    0.000161   -0.000000
   -7    5   -1    3   13    0.000475   -0.000000
   -7    5   -1    4   13    0.000163    0.000000
   -7    5   -1    5   13    0.000142    0.000000
   -7    5   -1    6   13   -0.000583   -0.000000
   -7    5   -1    7   13    0.000301    0.000000
   -7    5   -1    8   13   -0.000227    0.000000
   -7    5   -1    9   13    0.001021   -0.000000
   -7    5   -1   10   13   -0.000035    0.000000
   -7    5   -1   11   13    0.000330    0.000000
   -7    5   -1   12   13   -0.000273   -0.000000
   -7    5   -1   13   13    0.000263    0.000000
   -7    5   -1   14   13    0.000166   -0.000000
   -7    5   -1   15   13   -0.000381   -0.000000
   -7    5   -1    1   14   -0.000087    0.000000
   -7    5   -1    2   14    0.000041    0.000000
   -7    5   -1    3   14   -0.001286    0.000000
   -7    5   -1    4   14   -0.001159   -0.000000
   -7    5   -1    5   14   -0.000179    0.000000
   -7    5   -1    6   14   -0.000367    0.000001
   -7    5   -1    7   14   -0.000029    0.000000
   -7    5   -1    8   14   -0.000170   -0.000001
   -7    5   -1    9   14    0.000277    0.000000
   -7    5   -1   10   14   -0.000066   -0.000000
   -7    5   -1   11   14    0.000624   -0.000000
   -7    5   -1   12   14   -0.000350    0.000000
   -7    5   -1   13   14   -0.000035   -0.000000
   -7    5   -1   14   14    0.000229    0.000000
   -7    5   -1   15   14    0.000131    0.000001
   -7    5   -1    1   15    0.001008   -0.000001
   -7    5   -1    2   15    0.000213   -0.000000
   -7    5   -1    3   15    0.000517    0.000001
   -7    5   -1    4   15   -0.000088   -0.000000
   -7    5   -1    5   15   -0.000226    0.000000
   -7    5   -1    6   15    0.000154   -0.000010
   -7    5   -1    7   15    0.000070   -0.000001
[...]
    7   -2    0    7    4    0.000457    0.000000
    7   -2    0    8    4   -0.002041   -0.000000
    7   -2    0    9    4    0.000137   -0.000000
    7   -2    0   10    4   -0.000481    0.000000
    7   -2    0   11    4    0.001140    0.000000
    7   -2    0   12    4    0.000394    0.000000
    7   -2    0   13    4    0.000040   -0.000000
    7   -2    0   14    4    0.000473   -0.000000
    7   -2    0   15    4   -0.000178    0.000000
    7   -2    0    1    5   -0.000157   -0.000000
    7   -2    0    2    5   -0.000003   -0.000000
    7   -2    0    3    5   -0.000775    0.000000
    7   -2    0    4    5    0.000340    0.000000
    7   -2    0    5    5    0.000121    0.000000
    7   -2    0    6    5   -0.000416    0.000000
    7   -2    0    7    5   -0.000007   -0.000000
    7   -2    0    8    5    0.000509    0.000000
    7   -2    0    9    5   -0.000558   -0.000000
    7   -2    0   10    5    0.000536   -0.000000
    7   -2    0   11    5   -0.000093   -0.000000
    7   -2    0   12    5   -0.000381   -0.000000
    7   -2    0   13    5   -0.000005    0.000000
    7   -2    0   14    5   -0.001444    0.000000
    7   -2    0   15    5    0.000213   -0.000000
    7   -2    0    1    6    0.000674    0.000000
    7   -2    0    2    6   -0.000808    0.000000
    7   -2    0    3    6   -0.000564   -0.000001
    7   -2    0    4    6   -0.000270    0.000000
    7   -2    0    5    6    0.000325   -0.000000
    7   -2    0    6    6   -0.005360    0.000000
    7   -2    0    7    6   -0.000044   -0.000000
    7   -2    0    8    6    0.000393   -0.000002
    7   -2    0    9    6    0.000700    0.000001
    7   -2    0   10    6   -0.001197   -0.000001
    7   -2    0   11    6   -0.000088   -0.000001
    7   -2    0   12    6   -0.000448    0.000002
    7   -2    0   13    6   -0.000734    0.000001
    7   -2    0   14    6   -0.000665    0.000000
    7   -2    0   15    6   -0.000142    0.000003
    7   -2    0    1    7    0.000153    0.000000
    7   -2    0    2    7    0.000165   -0.000000
    7   -2    0    3    7    0.000063   -0.000000
    7   -2    0    4    7   -0.000201    0.000000
    7   -2    0    5    7    0.000175   -0.000000
    7   -2    0    6    7   -0.000008   -0.000000
    7   -2    0    7    7   -0.000114   -0.000000
    7   -2    0    8    7    0.000096   -0.000000
    7   -2    0    9    7   -0.000365    0.000000
    7   -2    0   10    7    0.000342   -0.000000
    7   -2    0   11    7   -0.000178   -0.000000
    7   -2    0   12    7   -0.000265    0.000000
    7   -2    0   13    7    0.000214   -0.000000
    7   -2    0   14    7    0.000085   -0.000000
    7   -2    0   15    7    0.000151    0.000001
    7   -2    0    1    8   -0.000277   -0.000000
    7   -2    0    2    8   -0.000122    0.000000
    7   -2    0    3    8   -0.000979   -0.000001
    7   -2    0    4    8    0.000314    0.000000
    7   -2    0    5    8   -0.000481   -0.000000
    7   -2    0    6    8    0.000514    0.000001
    7   -2    0    7    8    0.000486    0.000000
    7   -2    0    8    8   -0.001040   -0.000000
    7   -2    0    9    8   -0.000502   -0.000000
    7   -2    0   10    8   -0.000003   -0.000000
    7   -2    0   11    8    0.000708    0.000000
    7   -2    0   12    8   -0.000815   -0.000000
    7   -2    0   13    8    0.000124   -0.000000
    7   -2    0   14    8   -0.001432    0.000000
    7   -2    0   15    8   -0.000280   -0.000001
    7   -2    0    1    9    0.000203   -0.000000
    7   -2    0    2    9   -0.000285   -0.000000
    7   -2    0    3    9    0.000382    0.000000
    7   -2    0    4    9    0.000305    0.000000
    7   -2    0    5    9    0.000357   -0.000000
    7   -2    0    6    9   -0.000195   -0.000000
    7   -2    0    7    9    0.000317   -0.000000
    7   -2    0    8    9    0.000644    0.000000
    7   -2    0    9    9    0.000340    0.000000
    7   -2    0   10    9   -0.000478    0.000000
    7   -2    0   11    9   -0.000067    0.000000
    7   -2    0   12    9   -0.000710   -0.000000
    7   -2    0   13    9    0.000707    0.000000
    7   -2    0   14    9    0.000054    0.000000
    7   -2    0   15    9   -0.000558   -0.000000
    7   -2    0    1   10   -0.000903    0.000000
    7   -2    0    2   10   -0.000052    0.000000
    7   -2    0    3   10    0.001512    0.000000
    7   -2    0    4   10   -0.000452   -0.000000
    7   -2    0    5   10   -0.000367   -0.000000
    7   -2    0    6   10   -0.000566    0.000001
    7   -2    0    7   10    0.000457    0.000000
    7   -2    0    8   10   -0.000962   -0.000000
    7   -2    0    9   10    0.000340   -0.000000
    7   -2    0   10   10   -0.001489   -0.000000
    7   -2    0   11   10    0.001915   -0.000000
    7   -2    0   12   10   -0.000443   -0.000000
    7   -2    0   13   10   -0.000350   -0.000000
    7   -2    0   14   10    0.000449   -0.000000
    7   -2    0   15   10   -0.000813   -0.000001
    7   -2    0    1   11   -0.000080    0.000000
    7   -2    0    2   11    0.000226    0.000000
    7   -2    0    3   11    0.000123    0.000000
    7   -2    0    4   11   -0.000471   -0.000000
    7   -2    0    5   11    0.000088   -0.000000
    7   -2    0    6   11    0.000540    0.000001
    7   -2    0    7   11   -0.000119    0.000000
    7   -2    0    8   11   -0.000799   -0.000000
    7   -2    0    9   11    0.000667   -0.000000
    7   -2    0   10   11   -0.000432   -0.000000
    7   -2    0   11   11    0.000475    0.000000
    7   -2    0   12   11   -0.001011    0.000000
    7   -2    0   13   11    0.000097   -0.000000
    7   -2    0   14   11    0.001524   -0.000000
    7   -2    0   15   11    0.000544   -0.000000
    7   -2    0    1   12    0.000709    0.000000
    7   -2    0    2   12   -0.000114   -0.000001
    7   -2    0    3   12   -0.001456    0.000001
    7   -2    0    4   12   -0.000390    0.000000
    7   -2    0    5   12    0.000267    0.000000
    7   -2    0    6   12   -0.000185   -0.000003
    7   -2    0    7   12   -0.000463   -0.000001
    7   -2    0    8   12    0.000806    0.000001
    7   -2    0    9   12    0.000403    0.000000
    7   -2    0   10   12   -0.000173    0.000001
    7   -2    0   11   12   -0.000857   -0.000000
    7   -2    0   12   12    0.000253   -0.000000
    7   -2    0   13   12   -0.000646    0.000000
    7   -2    0   14   12    0.000491    0.000000
    7   -2    0   15   12   -0.000155    0.000000
    7   -2    0    1   13   -0.000179   -0.000000
    7   -2    0    2   13    0.000233   -0.000000
    7   -2    0    3   13   -0.000794   -0.000000
    7   -2    0    4   13   -0.000170   -0.000000
    7   -2    0    5   13   -0.000048   -0.000000
    7   -2    0    6   13   -0.000019   -0.000000
    7   -2    0    7   13   -0.000230   -0.000000
    7   -2    0    8   13    0.000470    0.000000
    7   -2    0    9   13   -0.000459   -0.000000
    7   -2    0   10   13    0.000235    0.000000
    7   -2    0   11   13   -0.000278    0.000000
    7   -2    0   12   13   -0.000219   -0.000000
    7   -2    0   13   13    0.000237   -0.000000
    7   -2    0   14   13   -0.000386    0.000000
    7   -2    0   15   13   -0.000041   -0.000000
    7   -2    0    1   14    0.000513   -0.000000
    7   -2    0    2   14    0.000239    0.000000
    7   -2    0    3   14    0.000572   -0.000000
    7   -2    0    4   14    0.000778    0.000000
    7   -2    0    5   14    0.001007   -0.000000
    7   -2    0    6   14    0.000545    0.000000
    7   -2    0    7   14   -0.000195    0.000000
    7   -2    0    8   14    0.001394   -0.000000
    7   -2    0    9   14    0.000423   -0.000000
    7   -2    0   10   14    0.000339   -0.000000
    7   -2    0   11   14   -0.002040   -0.000000
    7   -2    0   12   14   -0.000194   -0.000000
    7   -2    0   13   14    0.000293    0.000000
    7   -2    0   14   14   -0.001176    0.000000
    7   -2    0   15   14    0.000558   -0.000000
    7   -2    0    1   15   -0.000395    0.000000
    7   -2    0    2   15    0.000447   -0.000001
    7   -2    0    3   15   -0.001190    0.000000
    7   -2    0    4   15    0.000457    0.000000
    7   -2    0    5   15   -0.000083   -0.000000
    7   -2    0    6   15   -0.000340   -0.000002
    7   -2    0    7   15   -0.000491   -0.000001
    7   -2    0    8   15   -0.000433    0.000001
    7   -2    0    9   15   -0.000470    0.000000
    7   -2    0   10   15    0.000163    0.000001
    7   -2    0   11   15   -0.001167    0.000000
    7   -2    0   12   15    0.000449   -0.000000
    7   -2    0   13   15   -0.000091    0.000000
    7   -2    0   14   15    0.000489    0.000000
    7   -2    0   15   15    0.001390    0.000000
    8   -4    0    1    1   -0.000685   -0.000000
    8   -4    0    2    1   -0.000306   -0.000000
    8   -4    0    3    1    0.000198   -0.000000
    8   -4    0    4    1   -0.000111    0.000000
    8   -4    0    5    1   -0.000092   -0.000000
    8   -4    0    6    1    0.000264    0.000000
    8   -4    0    7    1    0.000087    0.000000
    8   -4    0    8    1   -0.000096    0.000000
    8   -4    0    9    1    0.000351   -0.000000
    8   -4    0   10    1    0.000551    0.000000
    8   -4    0   11    1   -0.000342    0.000000
    8   -4    0   12    1    0.000763   -0.000001
    8   -4    0   13    1   -0.000118   -0.000000
    8   -4    0   14    1   -0.000072    0.000000
    8   -4    0   15    1   -0.000465   -0.000001
    8   -4    0    1    2    0.000523    0.000000
    8   -4    0    2    2   -0.000480    0.000000
    8   -4    0    3    2   -0.000350   -0.000000
    8   -4    0    4    2    0.000079    0.000000
    8   -4    0    5    2    0.000023   -0.000000
    8   -4    0    6    2    0.000660    0.000001
    8   -4    0    7    2    0.000158    0.000000
    8   -4    0    8    2    0.000340   -0.000000
    8   -4    0    9    2    0.000229   -0.000000
    8   -4    0   10    2   -0.000594   -0.000000
    8   -4    0   11    2    0.000398   -0.000000
    8   -4    0   12    2   -0.001089    0.000000
    8   -4    0   13    2    0.000381   -0.000000
    8   -4    0   14    2    0.000021    0.000000
    8   -4    0   15    2    0.000256    0.000000
    8   -4    0    1    3   -0.000038    0.000000
    8   -4    0    2    3   -0.000118    0.000000
    8   -4    0    3    3    0.003681   -0.000000
    8   -4    0    4    3   -0.000978    0.000000
    8   -4    0    5    3    0.000277   -0.000000
    8   -4    0    6    3   -0.000311   -0.000001
    8   -4    0    7    3   -0.000856   -0.000000
    8   -4    0    8    3   -0.000341    0.000001
    8   -4    0    9    3   -0.000686    0.000000
    8   -4    0   10    3    0.000115   -0.000000
    8   -4    0   11    3    0.000169   -0.000000
    8   -4    0   12    3   -0.000692   -0.000000
    8   -4    0   13    3   -0.000769   -0.000000
    8   -4    0   14    3    0.002461    0.000001
    8   -4    0   15    3    0.000724    0.000001
    8   -4    0    1    4   -0.000133   -0.000000
    8   -4    0    2    4    0.000028   -0.000000
    8   -4    0    3    4   -0.000436   -0.000000
    8   -4    0    4    4   -0.000641   -0.000000
    8   -4    0    5    4    0.000680   -0.000000
    8   -4    0    6    4    0.000139   -0.000000
    8   -4    0    7    4   -0.000996   -0.000000
    8   -4    0    8    4    0.001066   -0.000000
    8   -4    0    9    4   -0.000211    0.000000
    8   -4    0   10    4    0.000508    0.000000
    8   -4    0   11    4   -0.000981    0.000000
    8   -4    0   12    4   -0.000493    0.000000
    8   -4    0   13    4   -0.000460    0.000000
    8   -4    0   14    4    0.000243   -0.000000
    8   -4    0   15    4    0.000051   -0.000000
    8   -4    0    1    5    0.000109   -0.000000
    8   -4    0    2    5    0.000091    0.000000
    8   -4    0    3    5   -0.000078    0.000000
    8   -4    0    4    5    0.000428   -0.000000
    8   -4    0    5    5   -0.000504   -0.000000
    8   -4    0    6    5    0.000391    0.000000
    8   -4    0    7    5    0.000641   -0.000000
    8   -4    0    8    5   -0.000998    0.000000
    8   -4    0    9    5    0.000051    0.000000
    8   -4    0   10    5    0.000203   -0.000000
    8   -4    0   11    5   -0.000139   -0.000000
    8   -4    0   12    5    0.000296    0.000000
    8   -4    0   13    5    0.000376    0.000000
    8   -4    0   14    5   -0.000698    0.000000
    8   -4    0   15    5   -0.000122    0.000000
    8   -4    0    1    6   -0.000125   -0.000001
    8   -4    0    2    6    0.000791   -0.000000
    8   -4    0    3    6   -0.000472   -0.000000
    8   -4    0    4    6    0.000009    0.000000
    8   -4    0    5    6    0.000262   -0.000000
    8   -4    0    6    6    0.006294   -0.000001
    8   -4    0    7    6    0.000477    0.000000
    8   -4    0    8    6   -0.000218    0.000003
    8   -4    0    9    6   -0.000252   -0.000001
    8   -4    0   10    6   -0.000359    0.000003
    8   -4    0   11    6    0.000257    0.000001
    8   -4    0   12    6   -0.000943   -0.000003
    8   -4    0   13    6    0.000615   -0.000000
    8   -4    0   14    6   -0.000358    0.000001
    8   -4    0   15    6    0.001779   -0.000006
    8   -4    0    1    7    0.000431   -0.000000
    8   -4    0    2    7   -0.000133    0.000000
    8   -4    0    3    7   -0.000445    0.000000
    8   -4    0    4    7   -0.000463    0.000000
    8   -4    0    5    7    0.000588    0.000000
    8   -4    0    6    7    0.000428    0.000000
    8   -4    0    7    7   -0.000364    0.000000
    8   -4    0    8    7    0.000468    0.000000
    8   -4    0    9    7   -0.000414   -0.000000
    8   -4    0   10    7   -0.000271    0.000000
    8   -4    0   11    7   -0.000144    0.000000
    8   -4    0   12    7   -0.000564   -0.000000
    8   -4    0   13    7   -0.000147    0.000000
    8   -4    0   14    7    0.000091    0.000000
    8   -4    0   15    7    0.000224   -0.000000
    8   -4    0    1    8   -0.000672    0.000000
    8   -4    0    2    8    0.000927   -0.000001
    8   -4    0    3    8    0.001373   -0.000000
    8   -4    0    4    8    0.000622   -0.000000
    8   -4    0    5    8   -0.001134    0.000000
    8   -4    0    6    8   -0.000509   -0.000002
    8   -4    0    7    8    0.000345   -0.000000
    8   -4    0    8    8   -0.001014    0.000001
    8   -4    0    9    8   -0.000314    0.000000
    8   -4    0   10    8    0.001412    0.000000
    8   -4    0   11    8    0.000076    0.000000
    8   -4    0   12    8    0.001967    0.000000
    8   -4    0   13    8   -0.000459    0.000000
    8   -4    0   14    8   -0.000487   -0.000001
    8   -4    0   15    8   -0.000926    0.000000
    8   -4    0    1    9    0.000284   -0.000000
    8   -4    0    2    9   -0.000002    0.000000
    8   -4    0    3    9   -0.000552   -0.000000
    8   -4    0    4    9    0.000069    0.000000
    8   -4    0    5    9    0.000100   -0.000000
    8   -4    0    6    9   -0.000036    0.000001
    8   -4    0    7    9   -0.000766    0.000000
    8   -4    0    8    9    0.000703   -0.000000
    8   -4    0    9    9   -0.000294   -0.000000
    8   -4    0   10    9    0.000103   -0.000000
    8   -4    0   11    9   -0.000223   -0.000000
    8   -4    0   12    9    0.000534    0.000000
    8   -4    0   13    9   -0.000187   -0.000000
    8   -4    0   14    9    0.000005    0.000000
    8   -4    0   15    9   -0.000060    0.000000
    8   -4    0    1   10    0.000849    0.000000
    8   -4    0    2   10   -0.001012   -0.000001
    8   -4    0    3   10    0.000780    0.000001
    8   -4    0    4   10   -0.000893   -0.000000
    8   -4    0    5   10    0.000427    0.000000
    8   -4    0    6   10   -0.000343   -0.000002
    8   -4    0    7   10    0.000022   -0.000000
    8   -4    0    8   10    0.001625    0.000000
    8   -4    0    9   10   -0.000564    0.000000
    8   -4    0   10   10    0.000108    0.000000
    8   -4    0   11   10    0.000255   -0.000000
    8   -4    0   12   10   -0.000799    0.000000
    8   -4    0   13   10   -0.000144    0.000000
    8   -4    0   14   10    0.001125   -0.000000
    8   -4    0   15   10    0.001755    0.000001
    8   -4    0    1   11   -0.000168    0.000000
    8   -4    0    2   11    0.000076   -0.000000
    8   -4    0    3   11   -0.000611    0.000001
    8   -4    0    4   11   -0.000360   -0.000000
    8   -4    0    5   11    0.000108    0.000000
    8   -4    0    6   11   -0.000011   -0.000002
    8   -4    0    7   11   -0.000679   -0.000000
    8   -4    0    8   11    0.000540    0.000000
    8   -4    0    9   11   -0.000061    0.000000
    8   -4    0   10   11    0.000203    0.000000
    8   -4    0   11   11   -0.000349    0.000000
    8   -4    0   12   11    0.000218    0.000000
    8   -4    0   13   11    0.000088    0.000000
    8   -4    0   14   11    0.000198   -0.000000
    8   -4    0   15   11   -0.000660    0.000000
    8   -4    0    1   12    0.000298   -0.000000
    8   -4    0    2   12   -0.000274    0.000001
    8   -4    0    3   12   -0.001610    0.000000
    8   -4    0    4   12   -0.000334   -0.000000
    8   -4    0    5   12    0.000185   -0.000000
    8   -4    0    6   12   -0.000336    0.000005
    8   -4    0    7   12   -0.000706    0.000001
    8   -4    0    8   12    0.000824   -0.000001
    8   -4    0    9   12    0.000093   -0.000000
    8   -4    0   10   12   -0.000256   -0.000001
    8   -4    0   11   12    0.000118   -0.000001
    8   -4    0   12   12   -0.000538    0.000000
    8   -4    0   13   12   -0.000012   -0.000000
    8   -4    0   14   12   -0.000315    0.000000
    8   -4    0   15   12    0.001736   -0.000000
    8   -4    0    1   13    0.000160   -0.000000
    8   -4    0    2   13    0.000326    0.000000
    8   -4    0    3   13   -0.000315   -0.000000
    8   -4    0    4   13   -0.000078    0.000000
    8   -4    0    5   13    0.000136    0.000000
    8   -4    0    6   13    0.000835    0.000000
    8   -4    0    7   13   -0.000792   -0.000000
    8   -4    0    8   13    0.000302   -0.000000
    8   -4    0    9   13   -0.000353    0.000000
    8   -4    0   10   13    0.000528   -0.000000
    8   -4    0   11   13   -0.000058   -0.000000
    8   -4    0   12   13    0.000259    0.000000
    8   -4    0   13   13   -0.000387    0.000000
    8   -4    0   14   13   -0.000314   -0.000000
    8   -4    0   15   13    0.000074    0.000000
    8   -4    0    1   14    0.000190    0.000000
    8   -4    0    2   14    0.000011   -0.000000
    8   -4    0    3   14   -0.000525   -0.000001
    8   -4    0    4   14    0.000564    0.000000
    8   -4    0    5   14   -0.001251   -0.000000
    8   -4    0    6   14    0.000078   -0.000000
    8   -4    0    7   14   -0.000116    0.000000
    8   -4    0    8   14   -0.000630    0.000000
    8   -4    0    9   14   -0.000133   -0.000000
    8   -4    0   10   14    0.000873    0.000000
    8   -4    0   11   14    0.000581    0.000000
    8   -4    0   12   14    0.000553   -0.000000
    8   -4    0   13   14    0.000103   -0.000000
    8   -4    0   14   14   -0.000821   -0.000000
    8   -4    0   15   14   -0.000392   -0.000000
    8   -4    0    1   15   -0.001322   -0.000000
    8   -4    0    2   15    0.001115    0.000001
    8   -4    0    3   15    0.000254   -0.000000
    8   -4    0    4   15    0.000085    0.000000
    8   -4    0    5   15    0.000014   -0.000000
    8   -4    0    6   15    0.001264    0.000005
    8   -4    0    7   15    0.000317    0.000001
    8   -4    0    8   15   -0.001000   -0.000001
    8   -4    0    9   15    0.000454   -0.000001
    8   -4    0   10   15    0.001487   -0.000001
    8   -4    0   11   15   -0.000468   -0.000000
    8   -4    0   12   15    0.000578   -0.000000
    8   -4    0   13   15    0.000229   -0.000000
    8   -4    0   14   15   -0.000169    0.000001
    8   -4    0   15   15   -0.001528   -0.000000
