 running on  192 total cores
 distrk:  each k-point on  192 cores,    1 groups
 distr:  one band on   24 cores,    8 groups
 using from now: INCAR     
 vasp.5.4.4.18Apr17-6-g9f103f2a35 (build Oct 01 2024 10:11:53) complex          
  
 POSCAR found type information on POSCAR  Mo S  Te
 POSCAR found :  3 types and       6 ions
 scaLAPACK will be used
 LDA part: xc-table for Pade appr. of Perdew
 WARNING: stress and forces are not correct
 POSCAR, INCAR and KPOINTS ok, starting setup
 FFT: planning ...
 WAVECAR not read
 charge-density read from file: unknown                                 
 WARNING: random wavefunctions but no delay for mixing, default for NELMDL
 entering main loop
       N       E                     dE             d eps       ncg     rms          rms(c)
DAV:   1     0.260971914322E+03    0.26097E+03   -0.12899E+04  3840   0.124E+03
DAV:   2    -0.548178200562E+01   -0.26645E+03   -0.25785E+03  6056   0.206E+02
DAV:   3    -0.382825735585E+02   -0.32801E+02   -0.32444E+02  5000   0.822E+01
DAV:   4    -0.393991595826E+02   -0.11166E+01   -0.11111E+01  5880   0.176E+01
DAV:   5    -0.394242115253E+02   -0.25052E-01   -0.25037E-01  5728   0.254E+00
DAV:   6    -0.394246447032E+02   -0.43318E-03   -0.43299E-03  5928   0.304E-01
DAV:   7    -0.394246569978E+02   -0.12295E-04   -0.12293E-04  5728   0.508E-02
DAV:   8    -0.394246573404E+02   -0.34259E-06   -0.34259E-06  5960   0.711E-03
DAV:   9    -0.394246573488E+02   -0.83701E-08   -0.83661E-08  3888   0.124E-03
   1 F= -.39424657E+02 E0= -.39424657E+02  d E =0.000000E+00
