Automatically generated mesh
      24
Reciprocal lattice
    0.12500000000000    0.12500000000000    0.00000000000000             2
   -0.12500000000000    0.25000000000001    0.00000000000000             2
   -0.25000000000000    0.12500000000000    0.00000000000000             2
    0.37500000000000    0.12500000000000    0.00000000000000             2
   -0.12500000000000    0.50000000000001    0.00000000000000             2
    0.50000000000000    0.37500000000000    0.00000000000000             2
   -0.37500000000000    0.50000000000001    0.00000000000000             2
    0.12500000000000    0.37500000000000    0.00000000000000             2
    0.50000000000000   -0.12500000000000    0.00000000000000             2
   -0.37500000000000    0.12500000000000    0.00000000000000             2
   -0.12500000000000   -0.24999999999999    0.00000000000000             2
    0.25000000000000   -0.37500000000000    0.00000000000000             2
    0.37500000000000   -0.24999999999999    0.00000000000000             2
    0.12500000000000   -0.37500000000000    0.00000000000000             2
   -0.25000000000000   -0.12500000000000    0.00000000000000             2
   -0.12500000000000    0.12500000000000    0.00000000000000             2
   -0.12500000000000    0.00000000000001    0.00000000000000             2
    0.00000000000000   -0.12500000000000    0.00000000000000             2
    0.37500000000000    0.37500000000000    0.00000000000000             2
   -0.37500000000000   -0.24999999999999    0.00000000000000             2
    0.25000000000000    0.37500000000000    0.00000000000000             2
   -0.37500000000000    0.37500000000000    0.00000000000000             2
   -0.37500000000000    0.00000000000001    0.00000000000000             2
    0.00000000000000   -0.37500000000000    0.00000000000000             2
