
     Program PWSCF v.6.6 starts on  8May2023 at  6:23:51 

     This program is part of the open-source Quantum ESPRESSO suite
     for quantum simulation of materials; please cite
         "P. Giannozzi et al., J. Phys.:Condens. Matter 21 395502 (2009);
         "P. Giannozzi et al., J. Phys.:Condens. Matter 29 465901 (2017);
          URL http://www.quantum-espresso.org", 
     in publications or presentations arising from this work. More details at
     http://www.quantum-espresso.org/quote

     Parallel version (MPI), running on    24 processors

     MPI processes distributed on     1 nodes
     R & G space division:  proc/nbgrp/npool/nimage =      24
     Fft bands division:     nmany     =       1
     Reading input from INCAR-relax.pw
Warning: card &CELL ignored
Warning: card     CELL_DYNAMICS  = "BFGS" ignored
Warning: card     ! CELL_DOFREE = "XY" ignored
Warning: card / ignored

     Current dimensions of program PWSCF are:
     Max number of different atomic species (ntypx) = 10
     Max number of k-points (npk) =  40000
     Max angular momentum in pseudopotentials (lmaxx) =  3

     Subspace diagonalization in iterative solution of the eigenvalue problem:
     a serial algorithm will be used

     Message from routine setup:
     using ibrav=0 with symmetry is DISCOURAGED, use correct ibrav instead
 
     Parallelization info
     --------------------
     sticks:   dense  smooth     PW     G-vecs:    dense   smooth      PW
     Min         134      71     20                26314    10237    1510
     Max         135      72     21                26329    10253    1521
     Sum        3219    1709    485               631649   245907   36317
 


     bravais-lattice index     =            0
     lattice parameter (alat)  =       8.3102  a.u.
     unit-cell volume          =    2544.8299 (a.u.)^3
     number of atoms/cell      =            4
     number of atomic types    =            2
     number of electrons       =        40.00
     number of Kohn-Sham states=           24
     kinetic-energy cutoff     =      80.0000  Ry
     charge density cutoff     =     600.0000  Ry
     convergence threshold     =      1.0E-10
     mixing beta               =       0.7000
     number of iterations used =            8  plain     mixing
     Exchange-correlation= SLA  PW   PBE  PBE
                           (   1   4   3   4   0   0   0)
     nstep                     =          100


     celldm(1)=   8.310192  celldm(2)=   0.000000  celldm(3)=   0.000000
     celldm(4)=   0.000000  celldm(5)=   0.000000  celldm(6)=   0.000000

     crystal axes: (cart. coord. in units of alat)
               a(1) = (   1.000000   0.000000   0.000000 )  
               a(2) = (   0.000000   0.975007   0.000000 )  
               a(3) = (   0.000000   0.000000   4.547972 )  

     reciprocal axes: (cart. coord. in units 2 pi/alat)
               b(1) = (  1.000000  0.000000  0.000000 )  
               b(2) = (  0.000000  1.025634  0.000000 )  
               b(3) = (  0.000000  0.000000  0.219878 )  


     PseudoPot. # 1 for Sn read from file:
     ./Sn_pbe_v1.uspp.F.UPF
     MD5 check sum: 4cf58ce39ec5d5d420df3dd08604eb00
     Pseudo is Ultrasoft + core correction, Zval = 14.0
     Generated by new atomic code, or converted to UPF format
     Using radial grid of  891 points,  6 beta functions with: 
                l(1) =   0
                l(2) =   0
                l(3) =   1
                l(4) =   1
                l(5) =   2
                l(6) =   2
     Q(r) pseudized with  6 coefficients,  rinner =    1.200   1.200   1.200
                                                       1.200   1.200

     PseudoPot. # 2 for Se read from file:
     ./Se_pbe_v1.uspp.F.UPF
     MD5 check sum: 1b3568f3a8ae88f9a2a0ad0698632c85
     Pseudo is Ultrasoft + core correction, Zval =  6.0
     Generated by new atomic code, or converted to UPF format
     Using radial grid of  877 points,  6 beta functions with: 
                l(1) =   0
                l(2) =   0
                l(3) =   1
                l(4) =   1
                l(5) =   2
                l(6) =   2
     Q(r) pseudized with  8 coefficients,  rinner =    1.300   1.300   1.300
                                                       1.300   1.300

     atomic species   valence    mass     pseudopotential
        Sn            14.00   118.71000     Sn( 1.00)
        Se             6.00    78.96000     Se( 1.00)

      2 Sym. Ops. (no inversion) found ( 1 have fractional translation)



   Cartesian axes

     site n.     atom                  positions (alat units)
         1           Sn  tau(   1) = (   0.5839905   0.7312553   0.6574379  )
         2           Sn  tau(   2) = (   0.0839891   0.2437518   0.0299693  )
         3           Se  tau(   3) = (   0.0301155   0.2437518   0.6472640  )
         4           Se  tau(   4) = (   0.5301129   0.7312553   0.0401356  )

     number of k points=    64  Marzari-Vanderbilt smearing, width (Ry)=  0.0100
                       cart. coord. in units 2pi/alat
        k(    1) = (   0.0000000   0.0000000   0.0000000), wk =   0.0088889
        k(    2) = (   0.0000000   0.0683756   0.0000000), wk =   0.0177778
        k(    3) = (   0.0000000   0.1367511   0.0000000), wk =   0.0177778
        k(    4) = (   0.0000000   0.2051267   0.0000000), wk =   0.0177778
        k(    5) = (   0.0000000   0.2735023   0.0000000), wk =   0.0177778
        k(    6) = (   0.0000000   0.3418779   0.0000000), wk =   0.0177778
        k(    7) = (   0.0000000   0.4102534   0.0000000), wk =   0.0177778
        k(    8) = (   0.0000000   0.4786290   0.0000000), wk =   0.0177778
        k(    9) = (   0.0666667   0.0000000   0.0000000), wk =   0.0177778
        k(   10) = (   0.0666667   0.0683756   0.0000000), wk =   0.0355556
        k(   11) = (   0.0666667   0.1367511   0.0000000), wk =   0.0355556
        k(   12) = (   0.0666667   0.2051267   0.0000000), wk =   0.0355556
        k(   13) = (   0.0666667   0.2735023   0.0000000), wk =   0.0355556
        k(   14) = (   0.0666667   0.3418779   0.0000000), wk =   0.0355556
        k(   15) = (   0.0666667   0.4102534   0.0000000), wk =   0.0355556
        k(   16) = (   0.0666667   0.4786290   0.0000000), wk =   0.0355556
        k(   17) = (   0.1333333   0.0000000   0.0000000), wk =   0.0177778
        k(   18) = (   0.1333333   0.0683756   0.0000000), wk =   0.0355556
        k(   19) = (   0.1333333   0.1367511   0.0000000), wk =   0.0355556
        k(   20) = (   0.1333333   0.2051267   0.0000000), wk =   0.0355556
        k(   21) = (   0.1333333   0.2735023   0.0000000), wk =   0.0355556
        k(   22) = (   0.1333333   0.3418779   0.0000000), wk =   0.0355556
        k(   23) = (   0.1333333   0.4102534   0.0000000), wk =   0.0355556
        k(   24) = (   0.1333333   0.4786290   0.0000000), wk =   0.0355556
        k(   25) = (   0.2000000   0.0000000   0.0000000), wk =   0.0177778
        k(   26) = (   0.2000000   0.0683756   0.0000000), wk =   0.0355556
        k(   27) = (   0.2000000   0.1367511   0.0000000), wk =   0.0355556
        k(   28) = (   0.2000000   0.2051267   0.0000000), wk =   0.0355556
        k(   29) = (   0.2000000   0.2735023   0.0000000), wk =   0.0355556
        k(   30) = (   0.2000000   0.3418779   0.0000000), wk =   0.0355556
        k(   31) = (   0.2000000   0.4102534   0.0000000), wk =   0.0355556
        k(   32) = (   0.2000000   0.4786290   0.0000000), wk =   0.0355556
        k(   33) = (   0.2666667   0.0000000   0.0000000), wk =   0.0177778
        k(   34) = (   0.2666667   0.0683756   0.0000000), wk =   0.0355556
        k(   35) = (   0.2666667   0.1367511   0.0000000), wk =   0.0355556
        k(   36) = (   0.2666667   0.2051267   0.0000000), wk =   0.0355556
        k(   37) = (   0.2666667   0.2735023   0.0000000), wk =   0.0355556
        k(   38) = (   0.2666667   0.3418779   0.0000000), wk =   0.0355556
        k(   39) = (   0.2666667   0.4102534   0.0000000), wk =   0.0355556
        k(   40) = (   0.2666667   0.4786290   0.0000000), wk =   0.0355556
        k(   41) = (   0.3333333   0.0000000   0.0000000), wk =   0.0177778
        k(   42) = (   0.3333333   0.0683756   0.0000000), wk =   0.0355556
        k(   43) = (   0.3333333   0.1367511   0.0000000), wk =   0.0355556
        k(   44) = (   0.3333333   0.2051267   0.0000000), wk =   0.0355556
        k(   45) = (   0.3333333   0.2735023   0.0000000), wk =   0.0355556
        k(   46) = (   0.3333333   0.3418779   0.0000000), wk =   0.0355556
        k(   47) = (   0.3333333   0.4102534   0.0000000), wk =   0.0355556
        k(   48) = (   0.3333333   0.4786290   0.0000000), wk =   0.0355556
        k(   49) = (   0.4000000   0.0000000   0.0000000), wk =   0.0177778
        k(   50) = (   0.4000000   0.0683756   0.0000000), wk =   0.0355556
        k(   51) = (   0.4000000   0.1367511   0.0000000), wk =   0.0355556
        k(   52) = (   0.4000000   0.2051267   0.0000000), wk =   0.0355556
        k(   53) = (   0.4000000   0.2735023   0.0000000), wk =   0.0355556
        k(   54) = (   0.4000000   0.3418779   0.0000000), wk =   0.0355556
        k(   55) = (   0.4000000   0.4102534   0.0000000), wk =   0.0355556
        k(   56) = (   0.4000000   0.4786290   0.0000000), wk =   0.0355556
        k(   57) = (   0.4666667   0.0000000   0.0000000), wk =   0.0177778
        k(   58) = (   0.4666667   0.0683756   0.0000000), wk =   0.0355556
        k(   59) = (   0.4666667   0.1367511   0.0000000), wk =   0.0355556
        k(   60) = (   0.4666667   0.2051267   0.0000000), wk =   0.0355556
        k(   61) = (   0.4666667   0.2735023   0.0000000), wk =   0.0355556
        k(   62) = (   0.4666667   0.3418779   0.0000000), wk =   0.0355556
        k(   63) = (   0.4666667   0.4102534   0.0000000), wk =   0.0355556
        k(   64) = (   0.4666667   0.4786290   0.0000000), wk =   0.0355556

     Dense  grid:   631649 G-vectors     FFT dimensions: (  72,  64, 300)

     Smooth grid:   245907 G-vectors     FFT dimensions: (  48,  48, 216)

     Estimated max dynamical RAM per process >     128.07 MB

     Estimated total dynamical RAM >       3.00 GB

     Initial potential from superposition of free atoms

     starting charge   37.99977, renormalised to   40.00000

     negative rho (up, down):  2.834E-03 0.000E+00
     Starting wfcs are   26 randomized atomic wfcs

     total cpu time spent up to now is        2.6 secs

     Self-consistent Calculation

     iteration #  1     ecut=    80.00 Ry     beta= 0.70
     Davidson diagonalization with overlap
     ethr =  1.00E-02,  avg # of iterations =  3.8

     negative rho (up, down):  5.605E-04 0.000E+00

     total cpu time spent up to now is        7.7 secs

     total energy              =    -413.24122443 Ry
     estimated scf accuracy    <       1.34759717 Ry

     iteration #  2     ecut=    80.00 Ry     beta= 0.70
     Davidson diagonalization with overlap
     ethr =  3.37E-03,  avg # of iterations =  2.2

     negative rho (up, down):  1.114E-04 0.000E+00

     total cpu time spent up to now is       12.6 secs

     total energy              =    -413.63759316 Ry
     estimated scf accuracy    <       0.66893895 Ry

     iteration #  3     ecut=    80.00 Ry     beta= 0.70
     Davidson diagonalization with overlap
     ethr =  1.67E-03,  avg # of iterations =  2.0

     negative rho (up, down):  2.492E-05 0.000E+00

     total cpu time spent up to now is       16.7 secs

     total energy              =    -413.79964024 Ry
     estimated scf accuracy    <       0.02359341 Ry

     iteration #  4     ecut=    80.00 Ry     beta= 0.70
     Davidson diagonalization with overlap
     ethr =  5.90E-05,  avg # of iterations =  2.9

     negative rho (up, down):  2.501E-05 0.000E+00

     total cpu time spent up to now is       21.1 secs

     total energy              =    -413.80359765 Ry
     estimated scf accuracy    <       0.00094724 Ry

     iteration #  5     ecut=    80.00 Ry     beta= 0.70
     Davidson diagonalization with overlap
     ethr =  2.37E-06,  avg # of iterations =  6.8

     negative rho (up, down):  2.738E-05 0.000E+00

     total cpu time spent up to now is       26.4 secs

     total energy              =    -413.80373738 Ry
     estimated scf accuracy    <       0.00081888 Ry

     iteration #  6     ecut=    80.00 Ry     beta= 0.70
     Davidson diagonalization with overlap
     ethr =  2.05E-06,  avg # of iterations =  4.4

     negative rho (up, down):  2.758E-05 0.000E+00

     total cpu time spent up to now is       31.0 secs

     total energy              =    -413.80384482 Ry
     estimated scf accuracy    <       0.00040137 Ry

     iteration #  7     ecut=    80.00 Ry     beta= 0.70
     Davidson diagonalization with overlap
     ethr =  1.00E-06,  avg # of iterations =  2.3

     negative rho (up, down):  2.722E-05 0.000E+00

     total cpu time spent up to now is       35.0 secs

     total energy              =    -413.80388416 Ry
     estimated scf accuracy    <       0.00003867 Ry

     iteration #  8     ecut=    80.00 Ry     beta= 0.70
     Davidson diagonalization with overlap
     ethr =  9.67E-08,  avg # of iterations =  3.3

     negative rho (up, down):  2.745E-05 0.000E+00

     total cpu time spent up to now is       39.4 secs

     total energy              =    -413.80389417 Ry
     estimated scf accuracy    <       0.00000028 Ry

     iteration #  9     ecut=    80.00 Ry     beta= 0.70
     Davidson diagonalization with overlap
     ethr =  7.00E-10,  avg # of iterations =  7.3

     negative rho (up, down):  2.762E-05 0.000E+00

     total cpu time spent up to now is       47.2 secs

     total energy              =    -413.80389557 Ry
     estimated scf accuracy    <       0.00000028 Ry

     iteration # 10     ecut=    80.00 Ry     beta= 0.70
     Davidson diagonalization with overlap
     ethr =  7.00E-10,  avg # of iterations =  2.0

     negative rho (up, down):  2.765E-05 0.000E+00

     total cpu time spent up to now is       51.2 secs

     total energy              =    -413.80389560 Ry
     estimated scf accuracy    <       0.00000001 Ry

     iteration # 11     ecut=    80.00 Ry     beta= 0.70
     Davidson diagonalization with overlap
     ethr =  3.74E-11,  avg # of iterations =  3.4

     negative rho (up, down):  2.765E-05 0.000E+00

     total cpu time spent up to now is       55.7 secs

     total energy              =    -413.80389561 Ry
     estimated scf accuracy    <          1.2E-09 Ry

     iteration # 12     ecut=    80.00 Ry     beta= 0.70
     Davidson diagonalization with overlap
     ethr =  2.88E-12,  avg # of iterations =  4.1

     negative rho (up, down):  2.765E-05 0.000E+00

     total cpu time spent up to now is       60.6 secs

     End of self-consistent calculation

          k = 0.0000 0.0000 0.0000 ( 30811 PWs)   bands (ev):

   -22.1962 -22.1886 -22.1883 -22.1823 -22.1817 -22.1577 -22.1536 -22.1511
   -22.1415 -22.1381 -14.2208 -13.1981  -7.1750  -6.1637  -4.3466  -3.9701
    -3.9216  -2.7392  -2.7302  -1.4977   0.6181   2.3919   2.8629   3.0166

          k = 0.0000 0.0684 0.0000 ( 30805 PWs)   bands (ev):

   -22.1956 -22.1886 -22.1882 -22.1831 -22.1809 -22.1579 -22.1536 -22.1509
   -22.1418 -22.1382 -14.2010 -13.1941  -7.2405  -6.2418  -4.3480  -3.9594
    -3.8513  -2.7536  -2.6007  -1.5114   0.6304   2.4707   2.8300   2.8796

          k = 0.0000 0.1368 0.0000 ( 30799 PWs)   bands (ev):

   -22.1942 -22.1894 -22.1871 -22.1844 -22.1796 -22.1582 -22.1536 -22.1501
   -22.1426 -22.1382 -14.1428 -13.1844  -7.4141  -6.4599  -4.3261  -3.8876
    -3.6937  -2.7046  -2.3454  -1.5574   0.6732   2.3354   2.6070   2.6338

          k = 0.0000 0.2051 0.0000 ( 30777 PWs)   bands (ev):

   -22.1923 -22.1906 -22.1859 -22.1857 -22.1777 -22.1588 -22.1535 -22.1490
   -22.1438 -22.1384 -14.0494 -13.1756  -7.6427  -6.7728  -4.2477  -3.7517
    -3.4847  -2.6205  -2.0124  -1.6419   0.7608   1.6909   2.1455   2.6218

          k = 0.0000 0.2735 0.0000 ( 30739 PWs)   bands (ev):

   -22.1920 -22.1910 -22.1866 -22.1842 -22.1754 -22.1597 -22.1533 -22.1475
   -22.1453 -22.1387 -13.9267 -13.1781  -7.8683  -7.1253  -4.1066  -3.5630
    -3.2564  -2.5288  -1.7523  -1.6432   0.9068   1.0448   1.6663   2.2736

          k = 0.0000 0.3419 0.0000 ( 30711 PWs)   bands (ev):

   -22.1932 -22.1917 -22.1855 -22.1829 -22.1727 -22.1610 -22.1528 -22.1468
   -22.1458 -22.1392 -13.7834 -13.2036  -8.0423  -7.4689  -3.9128  -3.3412
    -3.0634  -2.4666  -1.8281  -1.2790   0.4665   1.1131   1.2790   1.7600

          k = 0.0000 0.4103 0.0000 ( 30675 PWs)   bands (ev):

   -22.1940 -22.1930 -22.1839 -22.1822 -22.1699 -22.1627 -22.1520 -22.1484
   -22.1441 -22.1400 -13.6312 -13.2621  -8.1300  -7.7659  -3.6823  -3.1577
    -2.9538  -2.4769  -1.7562  -1.0411   0.0979   1.0609   1.1394   1.4413

          k = 0.0000 0.4786 0.0000 ( 30628 PWs)   bands (ev):

   -22.1943 -22.1939 -22.1827 -22.1821 -22.1672 -22.1647 -22.1510 -22.1498
   -22.1425 -22.1411 -13.4842 -13.3573  -8.1126  -7.9876  -3.4384  -3.2244
    -2.7741  -2.5857  -1.4992  -1.1726   0.2021   0.6297   1.0537   1.2490

          k = 0.0667 0.0000 0.0000 ( 30781 PWs)   bands (ev):

   -22.1959 -22.1884 -22.1884 -22.1820 -22.1817 -22.1578 -22.1534 -22.1511
   -22.1416 -22.1384 -14.2028 -13.1968  -7.2429  -6.2465  -4.3443  -3.8996
    -3.8914  -2.7189  -2.6220  -1.5172   0.6310   2.4399   2.7255   2.9738

          k = 0.0667 0.0684 0.0000 ( 30777 PWs)   bands (ev):

   -22.1954 -22.1888 -22.1880 -22.1832 -22.1805 -22.1579 -22.1535 -22.1508
   -22.1419 -22.1384 -14.1831 -13.1927  -7.2977  -6.3153  -4.3390  -4.0531
    -3.6680  -2.8263  -2.4187  -1.5280   0.6451   2.4646   2.5085   2.9563

          k = 0.0667 0.1368 0.0000 ( 30780 PWs)   bands (ev):

   -22.1940 -22.1897 -22.1869 -22.1847 -22.1790 -22.1582 -22.1536 -22.1499
   -22.1428 -22.1384 -14.1252 -13.1827  -7.4470  -6.5109  -4.3079  -4.1154
    -3.4048  -2.8673  -2.1187  -1.5639   0.6920   1.9108   2.6065   2.8804

          k = 0.0667 0.2051 0.0000 ( 30787 PWs)   bands (ev):

   -22.1922 -22.1909 -22.1862 -22.1855 -22.1772 -22.1588 -22.1536 -22.1488
   -22.1440 -22.1385 -14.0325 -13.1734  -7.6508  -6.7988  -4.2272  -4.0758
    -3.1401  -2.8238  -1.8083  -1.6270   0.7827   1.3202   2.3527   2.5058

          k = 0.0667 0.2735 0.0000 ( 30749 PWs)   bands (ev):

   -22.1923 -22.1913 -22.1866 -22.1839 -22.1749 -22.1597 -22.1534 -22.1473
   -22.1454 -22.1388 -13.9108 -13.1749  -7.8581  -7.1309  -4.0890  -3.9442
    -2.9164  -2.7332  -1.6946  -1.5405   0.8155   0.9243   1.8185   2.0281

          k = 0.0667 0.3419 0.0000 ( 30723 PWs)   bands (ev):

   -22.1936 -22.1922 -22.1853 -22.1827 -22.1723 -22.1610 -22.1529 -22.1470
   -22.1456 -22.1392 -13.7688 -13.1991  -8.0211  -7.4601  -3.9003  -3.7409
    -2.8039  -2.6525  -1.6981  -1.3705   0.4857   1.0479   1.3537   1.5918

          k = 0.0667 0.4103 0.0000 ( 30676 PWs)   bands (ev):

   -22.1945 -22.1935 -22.1836 -22.1819 -22.1696 -22.1626 -22.1521 -22.1485
   -22.1439 -22.1400 -13.6183 -13.2558  -8.1037  -7.7476  -3.6776  -3.5019
    -2.8463  -2.6584  -1.5834  -1.3117   0.3408   0.7251   1.3401   1.4791

          k = 0.0667 0.4786 0.0000 ( 30659 PWs)   bands (ev):

   -22.1948 -22.1945 -22.1824 -22.1818 -22.1670 -22.1647 -22.1511 -22.1499
   -22.1424 -22.1410 -13.4734 -13.3487  -8.0856  -7.9633  -3.4536  -3.3417
    -2.9129  -2.7874  -1.4214  -1.3237   0.3003   0.4141   1.3974   1.6922

          k = 0.1333 0.0000 0.0000 ( 30751 PWs)   bands (ev):

   -22.1953 -22.1889 -22.1880 -22.1830 -22.1799 -22.1579 -22.1529 -22.1509
   -22.1419 -22.1390 -14.1498 -13.1949  -7.4193  -6.4721  -4.3146  -3.8018
    -3.7112  -2.6616  -2.3411  -1.5778   0.6759   2.2507   2.5292   2.7415

          k = 0.1333 0.0684 0.0000 ( 30759 PWs)   bands (ev):

   -22.1948 -22.1893 -22.1876 -22.1838 -22.1791 -22.1580 -22.1531 -22.1505
   -22.1422 -22.1389 -14.1305 -13.1905  -7.4503  -6.5190  -4.2993  -4.0852
    -3.3859  -2.8486  -2.1031  -1.5783   0.6942   1.8992   2.5372   2.9277

          k = 0.1333 0.1368 0.0000 ( 30782 PWs)   bands (ev):

   -22.1935 -22.1903 -22.1865 -22.1854 -22.1775 -22.1583 -22.1534 -22.1495
   -22.1432 -22.1388 -14.0737 -13.1796  -7.5407  -6.6584  -4.3172  -4.2520
    -3.0395  -3.0342  -1.7802  -1.5778   0.7502   1.3662   2.3352   3.0352

          k = 0.1333 0.2051 0.0000 ( 30761 PWs)   bands (ev):

   -22.1921 -22.1917 -22.1867 -22.1850 -22.1756 -22.1589 -22.1536 -22.1482
   -22.1445 -22.1387 -13.9828 -13.1685  -7.6776  -6.8788  -4.4246  -4.1673
    -3.1160  -2.7581  -1.5685  -1.5628   0.8422   0.9400   1.8143   2.8940

          k = 0.1333 0.2735 0.0000 ( 30748 PWs)   bands (ev):

   -22.1933 -22.1922 -22.1863 -22.1833 -22.1734 -22.1598 -22.1535 -22.1467
   -22.1459 -22.1388 -13.8640 -13.1672  -7.8311  -7.1516  -4.3998  -4.0391
    -3.0919  -2.6249  -1.5734  -1.5057   0.7676   0.9080   1.3440   2.5320

          k = 0.1333 0.3419 0.0000 ( 30731 PWs)   bands (ev):

   -22.1947 -22.1936 -22.1845 -22.1820 -22.1711 -22.1610 -22.1531 -22.1474
   -22.1451 -22.1392 -13.7261 -13.1872  -7.9600  -7.4368  -4.2578  -3.8684
    -3.0331  -2.6611  -1.7477  -1.4228   0.6732   0.8389   1.3499   2.1288

          k = 0.1333 0.4103 0.0000 ( 30673 PWs)   bands (ev):

   -22.1958 -22.1950 -22.1828 -22.1811 -22.1688 -22.1626 -22.1523 -22.1488
   -22.1435 -22.1398 -13.5808 -13.2382  -8.0263  -7.6945  -4.0262  -3.6753
    -3.0552  -2.8185  -1.8635  -1.4222   0.4821   0.9253   1.5972   1.8834

          k = 0.1333 0.4786 0.0000 ( 30679 PWs)   bands (ev):

   -22.1962 -22.1960 -22.1816 -22.1810 -22.1665 -22.1644 -22.1513 -22.1501
   -22.1420 -22.1407 -13.4423 -13.3245  -8.0057  -7.8917  -3.7501  -3.5662
    -3.1460  -3.0231  -1.7721  -1.5705   0.5478   0.7732   1.8965   1.9836

          k = 0.2000 0.0000 0.0000 ( 30734 PWs)   bands (ev):

   -22.1944 -22.1896 -22.1875 -22.1844 -22.1772 -22.1581 -22.1521 -22.1505
   -22.1424 -22.1400 -14.0647 -13.1978  -7.6445  -6.7863  -4.2300  -3.6564
    -3.4553  -2.5783  -1.9642  -1.6792   0.7672   1.6523   2.2371   2.4888

          k = 0.2000 0.0684 0.0000 ( 30771 PWs)   bands (ev):

   -22.1939 -22.1900 -22.1871 -22.1851 -22.1766 -22.1582 -22.1525 -22.1499
   -22.1428 -22.1397 -14.0460 -13.1929  -7.6516  -6.8095  -4.2105  -4.0203
    -3.0904  -2.7998  -1.7535  -1.6561   0.7894   1.3186   2.2925   2.5503

          k = 0.2000 0.1368 0.0000 ( 30761 PWs)   bands (ev):

   -22.1929 -22.1912 -22.1864 -22.1859 -22.1751 -22.1585 -22.1531 -22.1487
   -22.1439 -22.1394 -13.9911 -13.1803  -7.6766  -6.8832  -4.3982  -4.1549
    -3.1137  -2.7307  -1.5717  -1.5257   0.8488   0.9432   1.8044   2.9166

          k = 0.2000 0.2051 0.0000 ( 30739 PWs)   bands (ev):

   -22.1928 -22.1925 -22.1869 -22.1843 -22.1733 -22.1591 -22.1535 -22.1474
   -22.1452 -22.1391 -13.9036 -13.1661  -7.7260  -7.0137  -4.6568  -4.0718
    -3.3253  -2.5458  -1.5850  -1.4166   0.8757   0.8759   1.3532   3.0450

          k = 0.2000 0.2735 0.0000 ( 30722 PWs)   bands (ev):

   -22.1947 -22.1938 -22.1855 -22.1825 -22.1714 -22.1599 -22.1536 -22.1466
   -22.1459 -22.1390 -13.7898 -13.1597  -7.7966  -7.1963  -4.7632  -3.9679
    -3.4039  -2.5427  -1.9084  -1.2892   0.6719   1.1109   1.3280   2.8385

          k = 0.2000 0.3419 0.0000 ( 30734 PWs)   bands (ev):

   -22.1964 -22.1956 -22.1835 -22.1811 -22.1695 -22.1611 -22.1532 -22.1479
   -22.1444 -22.1392 -13.6589 -13.1723  -7.8666  -7.4079  -4.7150  -3.8399
    -3.4134  -2.6645  -2.2642  -1.3588   0.5770   1.4555   1.5366   2.5172

          k = 0.2000 0.4103 0.0000 ( 30716 PWs)   bands (ev):

   -22.1977 -22.1972 -22.1817 -22.1801 -22.1676 -22.1625 -22.1525 -22.1492
   -22.1428 -22.1396 -13.5227 -13.2137  -7.9027  -7.6132  -4.5338  -3.7372
    -3.4627  -2.8637  -2.4086  -1.6340   0.7438   1.6448   1.8153   2.3147

          k = 0.2000 0.4786 0.0000 ( 30687 PWs)   bands (ev):

   -22.1983 -22.1981 -22.1804 -22.1799 -22.1658 -22.1641 -22.1515 -22.1504
   -22.1415 -22.1404 -13.3949 -13.2888  -7.8767  -7.7775  -4.2545  -3.9328
    -3.3385  -3.1024  -2.2685  -1.9746   1.0572   1.4133   2.1168   2.3355

          k = 0.2667 0.0000 0.0000 ( 30806 PWs)   bands (ev):

   -22.1931 -22.1903 -22.1872 -22.1861 -22.1740 -22.1585 -22.1510 -22.1500
   -22.1430 -22.1412 -13.9526 -13.2141  -7.8601  -7.1315  -4.0871  -3.4620
    -3.1898  -2.4903  -1.7970  -1.5472   0.9181   1.0372   1.7572   2.1925

          k = 0.2667 0.0684 0.0000 ( 30815 PWs)   bands (ev):

   -22.1928 -22.1908 -22.1867 -22.1866 -22.1735 -22.1586 -22.1517 -22.1491
   -22.1436 -22.1408 -13.9349 -13.2083  -7.8496  -7.1355  -4.0679  -3.8721
    -2.8470  -2.7166  -1.7214  -1.4301   0.8194   0.9397   1.7979   2.0915

          k = 0.2667 0.1368 0.0000 ( 30776 PWs)   bands (ev):

   -22.1924 -22.1922 -22.1873 -22.1854 -22.1723 -22.1589 -22.1526 -22.1478
   -22.1448 -22.1401 -13.8828 -13.1928  -7.8224  -7.1522  -4.3567  -4.0148
    -3.1086  -2.5914  -1.4932  -1.4685   0.7755   0.9377   1.3274   2.5680

          k = 0.2667 0.2051 0.0000 ( 30744 PWs)   bands (ev):

   -22.1941 -22.1934 -22.1866 -22.1836 -22.1707 -22.1594 -22.1532 -22.1464
   -22.1461 -22.1396 -13.8002 -13.1736  -7.7897  -7.1940  -4.7466  -3.9446
    -3.4361  -2.5347  -1.8476  -1.2670   0.6888   1.1249   1.3239   2.8505

          k = 0.2667 0.2735 0.0000 ( 30743 PWs)   bands (ev):

   -22.1962 -22.1956 -22.1846 -22.1818 -22.1691 -22.1602 -22.1534 -22.1474
   -22.1449 -22.1393 -13.6939 -13.1595  -7.7656  -7.2724  -4.9906  -3.8967
    -3.6166  -2.6044  -2.3353  -1.3151   0.6364   1.5409   1.6426   2.8276

          k = 0.2667 0.3419 0.0000 ( 30737 PWs)   bands (ev):

   -22.1983 -22.1978 -22.1824 -22.1802 -22.1676 -22.1612 -22.1531 -22.1485
   -22.1435 -22.1393 -13.5732 -13.1613  -7.7550  -7.3860  -5.0615  -3.8674
    -3.7256  -2.7650  -2.6991  -1.6239   0.8678   1.8363   2.1565   2.6360

          k = 0.2667 0.4103 0.0000 ( 30729 PWs)   bands (ev):

   -22.1998 -22.1995 -22.1805 -22.1791 -22.1663 -22.1624 -22.1525 -22.1496
   -22.1421 -22.1395 -13.4501 -13.1889  -7.7437  -7.5148  -4.9620  -4.0116
    -3.7418  -2.9994  -2.7602  -1.9938   1.2046   2.1740   2.2541   2.6669

          k = 0.2667 0.4786 0.0000 ( 30718 PWs)   bands (ev):

   -22.2006 -22.2005 -22.1792 -22.1788 -22.1650 -22.1637 -22.1516 -22.1506
   -22.1410 -22.1401 -13.3377 -13.2480  -7.7071  -7.6294  -4.7207  -4.3808
    -3.5403  -3.2749  -2.5961  -2.3275   1.5660   1.9271   2.5080   2.7451

          k = 0.3333 0.0000 0.0000 ( 30768 PWs)   bands (ev):

   -22.1918 -22.1909 -22.1878 -22.1871 -22.1705 -22.1593 -22.1498 -22.1492
   -22.1439 -22.1426 -13.8211 -13.2526  -8.0214  -7.4625  -3.8943  -3.2301
    -3.0020  -2.4310  -1.8499  -1.1383   0.4744   1.1334   1.3812   1.7284

          k = 0.3333 0.0684 0.0000 ( 30783 PWs)   bands (ev):

   -22.1917 -22.1915 -22.1880 -22.1865 -22.1701 -22.1593 -22.1508 -22.1481
   -22.1446 -22.1419 -13.8046 -13.2454  -8.0002  -7.4526  -3.8781  -3.6611
    -2.7545  -2.6511  -1.6813  -1.1987   0.4818   1.1058   1.3198   1.6844

          k = 0.3333 0.1368 0.0000 ( 30769 PWs)   bands (ev):

   -22.1931 -22.1925 -22.1876 -22.1851 -22.1692 -22.1595 -22.1519 -22.1467
   -22.1459 -22.1410 -13.7564 -13.2260  -7.9394  -7.4269  -4.2097  -3.8348
    -3.0872  -2.6455  -1.5783  -1.3592   0.7149   0.8530   1.3342   2.1874

          k = 0.3333 0.2051 0.0000 ( 30747 PWs)   bands (ev):

   -22.1953 -22.1946 -22.1858 -22.1833 -22.1680 -22.1599 -22.1526 -22.1471
   -22.1453 -22.1403 -13.6807 -13.1996  -7.8482  -7.3963  -4.6954  -3.7894
    -3.5065  -2.6580  -2.1372  -1.3043   0.6115   1.4933   1.5365   2.5310

          k = 0.3333 0.2735 0.0000 ( 30760 PWs)   bands (ev):

   -22.1977 -22.1973 -22.1835 -22.1813 -22.1668 -22.1606 -22.1529 -22.1482
   -22.1439 -22.1398 -13.5844 -13.1749  -7.7427  -7.3769  -5.0599  -3.8842
    -3.7351  -2.7576  -2.6401  -1.6033   0.8899   1.8454   2.1939   2.6369

          k = 0.3333 0.3419 0.0000 ( 30762 PWs)   bands (ev):

   -22.2000 -22.1998 -22.1813 -22.1795 -22.1658 -22.1614 -22.1528 -22.1491
   -22.1426 -22.1395 -13.4774 -13.1623  -7.6447  -7.3827  -5.2598  -4.0861
    -3.9020  -2.9593  -2.8833  -1.9726   1.2591   2.2440   2.5759   2.8595

          k = 0.3333 0.4103 0.0000 ( 30760 PWs)   bands (ev):

   -22.2018 -22.2017 -22.1794 -22.1783 -22.1650 -22.1624 -22.1522 -22.1499
   -22.1414 -22.1395 -13.3714 -13.1719  -7.5696  -7.4156  -5.2704  -4.4024
    -3.9754  -3.2557  -2.8508  -2.2714   1.6029   2.4228   2.6702   3.3092

          k = 0.3333 0.4786 0.0000 ( 30739 PWs)   bands (ev):

   -22.2028 -22.2027 -22.1783 -22.1779 -22.1642 -22.1633 -22.1514 -22.1506
   -22.1405 -22.1398 -13.2789 -13.2105  -7.5139  -7.4635  -5.1003  -4.7898
    -3.8374  -3.5758  -2.7008  -2.5049   1.9140   2.1919   3.0492   3.3105

          k = 0.4000 0.0000 0.0000 ( 30750 PWs)   bands (ev):

   -22.1912 -22.1904 -22.1892 -22.1874 -22.1672 -22.1604 -22.1485 -22.1481
   -22.1449 -22.1440 -13.6801 -13.3201  -8.0989  -7.7459  -3.6644  -3.0035
    -2.9793  -2.4410  -1.7153  -0.8714   0.1133   1.1719   1.2030   1.4170

          k = 0.4000 0.0684 0.0000 ( 30780 PWs)   bands (ev):

   -22.1919 -22.1912 -22.1886 -22.1867 -22.1670 -22.1604 -22.1497 -22.1469
   -22.1458 -22.1431 -13.6652 -13.3113  -8.0726  -7.7268  -3.6538  -3.4196
    -2.8419  -2.6678  -1.4986  -1.1036   0.3320   0.7803   1.4553   1.4566

          k = 0.4000 0.1368 0.0000 ( 30766 PWs)   bands (ev):

   -22.1937 -22.1931 -22.1871 -22.1852 -22.1663 -22.1605 -22.1509 -22.1471
   -22.1455 -22.1421 -13.6220 -13.2865  -7.9952  -7.6720  -3.9832  -3.6317
    -3.1392  -2.8220  -1.6568  -1.3061   0.5251   0.9443   1.5829   1.9569

          k = 0.4000 0.2051 0.0000 ( 30782 PWs)   bands (ev):

   -22.1962 -22.1957 -22.1850 -22.1832 -22.1655 -22.1607 -22.1517 -22.1482
   -22.1442 -22.1411 -13.5549 -13.2510  -7.8729  -7.5895  -4.5243  -3.7183
    -3.5381  -2.8564  -2.2512  -1.5538   0.7972   1.7070   1.8188   2.3190

          k = 0.4000 0.2735 0.0000 ( 30748 PWs)   bands (ev):

   -22.1989 -22.1986 -22.1826 -22.1811 -22.1648 -22.1611 -22.1522 -22.1491
   -22.1429 -22.1404 -13.4713 -13.2129  -7.7182  -7.4930  -4.9738  -4.1183
    -3.6531  -2.9749  -2.6939  -1.9628   1.2433   2.2020   2.2972   2.7070

          k = 0.4000 0.3419 0.0000 ( 30745 PWs)   bands (ev):

   -22.2014 -22.2013 -22.1804 -22.1792 -22.1643 -22.1618 -22.1521 -22.1498
   -22.1418 -22.1399 -13.3811 -13.1827  -7.5538  -7.4016  -5.2859  -4.4797
    -3.8921  -3.2313  -2.8427  -2.2686   1.6167   2.4302   2.6994   3.4062

          k = 0.4000 0.4103 0.0000 ( 30790 PWs)   bands (ev):

   -22.2034 -22.2033 -22.1786 -22.1779 -22.1639 -22.1625 -22.1517 -22.1502
   -22.1408 -22.1396 -13.2960 -13.1706  -7.4141  -7.3351  -5.4207  -4.8122
    -4.0945  -3.5781  -2.7997  -2.4470   1.9120   2.4205   3.1746   3.7871

          k = 0.4000 0.4786 0.0000 ( 30743 PWs)   bands (ev):

   -22.2045 -22.2044 -22.1776 -22.1773 -22.1636 -22.1631 -22.1512 -22.1507
   -22.1401 -22.1397 -13.2276 -13.1846  -7.3301  -7.3076  -5.3589  -5.1305
    -4.0893  -3.8943  -2.6955  -2.5765   2.1484   2.3217   3.5322   3.7536

          k = 0.4667 0.0000 0.0000 ( 30752 PWs)   bands (ev):

   -22.1910 -22.1904 -22.1891 -22.1881 -22.1644 -22.1621 -22.1473 -22.1469
   -22.1460 -22.1455 -13.5417 -13.4182  -8.0779  -7.9570  -3.4148  -3.1748
    -2.7384  -2.5467  -1.4018  -1.0342   0.2555   0.6939   1.1662   1.3585

          k = 0.4667 0.0684 0.0000 ( 30757 PWs)   bands (ev):

   -22.1919 -22.1915 -22.1881 -22.1873 -22.1642 -22.1620 -22.1484 -22.1471
   -22.1457 -22.1444 -13.5287 -13.4074  -8.0506  -7.9322  -3.4186  -3.2678
    -2.9359  -2.7972  -1.2768  -1.1306   0.3143   0.4569   1.5062   1.7053

          k = 0.4667 0.1368 0.0000 ( 30777 PWs)   bands (ev):

   -22.1939 -22.1937 -22.1864 -22.1857 -22.1638 -22.1619 -22.1497 -22.1484
   -22.1443 -22.1432 -13.4914 -13.3764  -7.9702  -7.8596  -3.7156  -3.5163
    -3.2161  -3.0459  -1.5799  -1.4128   0.5915   0.8083   1.8697   2.0036

          k = 0.4667 0.2051 0.0000 ( 30780 PWs)   bands (ev):

   -22.1966 -22.1964 -22.1842 -22.1836 -22.1634 -22.1619 -22.1506 -22.1494
   -22.1431 -22.1421 -13.4344 -13.3303  -7.8413  -7.7445  -4.2657  -3.9660
    -3.3333  -3.0917  -2.1344  -1.8700   1.1217   1.4801   2.1169   2.3253

          k = 0.4667 0.2735 0.0000 ( 30783 PWs)   bands (ev):

   -22.1995 -22.1994 -22.1818 -22.1813 -22.1632 -22.1620 -22.1512 -22.1501
   -22.1420 -22.1411 -13.3655 -13.2771  -7.6739  -7.5978  -4.7576  -4.4516
    -3.4655  -3.2250  -2.5479  -2.2904   1.6100   1.9687   2.5548   2.8040

          k = 0.4667 0.3419 0.0000 ( 30763 PWs)   bands (ev):

   -22.2022 -22.2021 -22.1797 -22.1793 -22.1631 -22.1623 -22.1513 -22.1505
   -22.1410 -22.1404 -13.2947 -13.2269  -7.4874  -7.4381  -5.1415  -4.8566
    -3.7566  -3.5200  -2.6982  -2.5044   1.9319   2.2069   3.1081   3.3969

          k = 0.4667 0.4103 0.0000 ( 30777 PWs)   bands (ev):

   -22.2043 -22.2042 -22.1781 -22.1778 -22.1632 -22.1627 -22.1511 -22.1506
   -22.1403 -22.1399 -13.2334 -13.1905  -7.3166  -7.2947  -5.3831  -5.1636
    -4.0526  -3.8668  -2.6980  -2.5794   2.1545   2.3273   3.5498   3.7739

          k = 0.4667 0.4786 0.0000 ( 30762 PWs)   bands (ev):

   -22.2054 -22.2053 -22.1772 -22.1771 -22.1632 -22.1630 -22.1509 -22.1507
   -22.1398 -22.1397 -13.1920 -13.1773  -7.2110  -7.2065  -5.4573  -5.3711
    -4.1927  -4.1202  -2.6589  -2.6187   2.2992   2.3581   3.7912   3.9162

     the Fermi energy is    -0.8043 ev

!    total energy              =    -413.80389561 Ry
     estimated scf accuracy    <          4.6E-11 Ry
     smearing contrib. (-TS)   =       0.00008573 Ry
     internal energy E=F+TS    =    -413.80398134 Ry

     The total energy is F=E-TS. E is the sum of the following terms:
     one-electron contribution =   -1185.94103800 Ry
     hartree contribution      =     605.15600814 Ry
     xc contribution           =    -154.41253231 Ry
     ewald contribution        =     321.39358084 Ry

     convergence has been achieved in  12 iterations

     negative rho (up, down):  2.765E-05 0.000E+00

     Forces acting on atoms (cartesian axes, Ry/au):

     atom    1 type  1   force =    -0.00028927    0.00000000    0.00019246
     atom    2 type  1   force =    -0.00029616    0.00000000   -0.00019850
     atom    3 type  2   force =     0.00029195    0.00000000    0.00012442
     atom    4 type  2   force =     0.00029348    0.00000000   -0.00011839

     Total force =     0.000670     Total SCF correction =     0.000014

     BFGS Geometry Optimization

     number of scf cycles    =   1
     number of bfgs steps    =   0

     energy   new            =    -413.8038956107 Ry

     new trust radius        =       0.0003565259 bohr
     new conv_thr            =            1.0E-10 Ry


ATOMIC_POSITIONS (crystal)
Sn            0.5839556801        0.7500000000        0.1445613507
Sn            0.0839534397        0.2500000000        0.0065843535
Se            0.0301506744        0.2500000000        0.1423225386
Se            0.5301481798        0.7500000000        0.0088218112



     Writing output data file ./wfc-out/pwscf.save/
     NEW-OLD atomic charge density approx. for the potential

     negative rho (up, down):  2.975E-05 0.000E+00

     total cpu time spent up to now is       64.1 secs

     Self-consistent Calculation

     iteration #  1     ecut=    80.00 Ry     beta= 0.70
     Davidson diagonalization with overlap
     ethr =  1.00E-06,  avg # of iterations =  2.0

     Threshold (ethr) on eigenvalues was too large:
     Diagonalizing with lowered threshold

     Davidson diagonalization with overlap
     ethr =  2.91E-11,  avg # of iterations =  6.8

     negative rho (up, down):  2.805E-05 0.000E+00

     total cpu time spent up to now is       74.8 secs

     total energy              =    -413.80389604 Ry
     estimated scf accuracy    <       0.00000002 Ry

     iteration #  2     ecut=    80.00 Ry     beta= 0.70
     Davidson diagonalization with overlap
     ethr =  5.05E-11,  avg # of iterations =  2.2

     negative rho (up, down):  2.775E-05 0.000E+00

     total cpu time spent up to now is       78.9 secs

     total energy              =    -413.80389603 Ry
     estimated scf accuracy    <       0.00000002 Ry

     iteration #  3     ecut=    80.00 Ry     beta= 0.70
     Davidson diagonalization with overlap
     ethr =  3.81E-11,  avg # of iterations =  2.0

     negative rho (up, down):  2.767E-05 0.000E+00

     total cpu time spent up to now is       83.0 secs

     total energy              =    -413.80389604 Ry
     estimated scf accuracy    <          2.5E-09 Ry

     iteration #  4     ecut=    80.00 Ry     beta= 0.70
     Davidson diagonalization with overlap
     ethr =  6.24E-12,  avg # of iterations =  2.7

     negative rho (up, down):  2.765E-05 0.000E+00

     total cpu time spent up to now is       87.1 secs

     total energy              =    -413.80389604 Ry
     estimated scf accuracy    <          5.1E-09 Ry

     iteration #  5     ecut=    80.00 Ry     beta= 0.70
     Davidson diagonalization with overlap
     ethr =  6.24E-12,  avg # of iterations =  2.2

     negative rho (up, down):  2.765E-05 0.000E+00

     total cpu time spent up to now is       91.1 secs

     End of self-consistent calculation

          k = 0.0000 0.0000 0.0000 ( 30811 PWs)   bands (ev):

   -22.1962 -22.1886 -22.1883 -22.1823 -22.1817 -22.1578 -22.1537 -22.1512
   -22.1416 -22.1382 -14.2202 -13.1977  -7.1746  -6.1636  -4.3464  -3.9700
    -3.9210  -2.7388  -2.7303  -1.4977   0.6179   2.3931   2.8630   3.0172

          k = 0.0000 0.0684 0.0000 ( 30805 PWs)   bands (ev):

   -22.1956 -22.1886 -22.1882 -22.1832 -22.1809 -22.1579 -22.1537 -22.1509
   -22.1418 -22.1382 -14.2004 -13.1938  -7.2401  -6.2418  -4.3477  -3.9591
    -3.8508  -2.7535  -2.6005  -1.5114   0.6302   2.4718   2.8306   2.8796

          k = 0.0000 0.1368 0.0000 ( 30799 PWs)   bands (ev):

   -22.1942 -22.1894 -22.1872 -22.1845 -22.1796 -22.1582 -22.1537 -22.1502
   -22.1427 -22.1383 -14.1422 -13.1840  -7.4138  -6.4598  -4.3259  -3.8873
    -3.6933  -2.7045  -2.3452  -1.5573   0.6730   2.3355   2.6073   2.6348

          k = 0.0000 0.2051 0.0000 ( 30777 PWs)   bands (ev):

   -22.1923 -22.1907 -22.1859 -22.1857 -22.1777 -22.1588 -22.1536 -22.1490
   -22.1439 -22.1385 -14.0489 -13.1753  -7.6423  -6.7727  -4.2474  -3.7513
    -3.4842  -2.6203  -2.0123  -1.6419   0.7605   1.6910   2.1456   2.6222

          k = 0.0000 0.2735 0.0000 ( 30739 PWs)   bands (ev):

   -22.1920 -22.1911 -22.1866 -22.1842 -22.1754 -22.1597 -22.1533 -22.1475
   -22.1453 -22.1388 -13.9262 -13.1777  -7.8679  -7.1251  -4.1063  -3.5626
    -3.2560  -2.5286  -1.7522  -1.6431   0.9066   1.0448   1.6661   2.2735

          k = 0.0000 0.3419 0.0000 ( 30711 PWs)   bands (ev):

   -22.1932 -22.1917 -22.1855 -22.1829 -22.1727 -22.1610 -22.1528 -22.1469
   -22.1459 -22.1393 -13.7829 -13.2032  -8.0419  -7.4687  -3.9125  -3.3407
    -3.0630  -2.4662  -1.8280  -1.2788   0.4664   1.1129   1.2786   1.7597

          k = 0.0000 0.4103 0.0000 ( 30675 PWs)   bands (ev):

   -22.1940 -22.1930 -22.1840 -22.1822 -22.1699 -22.1627 -22.1521 -22.1484
   -22.1442 -22.1401 -13.6307 -13.2617  -8.1297  -7.7657  -3.6819  -3.1570
    -2.9535  -2.4764  -1.7562  -1.0408   0.0976   1.0604   1.1392   1.4410

          k = 0.0000 0.4786 0.0000 ( 30628 PWs)   bands (ev):

   -22.1943 -22.1939 -22.1827 -22.1821 -22.1672 -22.1648 -22.1510 -22.1498
   -22.1425 -22.1411 -13.4838 -13.3569  -8.1123  -7.9873  -3.4379  -3.2239
    -2.7736  -2.5852  -1.4990  -1.1723   0.2017   0.6294   1.0532   1.2485

          k = 0.0667 0.0000 0.0000 ( 30781 PWs)   bands (ev):

   -22.1960 -22.1884 -22.1884 -22.1821 -22.1817 -22.1578 -22.1535 -22.1511
   -22.1416 -22.1384 -14.2022 -13.1964  -7.2426  -6.2464  -4.3441  -3.8995
    -3.8907  -2.7185  -2.6221  -1.5171   0.6308   2.4411   2.7261   2.9738

          k = 0.0667 0.0684 0.0000 ( 30777 PWs)   bands (ev):

   -22.1954 -22.1888 -22.1880 -22.1832 -22.1806 -22.1579 -22.1535 -22.1508
   -22.1420 -22.1384 -14.1826 -13.1924  -7.2974  -6.3153  -4.3388  -4.0527
    -3.6676  -2.8262  -2.4187  -1.5279   0.6448   2.4650   2.5097   2.9563

          k = 0.0667 0.1368 0.0000 ( 30780 PWs)   bands (ev):

   -22.1940 -22.1897 -22.1870 -22.1847 -22.1791 -22.1582 -22.1536 -22.1500
   -22.1428 -22.1384 -14.1247 -13.1824  -7.4467  -6.5108  -4.3077  -4.1150
    -3.4044  -2.8671  -2.1185  -1.5639   0.6917   1.9109   2.6074   2.8806

          k = 0.0667 0.2051 0.0000 ( 30787 PWs)   bands (ev):

   -22.1922 -22.1909 -22.1862 -22.1855 -22.1772 -22.1588 -22.1536 -22.1488
   -22.1440 -22.1385 -14.0320 -13.1731  -7.6505  -6.7987  -4.2269  -4.0754
    -3.1397  -2.8236  -1.8081  -1.6270   0.7825   1.3202   2.3529   2.5059

          k = 0.0667 0.2735 0.0000 ( 30749 PWs)   bands (ev):

   -22.1923 -22.1913 -22.1866 -22.1840 -22.1749 -22.1597 -22.1534 -22.1473
   -22.1455 -22.1388 -13.9102 -13.1746  -7.8578  -7.1308  -4.0886  -3.9438
    -2.9159  -2.7330  -1.6946  -1.5403   0.8154   0.9241   1.8182   2.0280

          k = 0.0667 0.3419 0.0000 ( 30723 PWs)   bands (ev):

   -22.1936 -22.1922 -22.1853 -22.1827 -22.1723 -22.1610 -22.1529 -22.1470
   -22.1457 -22.1393 -13.7683 -13.1987  -8.0208  -7.4599  -3.8999  -3.7405
    -2.8035  -2.6522  -1.6980  -1.3703   0.4854   1.0477   1.3533   1.5916

          k = 0.0667 0.4103 0.0000 ( 30676 PWs)   bands (ev):

   -22.1945 -22.1935 -22.1837 -22.1819 -22.1696 -22.1627 -22.1521 -22.1485
   -22.1440 -22.1400 -13.6178 -13.2554  -8.1034  -7.7473  -3.6772  -3.5014
    -2.8459  -2.6580  -1.5832  -1.3115   0.3406   0.7247   1.3397   1.4788

          k = 0.0667 0.4786 0.0000 ( 30659 PWs)   bands (ev):

   -22.1948 -22.1945 -22.1824 -22.1818 -22.1670 -22.1647 -22.1511 -22.1499
   -22.1424 -22.1410 -13.4729 -13.3483  -8.0853  -7.9630  -3.4532  -3.3411
    -2.9126  -2.7869  -1.4212  -1.3235   0.3000   0.4137   1.3969   1.6917

          k = 0.1333 0.0000 0.0000 ( 30751 PWs)   bands (ev):

   -22.1953 -22.1889 -22.1880 -22.1830 -22.1799 -22.1579 -22.1529 -22.1509
   -22.1419 -22.1390 -14.1492 -13.1945  -7.4190  -6.4721  -4.3144  -3.8011
    -3.7111  -2.6612  -2.3412  -1.5778   0.6756   2.2512   2.5303   2.7415

          k = 0.1333 0.0684 0.0000 ( 30759 PWs)   bands (ev):

   -22.1948 -22.1893 -22.1876 -22.1839 -22.1791 -22.1580 -22.1531 -22.1505
   -22.1423 -22.1390 -14.1299 -13.1901  -7.4500  -6.5190  -4.2991  -4.0848
    -3.3855  -2.8484  -2.1031  -1.5783   0.6939   1.8995   2.5382   2.9279

          k = 0.1333 0.1368 0.0000 ( 30782 PWs)   bands (ev):

   -22.1935 -22.1903 -22.1865 -22.1854 -22.1775 -22.1583 -22.1535 -22.1495
   -22.1432 -22.1388 -14.0731 -13.1792  -7.5404  -6.6583  -4.3168  -4.2517
    -3.0393  -3.0338  -1.7800  -1.5778   0.7499   1.3663   2.3355   3.0352

          k = 0.1333 0.2051 0.0000 ( 30761 PWs)   bands (ev):

   -22.1921 -22.1917 -22.1867 -22.1850 -22.1756 -22.1589 -22.1537 -22.1482
   -22.1445 -22.1388 -13.9823 -13.1682  -7.6773  -6.8787  -4.4242  -4.1670
    -3.1158  -2.7576  -1.5682  -1.5628   0.8420   0.9398   1.8142   2.8940

          k = 0.1333 0.2735 0.0000 ( 30748 PWs)   bands (ev):

   -22.1933 -22.1922 -22.1863 -22.1834 -22.1735 -22.1598 -22.1535 -22.1467
   -22.1459 -22.1389 -13.8635 -13.1668  -7.8308  -7.1515  -4.3994  -4.0387
    -3.0918  -2.6244  -1.5731  -1.5056   0.7673   0.9078   1.3436   2.5320

          k = 0.1333 0.3419 0.0000 ( 30731 PWs)   bands (ev):

   -22.1947 -22.1936 -22.1846 -22.1820 -22.1711 -22.1610 -22.1531 -22.1474
   -22.1451 -22.1392 -13.7256 -13.1868  -7.9597  -7.4366  -4.2574  -3.8679
    -3.0329  -2.6607  -1.7475  -1.4226   0.6728   0.8386   1.3496   2.1287

          k = 0.1333 0.4103 0.0000 ( 30673 PWs)   bands (ev):

   -22.1958 -22.1950 -22.1828 -22.1812 -22.1688 -22.1626 -22.1524 -22.1488
   -22.1435 -22.1399 -13.5804 -13.2378  -8.0259  -7.6942  -4.0258  -3.6748
    -3.0549  -2.8181  -1.8635  -1.4220   0.4818   0.9251   1.5969   1.8831

          k = 0.1333 0.4786 0.0000 ( 30679 PWs)   bands (ev):

   -22.1962 -22.1960 -22.1816 -22.1810 -22.1665 -22.1644 -22.1513 -22.1501
   -22.1420 -22.1408 -13.4418 -13.3241  -8.0053  -7.8914  -3.7497  -3.5657
    -3.1457  -3.0228  -1.7722  -1.5705   0.5476   0.7730   1.8962   1.9833

          k = 0.2000 0.0000 0.0000 ( 30734 PWs)   bands (ev):

   -22.1944 -22.1896 -22.1876 -22.1844 -22.1773 -22.1581 -22.1521 -22.1506
   -22.1424 -22.1400 -14.0641 -13.1975  -7.6443  -6.7863  -4.2298  -3.6558
    -3.4551  -2.5779  -1.9642  -1.6791   0.7669   1.6528   2.2370   2.4898

          k = 0.2000 0.0684 0.0000 ( 30771 PWs)   bands (ev):

   -22.1939 -22.1901 -22.1871 -22.1851 -22.1766 -22.1582 -22.1525 -22.1500
   -22.1429 -22.1398 -14.0454 -13.1926  -7.6514  -6.8095  -4.2102  -4.0198
    -3.0899  -2.7995  -1.7534  -1.6560   0.7891   1.3188   2.2930   2.5504

          k = 0.2000 0.1368 0.0000 ( 30761 PWs)   bands (ev):

   -22.1929 -22.1912 -22.1864 -22.1859 -22.1752 -22.1586 -22.1532 -22.1488
   -22.1439 -22.1394 -13.9905 -13.1799  -7.6764  -6.8832  -4.3977  -4.1547
    -3.1134  -2.7302  -1.5716  -1.5256   0.8486   0.9432   1.8045   2.9167

          k = 0.2000 0.2051 0.0000 ( 30739 PWs)   bands (ev):

   -22.1928 -22.1925 -22.1870 -22.1843 -22.1734 -22.1591 -22.1536 -22.1474
   -22.1452 -22.1391 -13.9030 -13.1657  -7.7257  -7.0136  -4.6564  -4.0715
    -3.3251  -2.5454  -1.5848  -1.4165   0.8755   0.8756   1.3529   3.0448

          k = 0.2000 0.2735 0.0000 ( 30722 PWs)   bands (ev):

   -22.1947 -22.1938 -22.1856 -22.1826 -22.1714 -22.1600 -22.1536 -22.1466
   -22.1459 -22.1391 -13.7893 -13.1593  -7.7962  -7.1962  -4.7629  -3.9675
    -3.4037  -2.5422  -1.9082  -1.2891   0.6716   1.1106   1.3277   2.8383

          k = 0.2000 0.3419 0.0000 ( 30734 PWs)   bands (ev):

   -22.1964 -22.1956 -22.1835 -22.1811 -22.1695 -22.1611 -22.1533 -22.1480
   -22.1444 -22.1392 -13.6584 -13.1719  -7.8663  -7.4077  -4.7147  -3.8394
    -3.4133  -2.6641  -2.2642  -1.3587   0.5768   1.4552   1.5364   2.5170

          k = 0.2000 0.4103 0.0000 ( 30716 PWs)   bands (ev):

   -22.1977 -22.1972 -22.1817 -22.1801 -22.1676 -22.1625 -22.1525 -22.1492
   -22.1429 -22.1397 -13.5222 -13.2133  -7.9023  -7.6129  -4.5335  -3.7367
    -3.4624  -2.8632  -2.4087  -1.6341   0.7436   1.6447   1.8151   2.3144

          k = 0.2000 0.4786 0.0000 ( 30687 PWs)   bands (ev):

   -22.1983 -22.1981 -22.1804 -22.1799 -22.1658 -22.1641 -22.1515 -22.1504
   -22.1415 -22.1405 -13.3944 -13.2883  -7.8763  -7.7771  -4.2542  -3.9324
    -3.3381  -3.1020  -2.2687  -1.9748   1.0571   1.4133   2.1165   2.3351

          k = 0.2667 0.0000 0.0000 ( 30806 PWs)   bands (ev):

   -22.1932 -22.1903 -22.1872 -22.1861 -22.1740 -22.1586 -22.1510 -22.1500
   -22.1431 -22.1412 -13.9521 -13.2136  -7.8599  -7.1315  -4.0868  -3.4614
    -3.1895  -2.4898  -1.7969  -1.5473   0.9177   1.0376   1.7571   2.1931

          k = 0.2667 0.0684 0.0000 ( 30815 PWs)   bands (ev):

   -22.1928 -22.1909 -22.1867 -22.1866 -22.1735 -22.1587 -22.1518 -22.1492
   -22.1437 -22.1408 -13.9343 -13.2078  -7.8494  -7.1355  -4.0677  -3.8716
    -2.8466  -2.7161  -1.7213  -1.4300   0.8195   0.9394   1.7981   2.0916

          k = 0.2667 0.1368 0.0000 ( 30776 PWs)   bands (ev):

   -22.1924 -22.1922 -22.1873 -22.1854 -22.1723 -22.1589 -22.1527 -22.1478
   -22.1448 -22.1402 -13.8822 -13.1924  -7.8222  -7.1522  -4.3562  -4.0145
    -3.1082  -2.5910  -1.4930  -1.4684   0.7755   0.9374   1.3273   2.5680

          k = 0.2667 0.2051 0.0000 ( 30744 PWs)   bands (ev):

   -22.1941 -22.1935 -22.1866 -22.1837 -22.1707 -22.1594 -22.1533 -22.1464
   -22.1461 -22.1397 -13.7997 -13.1732  -7.7895  -7.1939  -4.7462  -3.9443
    -3.4359  -2.5343  -1.8475  -1.2669   0.6886   1.1248   1.3236   2.8502

          k = 0.2667 0.2735 0.0000 ( 30743 PWs)   bands (ev):

   -22.1962 -22.1956 -22.1846 -22.1818 -22.1691 -22.1602 -22.1534 -22.1474
   -22.1450 -22.1394 -13.6934 -13.1591  -7.7653  -7.2723  -4.9903  -3.8962
    -3.6164  -2.6040  -2.3353  -1.3150   0.6362   1.5406   1.6425   2.8273

          k = 0.2667 0.3419 0.0000 ( 30737 PWs)   bands (ev):

   -22.1983 -22.1978 -22.1824 -22.1802 -22.1676 -22.1612 -22.1532 -22.1485
   -22.1435 -22.1393 -13.5727 -13.1609  -7.7546  -7.3858  -5.0612  -3.8669
    -3.7253  -2.7646  -2.6993  -1.6240   0.8676   1.8361   2.1563   2.6357

          k = 0.2667 0.4103 0.0000 ( 30729 PWs)   bands (ev):

   -22.1998 -22.1995 -22.1805 -22.1791 -22.1663 -22.1624 -22.1525 -22.1496
   -22.1422 -22.1396 -13.4496 -13.1885  -7.7433  -7.5145  -4.9617  -4.0113
    -3.7413  -2.9989  -2.7604  -1.9940   1.2045   2.1738   2.2540   2.6666

          k = 0.2667 0.4786 0.0000 ( 30718 PWs)   bands (ev):

   -22.2006 -22.2005 -22.1793 -22.1788 -22.1650 -22.1637 -22.1516 -22.1506
   -22.1410 -22.1401 -13.3372 -13.2476  -7.7067  -7.6290  -4.7205  -4.3806
    -3.5398  -3.2745  -2.5963  -2.3277   1.5660   1.9271   2.5079   2.7448

          k = 0.3333 0.0000 0.0000 ( 30768 PWs)   bands (ev):

   -22.1918 -22.1909 -22.1878 -22.1871 -22.1705 -22.1593 -22.1498 -22.1492
   -22.1439 -22.1426 -13.8206 -13.2521  -8.0213  -7.4625  -3.8941  -3.2294
    -3.0017  -2.4304  -1.8497  -1.1382   0.4747   1.1330   1.3810   1.7287

          k = 0.3333 0.0684 0.0000 ( 30783 PWs)   bands (ev):

   -22.1917 -22.1915 -22.1880 -22.1865 -22.1702 -22.1593 -22.1508 -22.1481
   -22.1447 -22.1420 -13.8040 -13.2450  -8.0001  -7.4527  -3.8779  -3.6605
    -2.7541  -2.6505  -1.6811  -1.1987   0.4820   1.1055   1.3198   1.6843

          k = 0.3333 0.1368 0.0000 ( 30769 PWs)   bands (ev):

   -22.1931 -22.1925 -22.1876 -22.1852 -22.1692 -22.1595 -22.1519 -22.1468
   -22.1459 -22.1411 -13.7558 -13.2255  -7.9393  -7.4269  -4.2092  -3.8345
    -3.0866  -2.6452  -1.5783  -1.3590   0.7147   0.8531   1.3340   2.1873

          k = 0.3333 0.2051 0.0000 ( 30747 PWs)   bands (ev):

   -22.1953 -22.1947 -22.1859 -22.1833 -22.1680 -22.1599 -22.1527 -22.1472
   -22.1454 -22.1404 -13.6801 -13.1991  -7.8480  -7.3962  -4.6949  -3.7890
    -3.5060  -2.6576  -2.1373  -1.3042   0.6113   1.4933   1.5362   2.5307

          k = 0.3333 0.2735 0.0000 ( 30760 PWs)   bands (ev):

   -22.1977 -22.1973 -22.1836 -22.1813 -22.1668 -22.1606 -22.1530 -22.1483
   -22.1440 -22.1398 -13.5839 -13.1744  -7.7425  -7.3767  -5.0595  -3.8837
    -3.7348  -2.7572  -2.6404  -1.6034   0.8898   1.8453   2.1938   2.6365

          k = 0.3333 0.3419 0.0000 ( 30762 PWs)   bands (ev):

   -22.2000 -22.1998 -22.1813 -22.1795 -22.1658 -22.1615 -22.1528 -22.1492
   -22.1427 -22.1395 -13.4769 -13.1619  -7.6443  -7.3824  -5.2595  -4.0856
    -3.9017  -2.9589  -2.8836  -1.9728   1.2590   2.2439   2.5757   2.8593

          k = 0.3333 0.4103 0.0000 ( 30760 PWs)   bands (ev):

   -22.2018 -22.2017 -22.1795 -22.1783 -22.1650 -22.1624 -22.1522 -22.1499
   -22.1415 -22.1395 -13.3709 -13.1715  -7.5691  -7.4153  -5.2701  -4.4021
    -3.9751  -3.2553  -2.8510  -2.2716   1.6028   2.4226   2.6701   3.3090

          k = 0.3333 0.4786 0.0000 ( 30739 PWs)   bands (ev):

   -22.2028 -22.2027 -22.1783 -22.1779 -22.1642 -22.1634 -22.1515 -22.1507
   -22.1405 -22.1399 -13.2784 -13.2101  -7.5134  -7.4631  -5.1001  -4.7896
    -3.8371  -3.5755  -2.7010  -2.5051   1.9139   2.1918   3.0491   3.3104

          k = 0.4000 0.0000 0.0000 ( 30750 PWs)   bands (ev):

   -22.1912 -22.1904 -22.1892 -22.1874 -22.1672 -22.1604 -22.1486 -22.1482
   -22.1449 -22.1441 -13.6796 -13.3197  -8.0989  -7.7459  -3.6642  -3.0032
    -2.9786  -2.4403  -1.7150  -0.8712   0.1134   1.1716   1.2031   1.4166

          k = 0.4000 0.0684 0.0000 ( 30780 PWs)   bands (ev):

   -22.1919 -22.1912 -22.1886 -22.1868 -22.1670 -22.1604 -22.1497 -22.1470
   -22.1459 -22.1432 -13.6647 -13.3108  -8.0725  -7.7268  -3.6535  -3.4191
    -2.8415  -2.6671  -1.4983  -1.1035   0.3322   0.7802   1.4551   1.4563

          k = 0.4000 0.1368 0.0000 ( 30766 PWs)   bands (ev):

   -22.1937 -22.1931 -22.1871 -22.1853 -22.1663 -22.1605 -22.1509 -22.1471
   -22.1456 -22.1421 -13.6215 -13.2860  -7.9952  -7.6720  -3.9826  -3.6314
    -3.1385  -2.8216  -1.6570  -1.3059   0.5251   0.9445   1.5826   1.9566

          k = 0.4000 0.2051 0.0000 ( 30782 PWs)   bands (ev):

   -22.1962 -22.1957 -22.1850 -22.1832 -22.1655 -22.1607 -22.1518 -22.1483
   -22.1442 -22.1412 -13.5544 -13.2505  -7.8728  -7.5894  -4.5238  -3.7177
    -3.5377  -2.8560  -2.2515  -1.5539   0.7972   1.7072   1.8186   2.3187

          k = 0.4000 0.2735 0.0000 ( 30748 PWs)   bands (ev):

   -22.1989 -22.1986 -22.1826 -22.1811 -22.1648 -22.1612 -22.1522 -22.1492
   -22.1430 -22.1404 -13.4708 -13.2125  -7.7179  -7.4928  -4.9734  -4.1177
    -3.6528  -2.9745  -2.6942  -1.9630   1.2433   2.2020   2.2971   2.7070

          k = 0.4000 0.3419 0.0000 ( 30745 PWs)   bands (ev):

   -22.2014 -22.2013 -22.1804 -22.1792 -22.1643 -22.1618 -22.1521 -22.1498
   -22.1418 -22.1399 -13.3806 -13.1822  -7.5535  -7.4014  -5.2856  -4.4792
    -3.8919  -3.2309  -2.8429  -2.2688   1.6166   2.4299   2.6994   3.4063

          k = 0.4000 0.4103 0.0000 ( 30790 PWs)   bands (ev):

   -22.2034 -22.2033 -22.1786 -22.1779 -22.1639 -22.1625 -22.1518 -22.1503
   -22.1408 -22.1397 -13.2956 -13.1701  -7.4136  -7.3347  -5.4205  -4.8120
    -4.0942  -3.5779  -2.7999  -2.4472   1.9119   2.4204   3.1746   3.7872

          k = 0.4000 0.4786 0.0000 ( 30743 PWs)   bands (ev):

   -22.2045 -22.2044 -22.1776 -22.1773 -22.1636 -22.1631 -22.1512 -22.1507
   -22.1401 -22.1397 -13.2272 -13.1842  -7.3296  -7.3071  -5.3588  -5.1304
    -4.0890  -3.8940  -2.6956  -2.5766   2.1483   2.3216   3.5323   3.7535

          k = 0.4667 0.0000 0.0000 ( 30752 PWs)   bands (ev):

   -22.1910 -22.1904 -22.1891 -22.1881 -22.1644 -22.1621 -22.1473 -22.1469
   -22.1461 -22.1455 -13.5411 -13.4177  -8.0779  -7.9570  -3.4146  -3.1745
    -2.7377  -2.5459  -1.4015  -1.0338   0.2556   0.6940   1.1659   1.3582

          k = 0.4667 0.0684 0.0000 ( 30757 PWs)   bands (ev):

   -22.1919 -22.1915 -22.1881 -22.1873 -22.1642 -22.1621 -22.1485 -22.1472
   -22.1457 -22.1444 -13.5282 -13.4069  -8.0506  -7.9322  -3.4183  -3.2674
    -2.9353  -2.7965  -1.2766  -1.1305   0.3144   0.4569   1.5059   1.7051

          k = 0.4667 0.1368 0.0000 ( 30777 PWs)   bands (ev):

   -22.1939 -22.1937 -22.1864 -22.1857 -22.1639 -22.1619 -22.1497 -22.1484
   -22.1444 -22.1432 -13.4909 -13.3759  -7.9701  -7.8595  -3.7150  -3.5158
    -3.2156  -3.0455  -1.5800  -1.4128   0.5916   0.8086   1.8695   2.0034

          k = 0.4667 0.2051 0.0000 ( 30780 PWs)   bands (ev):

   -22.1966 -22.1964 -22.1842 -22.1836 -22.1635 -22.1619 -22.1507 -22.1495
   -22.1431 -22.1421 -13.4339 -13.3298  -7.8412  -7.7444  -4.2651  -3.9654
    -3.3329  -3.0914  -2.1347  -1.8702   1.1218   1.4802   2.1168   2.3251

          k = 0.4667 0.2735 0.0000 ( 30783 PWs)   bands (ev):

   -22.1995 -22.1994 -22.1819 -22.1813 -22.1632 -22.1620 -22.1512 -22.1502
   -22.1420 -22.1412 -13.3650 -13.2766  -7.6737  -7.5976  -4.7571  -4.4511
    -3.4652  -3.2246  -2.5482  -2.2907   1.6099   1.9686   2.5549   2.8042

          k = 0.4667 0.3419 0.0000 ( 30763 PWs)   bands (ev):

   -22.2022 -22.2021 -22.1797 -22.1793 -22.1632 -22.1623 -22.1513 -22.1505
   -22.1411 -22.1404 -13.2942 -13.2264  -7.4871  -7.4378  -5.1411  -4.8562
    -3.7564  -3.5198  -2.6984  -2.5046   1.9317   2.2067   3.1083   3.3971

          k = 0.4667 0.4103 0.0000 ( 30777 PWs)   bands (ev):

   -22.2043 -22.2042 -22.1781 -22.1778 -22.1632 -22.1627 -22.1512 -22.1507
   -22.1403 -22.1399 -13.2329 -13.1901  -7.3162  -7.2942  -5.3829  -5.1634
    -4.0524  -3.8666  -2.6981  -2.5795   2.1543   2.3271   3.5499   3.7740

          k = 0.4667 0.4786 0.0000 ( 30762 PWs)   bands (ev):

   -22.2054 -22.2054 -22.1772 -22.1771 -22.1632 -22.1630 -22.1509 -22.1508
   -22.1398 -22.1397 -13.1915 -13.1768  -7.2105  -7.2060  -5.4573  -5.3710
    -4.1925  -4.1199  -2.6590  -2.6188   2.2991   2.3581   3.7912   3.9160

     the Fermi energy is    -0.8040 ev

!    total energy              =    -413.80389604 Ry
     estimated scf accuracy    <          5.7E-11 Ry
     smearing contrib. (-TS)   =       0.00008549 Ry
     internal energy E=F+TS    =    -413.80398152 Ry

     The total energy is F=E-TS. E is the sum of the following terms:
     one-electron contribution =   -1185.90184127 Ry
     hartree contribution      =     605.13649379 Ry
     xc contribution           =    -154.41238312 Ry
     ewald contribution        =     321.37374908 Ry

     convergence has been achieved in   5 iterations

     negative rho (up, down):  2.765E-05 0.000E+00

     Forces acting on atoms (cartesian axes, Ry/au):

     atom    1 type  1   force =    -0.00027744    0.00000000    0.00016716
     atom    2 type  1   force =    -0.00027792    0.00000000   -0.00016778
     atom    3 type  2   force =     0.00027717    0.00000000    0.00009521
     atom    4 type  2   force =     0.00027818    0.00000000   -0.00009458

     Total force =     0.000618     Total SCF correction =     0.000026

     number of scf cycles    =   2
     number of bfgs steps    =   1

     energy   old            =    -413.8038956107 Ry
     energy   new            =    -413.8038960387 Ry

     CASE: energy  _new < energy  _old


     WARNING: bfgs curvature condition failed, Theta= 0.868
     new trust radius        =       0.0003921784 bohr
     new conv_thr            =            1.0E-12 Ry


ATOMIC_POSITIONS (crystal)
Sn            0.5839159154        0.7500000000        0.1445667677
Sn            0.0839133675        0.2500000000        0.0065788726
Se            0.0301905115        0.2500000000        0.1423257453
Se            0.5301881797        0.7500000000        0.0088186683



     Writing output data file ./wfc-out/pwscf.save/
     NEW-OLD atomic charge density approx. for the potential

     negative rho (up, down):  3.001E-05 0.000E+00

     total cpu time spent up to now is       94.7 secs

     Self-consistent Calculation

     iteration #  1     ecut=    80.00 Ry     beta= 0.70
     Davidson diagonalization with overlap
     ethr =  1.00E-06,  avg # of iterations =  2.0

     Threshold (ethr) on eigenvalues was too large:
     Diagonalizing with lowered threshold

     Davidson diagonalization with overlap
     ethr =  3.16E-11,  avg # of iterations =  6.9

     negative rho (up, down):  2.809E-05 0.000E+00

     total cpu time spent up to now is      105.7 secs

     total energy              =    -413.80389647 Ry
     estimated scf accuracy    <       0.00000002 Ry

     iteration #  2     ecut=    80.00 Ry     beta= 0.70
     Davidson diagonalization with overlap
     ethr =  5.47E-11,  avg # of iterations =  2.1

     negative rho (up, down):  2.775E-05 0.000E+00

     total cpu time spent up to now is      109.8 secs

     total energy              =    -413.80389647 Ry
     estimated scf accuracy    <       0.00000002 Ry

     iteration #  3     ecut=    80.00 Ry     beta= 0.70
     Davidson diagonalization with overlap
     ethr =  4.79E-11,  avg # of iterations =  2.0

     negative rho (up, down):  2.768E-05 0.000E+00

     total cpu time spent up to now is      113.8 secs

     total energy              =    -413.80389647 Ry
     estimated scf accuracy    <       0.00000001 Ry

     iteration #  4     ecut=    80.00 Ry     beta= 0.70
     Davidson diagonalization with overlap
     ethr =  2.57E-11,  avg # of iterations =  2.1

     negative rho (up, down):  2.766E-05 0.000E+00

     total cpu time spent up to now is      117.8 secs

     total energy              =    -413.80389647 Ry
     estimated scf accuracy    <          3.9E-09 Ry

     iteration #  5     ecut=    80.00 Ry     beta= 0.70
     Davidson diagonalization with overlap
     ethr =  9.84E-12,  avg # of iterations =  2.0

     negative rho (up, down):  2.765E-05 0.000E+00

     total cpu time spent up to now is      121.7 secs

     total energy              =    -413.80389647 Ry
     estimated scf accuracy    <          3.9E-11 Ry

     iteration #  6     ecut=    80.00 Ry     beta= 0.70
     Davidson diagonalization with overlap
     ethr =  1.00E-13,  avg # of iterations =  3.7

     negative rho (up, down):  2.765E-05 0.000E+00

     total cpu time spent up to now is      126.3 secs

     total energy              =    -413.80389647 Ry
     estimated scf accuracy    <          9.9E-12 Ry

     iteration #  7     ecut=    80.00 Ry     beta= 0.70
     Davidson diagonalization with overlap
     ethr =  1.00E-13,  avg # of iterations =  1.1

     negative rho (up, down):  2.765E-05 0.000E+00

     total cpu time spent up to now is      129.9 secs

     End of self-consistent calculation

          k = 0.0000 0.0000 0.0000 ( 30811 PWs)   bands (ev):

   -22.1962 -22.1886 -22.1883 -22.1824 -22.1818 -22.1578 -22.1537 -22.1513
   -22.1416 -22.1383 -14.2195 -13.1973  -7.1743  -6.1635  -4.3461  -3.9699
    -3.9203  -2.7383  -2.7305  -1.4977   0.6177   2.3945   2.8632   3.0178

          k = 0.0000 0.0684 0.0000 ( 30805 PWs)   bands (ev):

   -22.1957 -22.1886 -22.1882 -22.1832 -22.1809 -22.1579 -22.1537 -22.1510
   -22.1419 -22.1383 -14.1998 -13.1933  -7.2398  -6.2417  -4.3475  -3.9588
    -3.8503  -2.7534  -2.6004  -1.5113   0.6300   2.4731   2.8314   2.8795

          k = 0.0000 0.1368 0.0000 ( 30799 PWs)   bands (ev):

   -22.1942 -22.1895 -22.1872 -22.1845 -22.1796 -22.1583 -22.1537 -22.1502
   -22.1427 -22.1384 -14.1416 -13.1836  -7.4134  -6.4597  -4.3255  -3.8869
    -3.6928  -2.7044  -2.3451  -1.5573   0.6728   2.3357   2.6076   2.6359

          k = 0.0000 0.2051 0.0000 ( 30777 PWs)   bands (ev):

   -22.1923 -22.1907 -22.1859 -22.1858 -22.1778 -22.1589 -22.1537 -22.1491
   -22.1439 -22.1385 -14.0482 -13.1748  -7.6419  -6.7726  -4.2470  -3.7509
    -3.4838  -2.6201  -2.0122  -1.6418   0.7603   1.6910   2.1456   2.6228

          k = 0.0000 0.2735 0.0000 ( 30739 PWs)   bands (ev):

   -22.1920 -22.1911 -22.1866 -22.1842 -22.1755 -22.1598 -22.1534 -22.1476
   -22.1454 -22.1388 -13.9256 -13.1773  -7.8675  -7.1250  -4.1058  -3.5621
    -3.2555  -2.5283  -1.7522  -1.6430   0.9063   1.0447   1.6659   2.2735

          k = 0.0000 0.3419 0.0000 ( 30711 PWs)   bands (ev):

   -22.1933 -22.1917 -22.1856 -22.1830 -22.1728 -22.1610 -22.1529 -22.1470
   -22.1459 -22.1394 -13.7823 -13.2028  -8.0415  -7.4684  -3.9120  -3.3401
    -3.0625  -2.4658  -1.8280  -1.2786   0.4662   1.1127   1.2783   1.7595

          k = 0.0000 0.4103 0.0000 ( 30675 PWs)   bands (ev):

   -22.1941 -22.1930 -22.1840 -22.1823 -22.1699 -22.1627 -22.1521 -22.1485
   -22.1442 -22.1401 -13.6302 -13.2613  -8.1293  -7.7654  -3.6815  -3.1563
    -2.9531  -2.4759  -1.7561  -1.0405   0.0972   1.0599   1.1390   1.4406

          k = 0.0000 0.4786 0.0000 ( 30628 PWs)   bands (ev):

   -22.1943 -22.1940 -22.1828 -22.1822 -22.1672 -22.1648 -22.1511 -22.1499
   -22.1426 -22.1412 -13.4832 -13.3564  -8.1119  -7.9869  -3.4374  -3.2233
    -2.7731  -2.5846  -1.4988  -1.1720   0.2013   0.6291   1.0526   1.2480

          k = 0.0667 0.0000 0.0000 ( 30781 PWs)   bands (ev):

   -22.1960 -22.1885 -22.1885 -22.1821 -22.1817 -22.1578 -22.1535 -22.1512
   -22.1417 -22.1385 -14.2016 -13.1960  -7.2423  -6.2463  -4.3439  -3.8993
    -3.8901  -2.7180  -2.6222  -1.5171   0.6305   2.4425   2.7268   2.9738

          k = 0.0667 0.0684 0.0000 ( 30777 PWs)   bands (ev):

   -22.1955 -22.1888 -22.1881 -22.1833 -22.1806 -22.1580 -22.1536 -22.1509
   -22.1420 -22.1385 -14.1819 -13.1919  -7.2971  -6.3152  -4.3385  -4.0523
    -3.6671  -2.8259  -2.4185  -1.5279   0.6446   2.4654   2.5110   2.9562

          k = 0.0667 0.1368 0.0000 ( 30780 PWs)   bands (ev):

   -22.1940 -22.1897 -22.1870 -22.1848 -22.1791 -22.1583 -22.1537 -22.1501
   -22.1429 -22.1385 -14.1240 -13.1819  -7.4463  -6.5107  -4.3073  -4.1146
    -3.4039  -2.8669  -2.1184  -1.5638   0.6915   1.9110   2.6084   2.8808

          k = 0.0667 0.2051 0.0000 ( 30787 PWs)   bands (ev):

   -22.1922 -22.1910 -22.1862 -22.1856 -22.1772 -22.1589 -22.1537 -22.1489
   -22.1441 -22.1386 -14.0313 -13.1726  -7.6501  -6.7986  -4.2265  -4.0750
    -3.1392  -2.8234  -1.8079  -1.6269   0.7822   1.3201   2.3530   2.5060

          k = 0.0667 0.2735 0.0000 ( 30749 PWs)   bands (ev):

   -22.1924 -22.1914 -22.1866 -22.1840 -22.1749 -22.1598 -22.1535 -22.1474
   -22.1456 -22.1389 -13.9096 -13.1741  -7.8574  -7.1306  -4.0882  -3.9434
    -2.9154  -2.7328  -1.6945  -1.5400   0.8151   0.9239   1.8180   2.0279

          k = 0.0667 0.3419 0.0000 ( 30723 PWs)   bands (ev):

   -22.1937 -22.1923 -22.1853 -22.1827 -22.1723 -22.1610 -22.1530 -22.1471
   -22.1457 -22.1393 -13.7677 -13.1983  -8.0204  -7.4596  -3.8995  -3.7400
    -2.8030  -2.6518  -1.6979  -1.3700   0.4851   1.0475   1.3528   1.5914

          k = 0.0667 0.4103 0.0000 ( 30676 PWs)   bands (ev):

   -22.1945 -22.1936 -22.1837 -22.1820 -22.1696 -22.1627 -22.1522 -22.1486
   -22.1441 -22.1401 -13.6172 -13.2549  -8.1030  -7.7470  -3.6767  -3.5009
    -2.8454  -2.6575  -1.5831  -1.3113   0.3403   0.7243   1.3393   1.4785

          k = 0.0667 0.4786 0.0000 ( 30659 PWs)   bands (ev):

   -22.1948 -22.1945 -22.1825 -22.1819 -22.1671 -22.1647 -22.1512 -22.1500
   -22.1425 -22.1411 -13.4724 -13.3478  -8.0849  -7.9626  -3.4527  -3.3405
    -2.9122  -2.7864  -1.4209  -1.3233   0.2996   0.4133   1.3965   1.6913

          k = 0.1333 0.0000 0.0000 ( 30751 PWs)   bands (ev):

   -22.1954 -22.1890 -22.1881 -22.1830 -22.1800 -22.1580 -22.1530 -22.1510
   -22.1420 -22.1391 -14.1486 -13.1941  -7.4188  -6.4720  -4.3141  -3.8004
    -3.7108  -2.6607  -2.3413  -1.5777   0.6754   2.2518   2.5316   2.7416

          k = 0.1333 0.0684 0.0000 ( 30759 PWs)   bands (ev):

   -22.1949 -22.1893 -22.1877 -22.1839 -22.1792 -22.1581 -22.1532 -22.1506
   -22.1424 -22.1390 -14.1293 -13.1897  -7.4497  -6.5190  -4.2988  -4.0843
    -3.3851  -2.8480  -2.1029  -1.5782   0.6936   1.8997   2.5394   2.9280

          k = 0.1333 0.1368 0.0000 ( 30782 PWs)   bands (ev):

   -22.1936 -22.1903 -22.1866 -22.1855 -22.1776 -22.1584 -22.1535 -22.1496
   -22.1433 -22.1389 -14.0725 -13.1788  -7.5400  -6.6583  -4.3163  -4.2514
    -3.0391  -3.0333  -1.7798  -1.5777   0.7497   1.3663   2.3360   3.0353

          k = 0.1333 0.2051 0.0000 ( 30761 PWs)   bands (ev):

   -22.1922 -22.1917 -22.1868 -22.1850 -22.1757 -22.1590 -22.1537 -22.1483
   -22.1446 -22.1388 -13.9816 -13.1677  -7.6769  -6.8786  -4.4238  -4.1666
    -3.1156  -2.7571  -1.5679  -1.5627   0.8417   0.9397   1.8141   2.8941

          k = 0.1333 0.2735 0.0000 ( 30748 PWs)   bands (ev):

   -22.1933 -22.1923 -22.1863 -22.1834 -22.1735 -22.1599 -22.1536 -22.1468
   -22.1460 -22.1390 -13.8629 -13.1664  -7.8304  -7.1513  -4.3990  -4.0383
    -3.0916  -2.6239  -1.5728  -1.5054   0.7670   0.9076   1.3433   2.5320

          k = 0.1333 0.3419 0.0000 ( 30731 PWs)   bands (ev):

   -22.1948 -22.1937 -22.1846 -22.1821 -22.1712 -22.1611 -22.1532 -22.1475
   -22.1452 -22.1393 -13.7250 -13.1863  -7.9593  -7.4364  -4.2570  -3.8675
    -3.0326  -2.6602  -1.7473  -1.4224   0.6725   0.8383   1.3493   2.1285

          k = 0.1333 0.4103 0.0000 ( 30673 PWs)   bands (ev):

   -22.1958 -22.1951 -22.1829 -22.1812 -22.1688 -22.1626 -22.1524 -22.1489
   -22.1436 -22.1399 -13.5798 -13.2373  -8.0255  -7.6939  -4.0253  -3.6743
    -3.0545  -2.8176  -1.8634  -1.4218   0.4814   0.9249   1.5966   1.8828

          k = 0.1333 0.4786 0.0000 ( 30679 PWs)   bands (ev):

   -22.1963 -22.1960 -22.1816 -22.1811 -22.1665 -22.1645 -22.1514 -22.1502
   -22.1421 -22.1409 -13.4413 -13.3236  -8.0049  -7.8911  -3.7492  -3.5652
    -3.1453  -3.0224  -1.7721  -1.5704   0.5473   0.7728   1.8958   1.9829

          k = 0.2000 0.0000 0.0000 ( 30734 PWs)   bands (ev):

   -22.1944 -22.1897 -22.1876 -22.1845 -22.1773 -22.1582 -22.1522 -22.1506
   -22.1425 -22.1401 -14.0635 -13.1970  -7.6441  -6.7863  -4.2295  -3.6550
    -3.4548  -2.5773  -1.9643  -1.6790   0.7666   1.6533   2.2370   2.4908

          k = 0.2000 0.0684 0.0000 ( 30771 PWs)   bands (ev):

   -22.1940 -22.1901 -22.1872 -22.1851 -22.1767 -22.1583 -22.1526 -22.1500
   -22.1429 -22.1399 -14.0448 -13.1921  -7.6512  -6.8095  -4.2100  -4.0193
    -3.0895  -2.7990  -1.7533  -1.6559   0.7888   1.3190   2.2936   2.5506

          k = 0.2000 0.1368 0.0000 ( 30761 PWs)   bands (ev):

   -22.1930 -22.1912 -22.1865 -22.1860 -22.1752 -22.1586 -22.1532 -22.1488
   -22.1440 -22.1395 -13.9899 -13.1795  -7.6761  -6.8831  -4.3973  -4.1543
    -3.1131  -2.7297  -1.5715  -1.5253   0.8483   0.9431   1.8045   2.9168

          k = 0.2000 0.2051 0.0000 ( 30739 PWs)   bands (ev):

   -22.1929 -22.1925 -22.1870 -22.1843 -22.1734 -22.1592 -22.1536 -22.1475
   -22.1453 -22.1392 -13.9024 -13.1652  -7.7254  -7.0135  -4.6560  -4.0711
    -3.3249  -2.5449  -1.5845  -1.4163   0.8753   0.8754   1.3527   3.0446

          k = 0.2000 0.2735 0.0000 ( 30722 PWs)   bands (ev):

   -22.1947 -22.1938 -22.1856 -22.1826 -22.1715 -22.1600 -22.1537 -22.1467
   -22.1460 -22.1391 -13.7887 -13.1588  -7.7959  -7.1960  -4.7624  -3.9670
    -3.4036  -2.5418  -1.9080  -1.2889   0.6713   1.1104   1.3274   2.8382

          k = 0.2000 0.3419 0.0000 ( 30734 PWs)   bands (ev):

   -22.1964 -22.1957 -22.1836 -22.1811 -22.1695 -22.1612 -22.1533 -22.1480
   -22.1445 -22.1393 -13.6578 -13.1714  -7.8659  -7.4075  -4.7143  -3.8388
    -3.4131  -2.6636  -2.2642  -1.3586   0.5765   1.4550   1.5361   2.5168

          k = 0.2000 0.4103 0.0000 ( 30716 PWs)   bands (ev):

   -22.1977 -22.1972 -22.1817 -22.1802 -22.1676 -22.1626 -22.1526 -22.1493
   -22.1430 -22.1398 -13.5216 -13.2128  -7.9019  -7.6126  -4.5331  -3.7362
    -3.4620  -2.8627  -2.4089  -1.6341   0.7435   1.6446   1.8148   2.3140

          k = 0.2000 0.4786 0.0000 ( 30687 PWs)   bands (ev):

   -22.1983 -22.1982 -22.1805 -22.1800 -22.1658 -22.1641 -22.1516 -22.1505
   -22.1416 -22.1405 -13.3939 -13.2878  -7.8759  -7.7768  -4.2538  -3.9320
    -3.3376  -3.1015  -2.2689  -1.9749   1.0570   1.4132   2.1162   2.3348

          k = 0.2667 0.0000 0.0000 ( 30806 PWs)   bands (ev):

   -22.1932 -22.1904 -22.1872 -22.1861 -22.1740 -22.1586 -22.1511 -22.1501
   -22.1431 -22.1413 -13.9514 -13.2131  -7.8597  -7.1315  -4.0866  -3.4606
    -3.1892  -2.4891  -1.7967  -1.5473   0.9174   1.0380   1.7569   2.1937

          k = 0.2667 0.0684 0.0000 ( 30815 PWs)   bands (ev):

   -22.1929 -22.1909 -22.1867 -22.1866 -22.1735 -22.1587 -22.1518 -22.1492
   -22.1437 -22.1409 -13.9337 -13.2073  -7.8493  -7.1355  -4.0674  -3.8710
    -2.8461  -2.7156  -1.7211  -1.4299   0.8197   0.9391   1.7983   2.0916

          k = 0.2667 0.1368 0.0000 ( 30776 PWs)   bands (ev):

   -22.1925 -22.1922 -22.1874 -22.1855 -22.1723 -22.1590 -22.1527 -22.1479
   -22.1449 -22.1402 -13.8816 -13.1919  -7.8220  -7.1522  -4.3557  -4.0142
    -3.1077  -2.5905  -1.4928  -1.4682   0.7754   0.9371   1.3272   2.5680

          k = 0.2667 0.2051 0.0000 ( 30744 PWs)   bands (ev):

   -22.1941 -22.1935 -22.1867 -22.1837 -22.1708 -22.1595 -22.1533 -22.1465
   -22.1462 -22.1397 -13.7991 -13.1727  -7.7892  -7.1938  -4.7457  -3.9439
    -3.4355  -2.5339  -1.8474  -1.2667   0.6883   1.1246   1.3234   2.8500

          k = 0.2667 0.2735 0.0000 ( 30743 PWs)   bands (ev):

   -22.1963 -22.1956 -22.1846 -22.1819 -22.1692 -22.1602 -22.1535 -22.1475
   -22.1451 -22.1395 -13.6928 -13.1586  -7.7650  -7.2721  -4.9898  -3.8957
    -3.6162  -2.6035  -2.3354  -1.3149   0.6360   1.5404   1.6423   2.8270

          k = 0.2667 0.3419 0.0000 ( 30737 PWs)   bands (ev):

   -22.1983 -22.1978 -22.1824 -22.1802 -22.1677 -22.1613 -22.1532 -22.1486
   -22.1436 -22.1394 -13.5721 -13.1604  -7.7542  -7.3855  -5.0608  -3.8664
    -3.7250  -2.7641  -2.6995  -1.6241   0.8675   1.8358   2.1562   2.6354

          k = 0.2667 0.4103 0.0000 ( 30729 PWs)   bands (ev):

   -22.1998 -22.1996 -22.1806 -22.1792 -22.1663 -22.1625 -22.1526 -22.1497
   -22.1423 -22.1396 -13.4490 -13.1880  -7.7429  -7.5142  -4.9614  -4.0109
    -3.7408  -2.9984  -2.7607  -1.9942   1.2044   2.1736   2.2540   2.6662

          k = 0.2667 0.4786 0.0000 ( 30718 PWs)   bands (ev):

   -22.2006 -22.2005 -22.1793 -22.1788 -22.1650 -22.1638 -22.1517 -22.1507
   -22.1411 -22.1402 -13.3367 -13.2471  -7.7063  -7.6286  -4.7202  -4.3803
    -3.5393  -3.2739  -2.5966  -2.3280   1.5659   1.9270   2.5077   2.7446

          k = 0.3333 0.0000 0.0000 ( 30768 PWs)   bands (ev):

   -22.1918 -22.1910 -22.1878 -22.1871 -22.1706 -22.1593 -22.1499 -22.1493
   -22.1440 -22.1427 -13.8199 -13.2516  -8.0212  -7.4625  -3.8938  -3.2287
    -3.0013  -2.4297  -1.8495  -1.1381   0.4750   1.1327   1.3808   1.7291

          k = 0.3333 0.0684 0.0000 ( 30783 PWs)   bands (ev):

   -22.1918 -22.1916 -22.1880 -22.1866 -22.1702 -22.1594 -22.1509 -22.1482
   -22.1448 -22.1420 -13.8034 -13.2445  -8.0000  -7.4527  -3.8776  -3.6599
    -2.7536  -2.6498  -1.6809  -1.1986   0.4822   1.1051   1.3198   1.6842

          k = 0.3333 0.1368 0.0000 ( 30769 PWs)   bands (ev):

   -22.1931 -22.1926 -22.1876 -22.1852 -22.1692 -22.1596 -22.1520 -22.1468
   -22.1460 -22.1411 -13.7552 -13.2250  -7.9392  -7.4269  -4.2086  -3.8342
    -3.0860  -2.6447  -1.5783  -1.3588   0.7146   0.8532   1.3337   2.1872

          k = 0.3333 0.2051 0.0000 ( 30747 PWs)   bands (ev):

   -22.1953 -22.1947 -22.1859 -22.1833 -22.1680 -22.1600 -22.1527 -22.1472
   -22.1454 -22.1404 -13.6795 -13.1986  -7.8478  -7.3962  -4.6944  -3.7886
    -3.5055  -2.6572  -2.1374  -1.3041   0.6112   1.4934   1.5360   2.5305

          k = 0.3333 0.2735 0.0000 ( 30760 PWs)   bands (ev):

   -22.1978 -22.1973 -22.1836 -22.1813 -22.1669 -22.1606 -22.1530 -22.1483
   -22.1440 -22.1399 -13.5833 -13.1739  -7.7422  -7.3765  -5.0590  -3.8830
    -3.7345  -2.7568  -2.6406  -1.6035   0.8897   1.8451   2.1938   2.6362

          k = 0.3333 0.3419 0.0000 ( 30762 PWs)   bands (ev):

   -22.2001 -22.1998 -22.1813 -22.1796 -22.1659 -22.1615 -22.1529 -22.1492
   -22.1427 -22.1396 -13.4763 -13.1613  -7.6439  -7.3821  -5.2592  -4.0850
    -3.9014  -2.9584  -2.8839  -1.9730   1.2589   2.2438   2.5755   2.8592

          k = 0.3333 0.4103 0.0000 ( 30760 PWs)   bands (ev):

   -22.2019 -22.2017 -22.1795 -22.1784 -22.1650 -22.1625 -22.1523 -22.1500
   -22.1416 -22.1396 -13.3703 -13.1710  -7.5686  -7.4149  -5.2699  -4.4018
    -3.9747  -3.2549  -2.8512  -2.2718   1.6027   2.4225   2.6701   3.3089

          k = 0.3333 0.4786 0.0000 ( 30739 PWs)   bands (ev):

   -22.2028 -22.2028 -22.1783 -22.1779 -22.1643 -22.1634 -22.1515 -22.1507
   -22.1406 -22.1399 -13.2779 -13.2095  -7.5129  -7.4626  -5.1000  -4.7894
    -3.8366  -3.5750  -2.7011  -2.5052   1.9138   2.1917   3.0491   3.3103

          k = 0.4000 0.0000 0.0000 ( 30750 PWs)   bands (ev):

   -22.1912 -22.1904 -22.1893 -22.1874 -22.1673 -22.1605 -22.1486 -22.1482
   -22.1450 -22.1441 -13.6790 -13.3191  -8.0988  -7.7459  -3.6639  -3.0028
    -2.9778  -2.4395  -1.7148  -0.8709   0.1135   1.1713   1.2033   1.4163

          k = 0.4000 0.0684 0.0000 ( 30780 PWs)   bands (ev):

   -22.1919 -22.1912 -22.1887 -22.1868 -22.1670 -22.1605 -22.1498 -22.1470
   -22.1459 -22.1432 -13.6641 -13.3102  -8.0724  -7.7268  -3.6532  -3.4184
    -2.8411  -2.6663  -1.4980  -1.1035   0.3325   0.7802   1.4548   1.4559

          k = 0.4000 0.1368 0.0000 ( 30766 PWs)   bands (ev):

   -22.1938 -22.1931 -22.1872 -22.1853 -22.1664 -22.1606 -22.1510 -22.1472
   -22.1457 -22.1422 -13.6208 -13.2855  -7.9951  -7.6720  -3.9820  -3.6311
    -3.1377  -2.8212  -1.6571  -1.3058   0.5250   0.9449   1.5823   1.9564

          k = 0.4000 0.2051 0.0000 ( 30782 PWs)   bands (ev):

   -22.1962 -22.1958 -22.1851 -22.1833 -22.1656 -22.1608 -22.1518 -22.1483
   -22.1443 -22.1412 -13.5538 -13.2500  -7.8726  -7.5893  -4.5232  -3.7171
    -3.5372  -2.8556  -2.2518  -1.5540   0.7972   1.7075   1.8184   2.3183

          k = 0.4000 0.2735 0.0000 ( 30748 PWs)   bands (ev):

   -22.1989 -22.1987 -22.1827 -22.1812 -22.1649 -22.1612 -22.1523 -22.1492
   -22.1430 -22.1405 -13.4702 -13.2119  -7.7177  -7.4927  -4.9729  -4.1170
    -3.6525  -2.9741  -2.6946  -1.9632   1.2432   2.2019   2.2969   2.7070

          k = 0.4000 0.3419 0.0000 ( 30745 PWs)   bands (ev):

   -22.2015 -22.2013 -22.1804 -22.1793 -22.1644 -22.1618 -22.1522 -22.1499
   -22.1419 -22.1400 -13.3800 -13.1817  -7.5531  -7.4011  -5.2852  -4.4787
    -3.8916  -3.2305  -2.8432  -2.2690   1.6165   2.4297   2.6995   3.4065

          k = 0.4000 0.4103 0.0000 ( 30790 PWs)   bands (ev):

   -22.2034 -22.2034 -22.1787 -22.1779 -22.1640 -22.1625 -22.1518 -22.1503
   -22.1409 -22.1397 -13.2950 -13.1696  -7.4131  -7.3343  -5.4203  -4.8117
    -4.0939  -3.5775  -2.8000  -2.4473   1.9118   2.4202   3.1748   3.7872

          k = 0.4000 0.4786 0.0000 ( 30743 PWs)   bands (ev):

   -22.2045 -22.2045 -22.1776 -22.1774 -22.1636 -22.1631 -22.1513 -22.1508
   -22.1402 -22.1398 -13.2266 -13.1837  -7.3290  -7.3066  -5.3587  -5.1303
    -4.0887  -3.8937  -2.6957  -2.5767   2.1483   2.3215   3.5323   3.7535

          k = 0.4667 0.0000 0.0000 ( 30752 PWs)   bands (ev):

   -22.1911 -22.1904 -22.1892 -22.1881 -22.1644 -22.1622 -22.1474 -22.1470
   -22.1461 -22.1456 -13.5405 -13.4171  -8.0779  -7.9570  -3.4143  -3.1742
    -2.7369  -2.5451  -1.4012  -1.0335   0.2556   0.6941   1.1655   1.3578

          k = 0.4667 0.0684 0.0000 ( 30757 PWs)   bands (ev):

   -22.1919 -22.1916 -22.1882 -22.1874 -22.1643 -22.1621 -22.1485 -22.1472
   -22.1458 -22.1445 -13.5276 -13.4063  -8.0506  -7.9322  -3.4180  -3.2669
    -2.9347  -2.7956  -1.2763  -1.1304   0.3146   0.4569   1.5056   1.7048

          k = 0.4667 0.1368 0.0000 ( 30777 PWs)   bands (ev):

   -22.1940 -22.1937 -22.1864 -22.1857 -22.1639 -22.1620 -22.1498 -22.1485
   -22.1445 -22.1433 -13.4902 -13.3753  -7.9701  -7.8595  -3.7143  -3.5153
    -3.2149  -3.0451  -1.5802  -1.4128   0.5918   0.8089   1.8692   2.0031

          k = 0.4667 0.2051 0.0000 ( 30780 PWs)   bands (ev):

   -22.1966 -22.1965 -22.1842 -22.1836 -22.1635 -22.1619 -22.1507 -22.1495
   -22.1432 -22.1422 -13.4333 -13.3293  -7.8410  -7.7443  -4.2645  -3.9647
    -3.3325  -3.0910  -2.1350  -1.8704   1.1219   1.4804   2.1167   2.3250

          k = 0.4667 0.2735 0.0000 ( 30783 PWs)   bands (ev):

   -22.1995 -22.1994 -22.1819 -22.1814 -22.1633 -22.1621 -22.1513 -22.1502
   -22.1421 -22.1412 -13.3644 -13.2760  -7.6735  -7.5974  -4.7566  -4.4504
    -3.4648  -3.2242  -2.5485  -2.2910   1.6098   1.9684   2.5550   2.8044

          k = 0.4667 0.3419 0.0000 ( 30763 PWs)   bands (ev):

   -22.2022 -22.2022 -22.1798 -22.1793 -22.1632 -22.1624 -22.1514 -22.1506
   -22.1411 -22.1405 -13.2937 -13.2258  -7.4867  -7.4375  -5.1407  -4.8557
    -3.7561  -3.5194  -2.6986  -2.5048   1.9315   2.2065   3.1085   3.3974

          k = 0.4667 0.4103 0.0000 ( 30777 PWs)   bands (ev):

   -22.2043 -22.2043 -22.1781 -22.1779 -22.1632 -22.1628 -22.1512 -22.1507
   -22.1404 -22.1400 -13.2324 -13.1895  -7.3157  -7.2937  -5.3827  -5.1632
    -4.0522  -3.8663  -2.6982  -2.5796   2.1543   2.3270   3.5501   3.7741

          k = 0.4667 0.4786 0.0000 ( 30762 PWs)   bands (ev):

   -22.2054 -22.2054 -22.1772 -22.1771 -22.1632 -22.1631 -22.1510 -22.1508
   -22.1399 -22.1398 -13.1910 -13.1763  -7.2098  -7.2053  -5.4573  -5.3710
    -4.1922  -4.1196  -2.6590  -2.6189   2.2991   2.3581   3.7912   3.9158

     the Fermi energy is    -0.8035 ev

!    total energy              =    -413.80389647 Ry
     estimated scf accuracy    <          6.9E-13 Ry
     smearing contrib. (-TS)   =       0.00008520 Ry
     internal energy E=F+TS    =    -413.80398168 Ry

     The total energy is F=E-TS. E is the sum of the following terms:
     one-electron contribution =   -1185.86093678 Ry
     hartree contribution      =     605.11612704 Ry
     xc contribution           =    -154.41221769 Ry
     ewald contribution        =     321.35304575 Ry

     convergence has been achieved in   7 iterations

     negative rho (up, down):  2.765E-05 0.000E+00

     Forces acting on atoms (cartesian axes, Ry/au):

     atom    1 type  1   force =    -0.00026096    0.00000000    0.00011581
     atom    2 type  1   force =    -0.00026064    0.00000000   -0.00012373
     atom    3 type  2   force =     0.00026031    0.00000000    0.00007188
     atom    4 type  2   force =     0.00026129    0.00000000   -0.00006395

     Total force =     0.000557     Total SCF correction =     0.000004

     number of scf cycles    =   3
[...]
   -22.1433 -22.1397 -14.1777 -13.1879  -7.2956  -6.3176  -4.3344  -4.0512
    -3.6654  -2.8236  -2.4175  -1.5295   0.6456   2.4696   2.5300   2.9575

          k = 0.0667 0.1368 0.0000 ( 30780 PWs)   bands (ev):

   -22.1952 -22.1909 -22.1884 -22.1859 -22.1801 -22.1592 -22.1550 -22.1514
   -22.1441 -22.1398 -14.1199 -13.1781  -7.4444  -6.5122  -4.3031  -4.1134
    -3.4020  -2.8655  -2.1163  -1.5655   0.6927   1.9097   2.6233   2.8840

          k = 0.0667 0.2051 0.0000 ( 30787 PWs)   bands (ev):

   -22.1934 -22.1921 -22.1874 -22.1869 -22.1782 -22.1598 -22.1550 -22.1502
   -22.1454 -22.1399 -14.0273 -13.1689  -7.6474  -6.7989  -4.2224  -4.0737
    -3.1367  -2.8220  -1.8050  -1.6287   0.7836   1.3156   2.3546   2.5051

          k = 0.0667 0.2735 0.0000 ( 30749 PWs)   bands (ev):

   -22.1935 -22.1924 -22.1880 -22.1854 -22.1759 -22.1607 -22.1548 -22.1487
   -22.1468 -22.1402 -13.9058 -13.1706  -7.8540  -7.1296  -4.0842  -3.9416
    -2.9124  -2.7306  -1.6961  -1.5364   0.8083   0.9254   1.8133   2.0237

          k = 0.0667 0.3419 0.0000 ( 30723 PWs)   bands (ev):

   -22.1948 -22.1933 -22.1867 -22.1841 -22.1733 -22.1619 -22.1543 -22.1483
   -22.1471 -22.1406 -13.7641 -13.1950  -8.0166  -7.4576  -3.8957  -3.7376
    -2.7999  -2.6484  -1.6986  -1.3664   0.4772   1.0472   1.3474   1.5844

          k = 0.0667 0.4103 0.0000 ( 30676 PWs)   bands (ev):

   -22.1956 -22.1946 -22.1851 -22.1834 -22.1705 -22.1636 -22.1535 -22.1498
   -22.1454 -22.1414 -13.6138 -13.2517  -8.0989  -7.7441  -3.6731  -3.4974
    -2.8430  -2.6530  -1.5820  -1.3085   0.3328   0.7171   1.3301   1.4782

          k = 0.0667 0.4786 0.0000 ( 30659 PWs)   bands (ev):

   -22.1959 -22.1956 -22.1839 -22.1833 -22.1679 -22.1656 -22.1525 -22.1512
   -22.1438 -22.1424 -13.4692 -13.3446  -8.0809  -7.9590  -3.4488  -3.3361
    -2.9098  -2.7824  -1.4185  -1.3206   0.2916   0.4048   1.3872   1.6846

          k = 0.1333 0.0000 0.0000 ( 30751 PWs)   bands (ev):

   -22.1965 -22.1901 -22.1894 -22.1842 -22.1810 -22.1589 -22.1543 -22.1523
   -22.1433 -22.1404 -14.1443 -13.1899  -7.4182  -6.4746  -4.3111  -3.7941
    -3.7133  -2.6533  -2.3437  -1.5789   0.6759   2.2598   2.5512   2.7380

          k = 0.1333 0.0684 0.0000 ( 30759 PWs)   bands (ev):

   -22.1960 -22.1905 -22.1890 -22.1850 -22.1802 -22.1590 -22.1545 -22.1519
   -22.1436 -22.1403 -14.1250 -13.1856  -7.4489  -6.5213  -4.2956  -4.0821
    -3.3834  -2.8440  -2.1022  -1.5794   0.6943   1.9016   2.5576   2.9297

          k = 0.1333 0.1368 0.0000 ( 30782 PWs)   bands (ev):

   -22.1947 -22.1915 -22.1879 -22.1867 -22.1786 -22.1593 -22.1549 -22.1509
   -22.1446 -22.1401 -14.0683 -13.1748  -7.5386  -6.6598  -4.3146  -4.2476
    -3.0365  -3.0310  -1.7775  -1.5790   0.7505   1.3636   2.3427   3.0384

          k = 0.1333 0.2051 0.0000 ( 30761 PWs)   bands (ev):

   -22.1933 -22.1929 -22.1880 -22.1864 -22.1766 -22.1599 -22.1550 -22.1496
   -22.1458 -22.1401 -13.9776 -13.1639  -7.6746  -6.8789  -4.4224  -4.1624
    -3.1140  -2.7541  -1.5645  -1.5639   0.8428   0.9336   1.8115   2.8955

          k = 0.1333 0.2735 0.0000 ( 30748 PWs)   bands (ev):

   -22.1945 -22.1933 -22.1877 -22.1848 -22.1745 -22.1608 -22.1549 -22.1481
   -22.1473 -22.1402 -13.8590 -13.1628  -7.8272  -7.1504  -4.3978  -4.0339
    -3.0901  -2.6207  -1.5696  -1.5056   0.7594   0.9077   1.3379   2.5307

          k = 0.1333 0.3419 0.0000 ( 30731 PWs)   bands (ev):

   -22.1959 -22.1947 -22.1860 -22.1834 -22.1721 -22.1620 -22.1545 -22.1487
   -22.1465 -22.1406 -13.7213 -13.1829  -7.9554  -7.4342  -4.2558  -3.8632
    -3.0305  -2.6572  -1.7459  -1.4208   0.6663   0.8313   1.3478   2.1251

          k = 0.1333 0.4103 0.0000 ( 30673 PWs)   bands (ev):

   -22.1969 -22.1961 -22.1842 -22.1826 -22.1697 -22.1635 -22.1537 -22.1501
   -22.1449 -22.1412 -13.5763 -13.2341  -8.0213  -7.6908  -4.0237  -3.6702
    -3.0517  -2.8148  -1.8638  -1.4194   0.4733   0.9193   1.5960   1.8773

          k = 0.1333 0.4786 0.0000 ( 30679 PWs)   bands (ev):

   -22.1974 -22.1971 -22.1830 -22.1824 -22.1675 -22.1654 -22.1527 -22.1515
   -22.1434 -22.1422 -13.4380 -13.3204  -8.0007  -7.8873  -3.7467  -3.5614
    -3.1428  -3.0197  -1.7723  -1.5690   0.5402   0.7672   1.8951   1.9777

          k = 0.2000 0.0000 0.0000 ( 30734 PWs)   bands (ev):

   -22.1956 -22.1908 -22.1889 -22.1856 -22.1783 -22.1591 -22.1535 -22.1519
   -22.1437 -22.1413 -14.0591 -13.1927  -7.6443  -6.7887  -4.2273  -3.6484
    -3.4562  -2.5693  -1.9656  -1.6796   0.7666   1.6589   2.2323   2.5073

          k = 0.2000 0.0684 0.0000 ( 30771 PWs)   bands (ev):

   -22.1951 -22.1913 -22.1885 -22.1863 -22.1777 -22.1592 -22.1539 -22.1513
   -22.1442 -22.1411 -14.0405 -13.1878  -7.6512  -6.8117  -4.2075  -4.0160
    -3.0875  -2.7932  -1.7525  -1.6565   0.7889   1.3195   2.3030   2.5503

          k = 0.2000 0.1368 0.0000 ( 30761 PWs)   bands (ev):

   -22.1941 -22.1924 -22.1877 -22.1873 -22.1762 -22.1595 -22.1545 -22.1501
   -22.1453 -22.1407 -13.9857 -13.1753  -7.6755  -6.8847  -4.3948  -4.1513
    -3.1090  -2.7270  -1.5720  -1.5231   0.8485   0.9397   1.8052   2.9181

          k = 0.2000 0.2051 0.0000 ( 30739 PWs)   bands (ev):

   -22.1940 -22.1936 -22.1883 -22.1857 -22.1744 -22.1601 -22.1549 -22.1488
   -22.1466 -22.1405 -13.8983 -13.1613  -7.7236  -7.0140  -4.6542  -4.0669
    -3.3223  -2.5420  -1.5824  -1.4160   0.8698   0.8751   1.3492   3.0464

          k = 0.2000 0.2735 0.0000 ( 30722 PWs)   bands (ev):

   -22.1958 -22.1948 -22.1869 -22.1840 -22.1724 -22.1609 -22.1550 -22.1479
   -22.1473 -22.1404 -13.7848 -13.1551  -7.7929  -7.1951  -4.7614  -3.9619
    -3.4022  -2.5389  -1.9076  -1.2873   0.6668   1.1045   1.3254   2.8393

          k = 0.2000 0.3419 0.0000 ( 30734 PWs)   bands (ev):

   -22.1975 -22.1967 -22.1849 -22.1825 -22.1705 -22.1621 -22.1546 -22.1493
   -22.1458 -22.1406 -13.6541 -13.1679  -7.8619  -7.4052  -4.7137  -3.8335
    -3.4116  -2.6605  -2.2660  -1.3571   0.5708   1.4497   1.5347   2.5170

          k = 0.2000 0.4103 0.0000 ( 30716 PWs)   bands (ev):

   -22.1988 -22.1983 -22.1831 -22.1815 -22.1686 -22.1635 -22.1539 -22.1505
   -22.1443 -22.1411 -13.5182 -13.2095  -7.8974  -7.6092  -4.5327  -3.7323
    -3.4590  -2.8593  -2.4122  -1.6342   0.7389   1.6412   1.8134   2.3120

          k = 0.2000 0.4786 0.0000 ( 30687 PWs)   bands (ev):

   -22.1994 -22.1992 -22.1818 -22.1813 -22.1668 -22.1651 -22.1529 -22.1517
   -22.1429 -22.1418 -13.3906 -13.2846  -7.8713  -7.7725  -4.2532  -3.9305
    -3.3333  -3.0975  -2.2719  -1.9767   1.0539   1.4109   2.1146   2.3324

          k = 0.2667 0.0000 0.0000 ( 30806 PWs)   bands (ev):

   -22.1943 -22.1916 -22.1885 -22.1873 -22.1751 -22.1596 -22.1524 -22.1514
   -22.1444 -22.1426 -13.9470 -13.2087  -7.8607  -7.1340  -4.0849  -3.4535
    -3.1897  -2.4802  -1.7966  -1.5474   0.9167   1.0419   1.7509   2.2044

          k = 0.2667 0.0684 0.0000 ( 30815 PWs)   bands (ev):

   -22.1940 -22.1921 -22.1881 -22.1878 -22.1746 -22.1597 -22.1531 -22.1505
   -22.1450 -22.1421 -13.9292 -13.2029  -7.8500  -7.1377  -4.0656  -3.8669
    -2.8438  -2.7079  -1.7209  -1.4290   0.8197   0.9384   1.8013   2.0892

          k = 0.2667 0.1368 0.0000 ( 30776 PWs)   bands (ev):

   -22.1936 -22.1934 -22.1886 -22.1868 -22.1733 -22.1599 -22.1540 -22.1492
   -22.1462 -22.1415 -13.8773 -13.1876  -7.8221  -7.1539  -4.3524  -4.0118
    -3.1014  -2.5880  -1.4918  -1.4676   0.7731   0.9359   1.3264   2.5675

          k = 0.2667 0.2051 0.0000 ( 30744 PWs)   bands (ev):

   -22.1953 -22.1945 -22.1879 -22.1850 -22.1718 -22.1604 -22.1546 -22.1478
   -22.1475 -22.1410 -13.7949 -13.1686  -7.7882  -7.1945  -4.7432  -3.9400
    -3.4309  -2.5314  -1.8485  -1.2649   0.6847   1.1215   1.3223   2.8499

          k = 0.2667 0.2735 0.0000 ( 30743 PWs)   bands (ev):

   -22.1974 -22.1967 -22.1859 -22.1832 -22.1701 -22.1612 -22.1548 -22.1487
   -22.1463 -22.1407 -13.6888 -13.1548  -7.7625  -7.2714  -4.9885  -3.8893
    -3.6143  -2.6007  -2.3385  -1.3140   0.6322   1.5390   1.6386   2.8280

          k = 0.2667 0.3419 0.0000 ( 30737 PWs)   bands (ev):

   -22.1994 -22.1989 -22.1837 -22.1816 -22.1686 -22.1622 -22.1546 -22.1499
   -22.1449 -22.1407 -13.5684 -13.1568  -7.7502  -7.3832  -5.0606  -3.8597
    -3.7236  -2.7607  -2.7045  -1.6252   0.8653   1.8340   2.1524   2.6369

          k = 0.2667 0.4103 0.0000 ( 30729 PWs)   bands (ev):

   -22.2009 -22.2006 -22.1819 -22.1805 -22.1673 -22.1634 -22.1539 -22.1509
   -22.1435 -22.1409 -13.4455 -13.1846  -7.7379  -7.5103  -4.9621  -4.0105
    -3.7345  -2.9941  -2.7659  -1.9971   1.2041   2.1711   2.2556   2.6624

          k = 0.2667 0.4786 0.0000 ( 30718 PWs)   bands (ev):

   -22.2017 -22.2016 -22.1806 -22.1801 -22.1660 -22.1647 -22.1529 -22.1519
   -22.1424 -22.1415 -13.3333 -13.2438  -7.7010  -7.6237  -4.7211  -4.3808
    -3.5337  -3.2689  -2.6012  -2.3320   1.5669   1.9288   2.5045   2.7407

          k = 0.3333 0.0000 0.0000 ( 30768 PWs)   bands (ev):

   -22.1930 -22.1921 -22.1890 -22.1884 -22.1716 -22.1603 -22.1512 -22.1506
   -22.1452 -22.1439 -13.8154 -13.2470  -8.0227  -7.4650  -3.8925  -3.2208
    -3.0013  -2.4198  -1.8486  -1.1368   0.4773   1.1314   1.3735   1.7355

          k = 0.3333 0.0684 0.0000 ( 30783 PWs)   bands (ev):

   -22.1929 -22.1927 -22.1892 -22.1879 -22.1713 -22.1604 -22.1522 -22.1495
   -22.1460 -22.1433 -13.7989 -13.2399  -8.0013  -7.4550  -3.8762  -3.6550
    -2.7512  -2.6403  -1.6794  -1.1984   0.4832   1.1032   1.3211   1.6793

          k = 0.3333 0.1368 0.0000 ( 30769 PWs)   bands (ev):

   -22.1943 -22.1936 -22.1889 -22.1865 -22.1703 -22.1606 -22.1533 -22.1481
   -22.1473 -22.1424 -13.7508 -13.2206  -7.9400  -7.4287  -4.2044  -3.8325
    -3.0769  -2.6426  -1.5808  -1.3567   0.7116   0.8539   1.3335   2.1846

          k = 0.3333 0.2051 0.0000 ( 30747 PWs)   bands (ev):

   -22.1965 -22.1958 -22.1872 -22.1846 -22.1691 -22.1610 -22.1540 -22.1485
   -22.1467 -22.1417 -13.6753 -13.1944  -7.8475  -7.3970  -4.6911  -3.7855
    -3.4979  -2.6548  -2.1421  -1.3030   0.6082   1.4933   1.5355   2.5292

          k = 0.3333 0.2735 0.0000 ( 30760 PWs)   bands (ev):

   -22.1989 -22.1984 -22.1849 -22.1826 -22.1679 -22.1616 -22.1544 -22.1496
   -22.1453 -22.1412 -13.5792 -13.1700  -7.7403  -7.3760  -5.0571  -3.8738
    -3.7335  -2.7538  -2.6468  -1.6048   0.8884   1.8440   2.1926   2.6364

          k = 0.3333 0.3419 0.0000 ( 30762 PWs)   bands (ev):

   -22.2012 -22.2009 -22.1826 -22.1809 -22.1669 -22.1625 -22.1542 -22.1505
   -22.1440 -22.1409 -13.4725 -13.1577  -7.6401  -7.3797  -5.2590  -4.0788
    -3.8998  -2.9546  -2.8898  -1.9762   1.2595   2.2420   2.5780   2.8562

          k = 0.3333 0.4103 0.0000 ( 30760 PWs)   bands (ev):

   -22.2030 -22.2028 -22.1808 -22.1797 -22.1661 -22.1635 -22.1536 -22.1513
   -22.1428 -22.1409 -13.3667 -13.1675  -7.5631  -7.4105  -5.2714  -4.4024
    -3.9695  -3.2506  -2.8559  -2.2759   1.6052   2.4262   2.6675   3.3050

          k = 0.3333 0.4786 0.0000 ( 30739 PWs)   bands (ev):

   -22.2039 -22.2039 -22.1796 -22.1792 -22.1653 -22.1644 -22.1528 -22.1520
   -22.1419 -22.1412 -13.2745 -13.2061  -7.5066  -7.4568  -5.1025  -4.7918
    -3.8317  -3.5705  -2.7053  -2.5094   1.9175   2.1959   3.0459   3.3065

          k = 0.4000 0.0000 0.0000 ( 30750 PWs)   bands (ev):

   -22.1924 -22.1916 -22.1905 -22.1887 -22.1683 -22.1615 -22.1499 -22.1495
   -22.1463 -22.1454 -13.6743 -13.3144  -8.1008  -7.7484  -3.6629  -3.0025
    -2.9690  -2.4290  -1.7130  -0.8674   0.1138   1.1631   1.2062   1.4155

          k = 0.4000 0.0684 0.0000 ( 30780 PWs)   bands (ev):

   -22.1931 -22.1924 -22.1899 -22.1881 -22.1681 -22.1615 -22.1511 -22.1483
   -22.1472 -22.1445 -13.6594 -13.3056  -8.0743  -7.7292  -3.6522  -3.4131
    -2.8381  -2.6557  -1.4956  -1.1040   0.3352   0.7787   1.4480   1.4555

          k = 0.4000 0.1368 0.0000 ( 30766 PWs)   bands (ev):

   -22.1949 -22.1943 -22.1884 -22.1866 -22.1674 -22.1616 -22.1523 -22.1485
   -22.1469 -22.1434 -13.6163 -13.2809  -7.9964  -7.6739  -3.9768  -3.6299
    -3.1270  -2.8189  -1.6615  -1.3043   0.5229   0.9488   1.5821   1.9518

          k = 0.4000 0.2051 0.0000 ( 30782 PWs)   bands (ev):

   -22.1974 -22.1969 -22.1863 -22.1846 -22.1666 -22.1618 -22.1531 -22.1496
   -22.1456 -22.1425 -13.5494 -13.2456  -7.8729  -7.5903  -4.5188  -3.7114
    -3.5312  -2.8531  -2.2581  -1.5551   0.7962   1.7108   1.8184   2.3163

          k = 0.4000 0.2735 0.0000 ( 30748 PWs)   bands (ev):

   -22.2001 -22.1998 -22.1839 -22.1824 -22.1659 -22.1622 -22.1536 -22.1505
   -22.1443 -22.1418 -13.4661 -13.2079  -7.7164  -7.4922  -4.9699  -4.1094
    -3.6501  -2.9709  -2.7012  -1.9664   1.2435   2.2016   2.2985   2.7075

          k = 0.4000 0.3419 0.0000 ( 30745 PWs)   bands (ev):

   -22.2026 -22.2024 -22.1817 -22.1805 -22.1654 -22.1629 -22.1535 -22.1511
   -22.1432 -22.1412 -13.3762 -13.1779  -7.5496  -7.3985  -5.2846  -4.4745
    -3.8898  -3.2269  -2.8482  -2.2731   1.6185   2.4323   2.6987   3.4072

          k = 0.4000 0.4103 0.0000 ( 30790 PWs)   bands (ev):

   -22.2046 -22.2045 -22.1799 -22.1792 -22.1650 -22.1636 -22.1531 -22.1516
   -22.1422 -22.1410 -13.2914 -13.1660  -7.4071  -7.3293  -5.4224  -4.8128
    -4.0905  -3.5740  -2.8039  -2.4512   1.9157   2.4248   3.1737   3.7856

          k = 0.4000 0.4786 0.0000 ( 30743 PWs)   bands (ev):

   -22.2056 -22.2056 -22.1789 -22.1786 -22.1647 -22.1642 -22.1525 -22.1520
   -22.1415 -22.1411 -13.2231 -13.1802  -7.3215  -7.2995  -5.3629  -5.1344
    -4.0846  -3.8899  -2.6993  -2.5803   2.1537   2.3273   3.5308   3.7508

          k = 0.4667 0.0000 0.0000 ( 30752 PWs)   bands (ev):

   -22.1922 -22.1916 -22.1904 -22.1893 -22.1655 -22.1632 -22.1486 -22.1483
   -22.1474 -22.1469 -13.5358 -13.4124  -8.0802  -7.9595  -3.4135  -3.1736
    -2.7272  -2.5347  -1.3984  -1.0297   0.2558   0.6957   1.1573   1.3501

          k = 0.4667 0.0684 0.0000 ( 30757 PWs)   bands (ev):

   -22.1931 -22.1927 -22.1894 -22.1886 -22.1653 -22.1631 -22.1498 -22.1485
   -22.1470 -22.1458 -13.5229 -13.4015  -8.0527  -7.9345  -3.4172  -3.2645
    -2.9275  -2.7854  -1.2741  -1.1298   0.3161   0.4561   1.4996   1.7039

          k = 0.4667 0.1368 0.0000 ( 30777 PWs)   bands (ev):

   -22.1951 -22.1949 -22.1877 -22.1870 -22.1650 -22.1630 -22.1511 -22.1498
   -22.1457 -22.1445 -13.4857 -13.3707  -7.9717  -7.8613  -3.7085  -3.5121
    -3.2073  -3.0419  -1.5835  -1.4137   0.5921   0.8119   1.8694   2.0016

          k = 0.4667 0.2051 0.0000 ( 30780 PWs)   bands (ev):

   -22.1978 -22.1976 -22.1855 -22.1849 -22.1646 -22.1630 -22.1520 -22.1508
   -22.1445 -22.1434 -13.4289 -13.3249  -7.8417  -7.7452  -4.2589  -3.9579
    -3.3290  -3.0881  -2.1402  -1.8737   1.1227   1.4827   2.1175   2.3263

          k = 0.4667 0.2735 0.0000 ( 30783 PWs)   bands (ev):

   -22.2007 -22.2005 -22.1831 -22.1826 -22.1643 -22.1631 -22.1526 -22.1515
   -22.1434 -22.1425 -13.3603 -13.2719  -7.6726  -7.5968  -4.7524  -4.4447
    -3.4619  -3.2211  -2.5541  -2.2954   1.6108   1.9697   2.5561   2.8070

          k = 0.4667 0.3419 0.0000 ( 30763 PWs)   bands (ev):

   -22.2033 -22.2033 -22.1810 -22.1806 -22.1643 -22.1634 -22.1527 -22.1518
   -22.1424 -22.1417 -13.2898 -13.2220  -7.4836  -7.4347  -5.1392  -4.8530
    -3.7539  -3.5166  -2.7030  -2.5090   1.9341   2.2091   3.1092   3.3992

          k = 0.4667 0.4103 0.0000 ( 30777 PWs)   bands (ev):

   -22.2054 -22.2054 -22.1794 -22.1791 -22.1643 -22.1638 -22.1525 -22.1520
   -22.1417 -22.1413 -13.2287 -13.1859  -7.3095  -7.2880  -5.3849  -5.1649
    -4.0494  -3.8635  -2.7018  -2.5832   2.1590   2.3320   3.5506   3.7742

          k = 0.4667 0.4786 0.0000 ( 30762 PWs)   bands (ev):

   -22.2065 -22.2065 -22.1785 -22.1784 -22.1643 -22.1642 -22.1523 -22.1521
   -22.1412 -22.1411 -13.1875 -13.1728  -7.2013  -7.1971  -5.4628  -5.3765
    -4.1886  -4.1162  -2.6623  -2.6222   2.3058   2.3648   3.7893   3.9124

     the Fermi energy is    -0.7967 ev

!    total energy              =    -413.80389970 Ry
     estimated scf accuracy    <          6.3E-13 Ry
     smearing contrib. (-TS)   =       0.00007985 Ry
     internal energy E=F+TS    =    -413.80397955 Ry

     The total energy is F=E-TS. E is the sum of the following terms:
     one-electron contribution =   -1185.83845103 Ry
     hartree contribution      =     605.10480107 Ry
     xc contribution           =    -154.41102759 Ry
     ewald contribution        =     321.34069799 Ry

     convergence has been achieved in   6 iterations

     negative rho (up, down):  2.771E-05 0.000E+00

     Forces acting on atoms (cartesian axes, Ry/au):

     atom    1 type  1   force =    -0.00001139    0.00000000    0.00001140
     atom    2 type  1   force =    -0.00001110    0.00000000   -0.00000294
     atom    3 type  2   force =     0.00001098    0.00000000    0.00002448
     atom    4 type  2   force =     0.00001151    0.00000000   -0.00003293

     Total force =     0.000048     Total SCF correction =     0.000005
     SCF correction compared to forces is large: reduce conv_thr to get better values

     bfgs converged in  16 scf cycles and  15 bfgs steps
     (criteria: energy <  1.0E-06 Ry, force <  3.8E-05 Ry/Bohr)

     End of BFGS Geometry Optimization

     Final energy   =    -413.8038997010 Ry

     File ./wfc-out/pwscf.bfgs deleted, as requested
Begin final coordinates

ATOMIC_POSITIONS (crystal)
Sn            0.5832002647        0.7500000000        0.1445507440
Sn            0.0831997672        0.2500000000        0.0065933421
Se            0.0309048980        0.2500000000        0.1423539566
Se            0.5309030441        0.7500000000        0.0087920112
End final coordinates



     Writing output data file ./wfc-out/pwscf.save/
 
     init_run     :      2.09s CPU      2.35s WALL (       1 calls)
     electrons    :    561.88s CPU    614.67s WALL (      16 calls)
     update_pot   :      6.33s CPU      6.39s WALL (      15 calls)
     forces       :     15.21s CPU     16.00s WALL (      16 calls)

     Called by init_run:
     wfcinit      :      1.18s CPU      1.32s WALL (       1 calls)
     potinit      :      0.15s CPU      0.16s WALL (       1 calls)
     hinit0       :      0.32s CPU      0.36s WALL (       1 calls)

     Called by electrons:
     c_bands      :    427.74s CPU    443.91s WALL (     130 calls)
     sum_band     :    100.35s CPU    107.80s WALL (     130 calls)
     v_of_rho     :      4.64s CPU      4.87s WALL (     131 calls)
     newd         :     31.84s CPU     36.81s WALL (     131 calls)
     mix_rho      :      0.62s CPU      0.64s WALL (     130 calls)

     Called by c_bands:
     init_us_2    :      9.38s CPU     10.21s WALL (   17728 calls)
     cegterg      :    378.87s CPU    392.15s WALL (    8320 calls)

     Called by *egterg:
     cdiaghg      :     23.21s CPU     23.72s WALL (   30930 calls)
     h_psi        :    287.44s CPU    298.88s WALL (   32914 calls)
     s_psi        :     11.51s CPU     11.80s WALL (   32914 calls)
     g_psi        :      1.47s CPU      1.51s WALL (   24530 calls)

     Called by h_psi:
     h_psi:calbec :     19.23s CPU     19.97s WALL (   32914 calls)
     vloc_psi     :    251.88s CPU    262.21s WALL (   32914 calls)
     add_vuspsi   :     14.36s CPU     14.73s WALL (   32914 calls)

     General routines
     calbec       :     27.99s CPU     29.01s WALL (   45330 calls)
     fft          :      4.28s CPU      4.39s WALL (    1877 calls)
     ffts         :      0.14s CPU      0.15s WALL (     261 calls)
     fftw         :    272.97s CPU    283.97s WALL ( 1254732 calls)
     interpolate  :      0.33s CPU      0.34s WALL (     131 calls)
 
     Parallel routines
     fft_scatt_xy :     36.84s CPU     38.41s WALL ( 1256870 calls)
     fft_scatt_yz :    160.70s CPU    167.07s WALL ( 1256870 calls)
 
     PWSCF        :   9m50.91s CPU  11m46.13s WALL

 
   This run was terminated on:   6:35:37   8May2023            

=------------------------------------------------------------------------------=
   JOB DONE.
=------------------------------------------------------------------------------=
