
     Program PWSCF v.6.6 starts on  8May2023 at  6:35:38 

     This program is part of the open-source Quantum ESPRESSO suite
     for quantum simulation of materials; please cite
         "P. Giannozzi et al., J. Phys.:Condens. Matter 21 395502 (2009);
         "P. Giannozzi et al., J. Phys.:Condens. Matter 29 465901 (2017);
          URL http://www.quantum-espresso.org", 
     in publications or presentations arising from this work. More details at
     http://www.quantum-espresso.org/quote

     Parallel version (MPI), running on    24 processors

     MPI processes distributed on     1 nodes
     R & G space division:  proc/nbgrp/npool/nimage =      24
     Fft bands division:     nmany     =       1
     Reading input from INCAR-nscf.pw

     Current dimensions of program PWSCF are:
     Max number of different atomic species (ntypx) = 10
     Max number of k-points (npk) =  40000
     Max angular momentum in pseudopotentials (lmaxx) =  3

     Atomic positions and unit cell read from directory:
     ./wfc-out/pwscf.save/
     Atomic positions from file used, from input discarded
 

     Subspace diagonalization in iterative solution of the eigenvalue problem:
     a serial algorithm will be used

 
     Parallelization info
     --------------------
     sticks:   dense  smooth     PW     G-vecs:    dense   smooth      PW
     Min         134      71     21                26314    10237    1667
     Max         135      72     23                26329    10253    1681
     Sum        3219    1709    509               631649   245907   40153
 


     bravais-lattice index     =            0
     lattice parameter (alat)  =       8.3102  a.u.
     unit-cell volume          =    2544.8299 (a.u.)^3
     number of atoms/cell      =            4
     number of atomic types    =            2
     number of electrons       =        40.00
     number of Kohn-Sham states=           20
     kinetic-energy cutoff     =      80.0000  Ry
     charge density cutoff     =     600.0000  Ry
     Exchange-correlation= SLA  PW   PBE  PBE
                           (   1   4   3   4   0   0   0)

     celldm(1)=   8.310192  celldm(2)=   0.000000  celldm(3)=   0.000000
     celldm(4)=   0.000000  celldm(5)=   0.000000  celldm(6)=   0.000000

     crystal axes: (cart. coord. in units of alat)
               a(1) = (   1.000000   0.000000   0.000000 )  
               a(2) = (   0.000000   0.975007   0.000000 )  
               a(3) = (   0.000000   0.000000   4.547972 )  

     reciprocal axes: (cart. coord. in units 2 pi/alat)
               b(1) = (  1.000000  0.000000  0.000000 )  
               b(2) = (  0.000000  1.025634  0.000000 )  
               b(3) = (  0.000000  0.000000  0.219878 )  


     PseudoPot. # 1 for Sn read from file:
     ./Sn_pbe_v1.uspp.F.UPF
     MD5 check sum: 4cf58ce39ec5d5d420df3dd08604eb00
     Pseudo is Ultrasoft + core correction, Zval = 14.0
     Generated by new atomic code, or converted to UPF format
     Using radial grid of  891 points,  6 beta functions with: 
                l(1) =   0
                l(2) =   0
                l(3) =   1
                l(4) =   1
                l(5) =   2
                l(6) =   2
     Q(r) pseudized with  6 coefficients,  rinner =    1.200   1.200   1.200
                                                       1.200   1.200

     PseudoPot. # 2 for Se read from file:
     ./Se_pbe_v1.uspp.F.UPF
     MD5 check sum: 1b3568f3a8ae88f9a2a0ad0698632c85
     Pseudo is Ultrasoft + core correction, Zval =  6.0
     Generated by new atomic code, or converted to UPF format
     Using radial grid of  877 points,  6 beta functions with: 
                l(1) =   0
                l(2) =   0
                l(3) =   1
                l(4) =   1
                l(5) =   2
                l(6) =   2
     Q(r) pseudized with  8 coefficients,  rinner =    1.300   1.300   1.300
                                                       1.300   1.300

     atomic species   valence    mass     pseudopotential
        Sn            14.00   118.71000     Sn( 1.00)
        Se             6.00    78.96000     Se( 1.00)

     No symmetry found



   Cartesian axes

     site n.     atom                  positions (alat units)
         1           Sn  tau(   1) = (   0.5832003   0.7312553   0.6574128  )
         2           Sn  tau(   2) = (   0.0831998   0.2437518   0.0299863  )
         3           Se  tau(   3) = (   0.0309049   0.2437518   0.6474218  )
         4           Se  tau(   4) = (   0.5309030   0.7312553   0.0399858  )

     number of k points=   120

     Number of k-points >= 100: set verbosity='high' to print them.

     Dense  grid:   631649 G-vectors     FFT dimensions: (  72,  64, 300)

     Smooth grid:   245907 G-vectors     FFT dimensions: (  48,  48, 216)

     Estimated max dynamical RAM per process >      89.67 MB

     Estimated total dynamical RAM >       2.10 GB

     The potential is recalculated from file :
     ./wfc-out/pwscf.save/charge-density


     negative rho (up, down):  2.771E-05 0.000E+00
     Starting wfcs are   26 randomized atomic wfcs

     Band Structure Calculation
     Davidson diagonalization with overlap

     ethr =  2.50E-13,  avg # of iterations = 57.8

     total cpu time spent up to now is      107.2 secs

     End of band structure calculation

     Number of k-points >= 100: set verbosity='high' to print the bands.

     highest occupied level (ev):    -0.8824



               ==================================================
                            POLARIZATION CALCULATION
                         !!! NOT THOROUGHLY TESTED !!!
               --------------------------------------------------


                     K-POINTS STRINGS USED IN CALCULATIONS
                     ~~~~~~~~~~~~~~~~~~~~~~~~~~~~~~~~~~~~~

       G-vector along string (2 pi/a):  1.00000  0.00000  0.00000
       Modulus of the vector (1/bohr):  0.75608
       Number of k-points per string:  15
       Number of different strings  :   8


                               IONIC POLARIZATION
                               ~~~~~~~~~~~~~~~~~~

  ============================================================================
    Ion    Species    Charge              Position                Phase
  ----------------------------------------------------------------------------
     1        Sn      14.000       0.5832  0.7313  0.6574     0.16480 (mod 2)
     2        Sn      14.000       0.0832  0.2438  0.0300    -0.83520 (mod 2)
     3        Se       6.000       0.0309  0.2438  0.6474     0.18543 (mod 2)
     4        Se       6.000       0.5309  0.7313  0.0400    -0.81458 (mod 2)
  ----------------------------------------------------------------------------
                                               IONIC PHASE:   0.70045 (mod 2)
  ============================================================================


                            ELECTRONIC POLARIZATION
                            ~~~~~~~~~~~~~~~~~~~~~~~

  ============================================================================
    String     Weight      First k-point in string         Phase
  ----------------------------------------------------------------------------
       1      0.066667      0.0000  0.0000  0.0000    -0.46785
       2      0.133333      0.0000  0.0684  0.0000    -0.33111
       3      0.133333      0.0000  0.1368  0.0000    -0.22408
       4      0.133333      0.0000  0.2051  0.0000    -0.15962
       5      0.133333      0.0000  0.2735  0.0000    -0.10396
       6      0.133333      0.0000  0.3419  0.0000    -0.05919
       7      0.133333      0.0000  0.4103  0.0000    -0.03540
       8      0.133333      0.0000  0.4786  0.0000    -0.02780
  ----------------------------------------------------------------------------
                                          ELECTRONIC PHASE:  -0.15668
  ============================================================================


                               SUMMARY OF PHASES
                               ~~~~~~~~~~~~~~~~~

                          Ionic Phase:  0.70045
                     Electronic Phase: -0.15668
                          TOTAL PHASE:  0.54377 MOD_TOT: 2


                             VALUES OF POLARIZATION
                             ~~~~~~~~~~~~~~~~~~~~~~

        The calculation of phases done along the direction of vector 1
        of the reciprocal lattice gives the following contribution to
        the polarization vector (in different units, and being Omega
        the volume of the unit cell):

           P =   4.5188212  (mod  16.6203839)  (e/Omega).bohr

           P =   0.0017757  (mod   0.0065310)  e/bohr^2

           P =   0.1015191  (mod   0.3733908)  C/m^2

        The polarization direction is:  ( 1.00000 , 0.00000 , 0.00000 )


               ==================================================



     Writing output data file ./wfc-out/pwscf.save/
 
     init_run     :      0.93s CPU      1.05s WALL (       1 calls)
     electrons    :    108.87s CPU    113.24s WALL (       1 calls)

     Called by init_run:
     wfcinit      :      0.00s CPU      0.01s WALL (       1 calls)
     potinit      :      0.05s CPU      0.08s WALL (       1 calls)
     hinit0       :      0.32s CPU      0.33s WALL (       1 calls)

     Called by electrons:
     c_bands      :    101.89s CPU    105.88s WALL (       1 calls)
     v_of_rho     :      0.03s CPU      0.04s WALL (       1 calls)
     newd         :      0.23s CPU      0.28s WALL (       1 calls)

     Called by c_bands:
     init_us_2    :      0.13s CPU      0.19s WALL (     344 calls)
     cegterg      :     96.33s CPU     99.83s WALL (     369 calls)

     Called by *egterg:
     cdiaghg      :      5.06s CPU      5.16s WALL (    7050 calls)
     h_psi        :     73.28s CPU     76.39s WALL (    7419 calls)
     s_psi        :      2.86s CPU      2.94s WALL (    7419 calls)
     g_psi        :      0.57s CPU      0.58s WALL (    6930 calls)

     Called by h_psi:
     h_psi:calbec :      4.68s CPU      4.88s WALL (    7419 calls)
     vloc_psi     :     64.65s CPU     67.47s WALL (    7419 calls)
     add_vuspsi   :      3.54s CPU      3.64s WALL (    7419 calls)

     General routines
     calbec       :      5.28s CPU      5.53s WALL (    7643 calls)
     fft          :      0.04s CPU      0.04s WALL (      13 calls)
     ffts         :      0.00s CPU      0.00s WALL (       1 calls)
     fftw         :     58.73s CPU     61.28s WALL (  275644 calls)
     interpolate  :      0.00s CPU      0.00s WALL (       1 calls)
     davcio       :      0.09s CPU      0.50s WALL (     464 calls)
 
     Parallel routines
     fft_scatt_xy :      7.60s CPU      7.94s WALL (  275658 calls)
     fft_scatt_yz :     32.71s CPU     34.13s WALL (  275658 calls)
 
     PWSCF        :   1m55.97s CPU   3m15.13s WALL

 
   This run was terminated on:   6:38:53   8May2023            

=------------------------------------------------------------------------------=
   JOB DONE.
=------------------------------------------------------------------------------=
