 vasp.5.4.4.18Apr17-6-g9f103f2a35 (build Sep 16 2021 13:51:27) complex          
  
 executed on             LinuxIFC date 2023.03.16  12:59:53
 running on   24 total cores
 distrk:  each k-point on   24 cores,    1 groups
 distr:  one band on NCORES_PER_BAND=  24 cores,    1 groups


--------------------------------------------------------------------------------------------------------


 INCAR:
 POTCAR:    PAW_PBE Sn 08Apr2002                  
 POTCAR:    PAW_PBE Se 06Sep2000                  

 ----------------------------------------------------------------------------- 
|                                                                             |
|           W    W    AA    RRRRR   N    N  II  N    N   GGGG   !!!           |
|           W    W   A  A   R    R  NN   N  II  NN   N  G    G  !!!           |
|           W    W  A    A  R    R  N N  N  II  N N  N  G       !!!           |
|           W WW W  AAAAAA  RRRRR   N  N N  II  N  N N  G  GGG   !            |
|           WW  WW  A    A  R   R   N   NN  II  N   NN  G    G                |
|           W    W  A    A  R    R  N    N  II  N    N   GGGG   !!!           |
|                                                                             |
|      For optimal performance we recommend to set                            |
|        NCORE= 4 - approx SQRT( number of cores)                             |
|      NCORE specifies how many cores store one orbital (NPAR=cpu/NCORE).     |
|      This setting can  greatly improve the performance of VASP for DFT.     |
|      The default,   NCORE=1            might be grossly inefficient         |
|      on modern multi-core architectures or massively parallel machines.     |
|      Do your own testing !!!!                                               |
|      Unfortunately you need to use the default for GW and RPA calculations. |
|      (for HF NCORE is supported but not extensively tested yet)             |
|                                                                             |
 ----------------------------------------------------------------------------- 

 POTCAR:    PAW_PBE Sn 08Apr2002                  
   VRHFIN =Sn: s2p2                                                             
   LEXCH  = PE                                                                  
   EATOM  =    94.0860 eV,    6.9151 Ry                                         
                                                                                
   TITEL  = PAW_PBE Sn 08Apr2002                                                
   LULTRA =        F    use ultrasoft PP ?                                      
   IUNSCR =        1    unscreen: 0-lin 1-nonlin 2-no                           
   RPACOR =    2.000    partial core radius                                     
   POMASS =  118.710; ZVAL   =    4.000    mass and valenz                      
   RCORE  =    3.000    outmost cutoff radius                                   
   RWIGS  =    2.960; RWIGS  =    1.566    wigner-seitz radius (au A)           
   ENMAX  =  103.236; ENMIN  =   77.427 eV                                      
   ICORE  =        3    local potential                                         
   LCOR   =        T    correct aug charges                                     
   LPAW   =        T    paw PP                                                  
   EAUG   =  263.585                                                            
   DEXC   =    0.000                                                            
   RMAX   =    3.078    core radius for proj-oper                               
   RAUG   =    1.300    factor for augmentation sphere                          
   RDEP   =    3.022    radius for radial grids                                 
   RDEPT  =    2.655    core radius for aug-charge                              
                                                                                
   Atomic configuration                                                         
   13 entries                                                                   
     n  l   j            E        occ.                                          
     1  0  0.50    -29007.2859   2.0000                                         
     2  0  0.50     -4378.8056   2.0000                                         
     2  1  1.50     -3930.4293   6.0000                                         
     3  0  0.50      -845.0264   2.0000                                         
     3  1  1.50      -698.5725   6.0000                                         
     3  2  2.50      -473.2839  10.0000                                         
     4  0  0.50      -133.9036   2.0000                                         
     4  1  1.50       -89.6752   6.0000                                         
     4  2  2.50       -25.8375  10.0000                                         
     5  0  0.50       -10.5484   2.0000                                         
     5  1  0.50        -3.6940   2.0000                                         
     5  2  1.50        -1.3606   0.0000                                         
     4  3  2.50        -4.0817   0.0000                                         
   Description                                                                  
     l       E           TYP  RCUT    TYP  RCUT                                 
     0    -10.5483727     23  3.000                                             
     0     27.2116520     23  3.000                                             
     1     -3.6939829     23  3.000                                             
     1      1.9821976     23  3.000                                             
     2     -1.3605826     23  3.000                                             
     3     -2.7211652     23  3.000                                             
  local pseudopotential read in
  partial core-charges read in
  partial kinetic energy density read in
  atomic valenz-charges read in
  non local Contribution for L=           0  read in
    real space projection operators read in
  non local Contribution for L=           0  read in
    real space projection operators read in
  non local Contribution for L=           1  read in
    real space projection operators read in
  non local Contribution for L=           1  read in
    real space projection operators read in
  non local Contribution for L=           2  read in
    real space projection operators read in
    PAW grid and wavefunctions read in
 
   number of l-projection  operators is LMAX  =           5
   number of lm-projection operators is LMMAX =          13
 
 POTCAR:    PAW_PBE Se 06Sep2000                  
   VRHFIN =Se: s2p4                                                             
   LEXCH  = PE                                                                  
   EATOM  =   257.1286 eV,   18.8984 Ry                                         
                                                                                
   TITEL  = PAW_PBE Se 06Sep2000                                                
   LULTRA =        F    use ultrasoft PP ?                                      
   IUNSCR =        1    unscreen: 0-lin 1-nonlin 2-no                           
   RPACOR =    1.900    partial core radius                                     
   POMASS =   78.960; ZVAL   =    6.000    mass and valenz                      
   RCORE  =    2.100    outmost cutoff radius                                   
   RWIGS  =    2.200; RWIGS  =    1.164    wigner-seitz radius (au A)           
   ENMAX  =  211.555; ENMIN  =  158.666 eV                                      
   ICORE  =        3    local potential                                         
   LCOR   =        T    correct aug charges                                     
   LPAW   =        T    paw PP                                                  
   EAUG   =  446.842                                                            
   DEXC   =    0.000                                                            
   RMAX   =    2.147    core radius for proj-oper                               
   RAUG   =    1.300    factor for augmentation sphere                          
   RDEP   =    2.177    radius for radial grids                                 
   RDEPT  =    1.928    core radius for aug-charge                              
                                                                                
   Atomic configuration                                                         
   10 entries                                                                   
     n  l   j            E        occ.                                          
     1  0  0.50    -12503.4787   2.0000                                         
     2  0  0.50     -1606.9547   2.0000                                         
     2  1  1.50     -1413.3140   6.0000                                         
     3  0  0.50      -213.4885   2.0000                                         
     3  1  1.50      -152.9538   6.0000                                         
     3  2  2.50       -53.1221  10.0000                                         
     4  0  0.50       -17.2865   2.0000                                         
     4  1  0.50        -6.5110   4.0000                                         
     4  2  2.50        -6.8029   0.0000                                         
     4  3  2.50        -6.8029   0.0000                                         
   Description                                                                  
     l       E           TYP  RCUT    TYP  RCUT                                 
     0    -17.2865377     23  2.100                                             
     0    -15.3094411     23  2.100                                             
     1     -6.5110275     23  2.100                                             
     1     -0.0695192     23  2.100                                             
     2     -6.8029130     23  2.100                                             
     3     -1.3605826      7  2.100                                             
  local pseudopotential read in
  partial core-charges read in
  partial kinetic energy density read in
  atomic valenz-charges read in
  non local Contribution for L=           0  read in
    real space projection operators read in
  non local Contribution for L=           0  read in
    real space projection operators read in
  non local Contribution for L=           1  read in
    real space projection operators read in
  non local Contribution for L=           1  read in
    real space projection operators read in
  non local Contribution for L=           2  read in
    real space projection operators read in
    PAW grid and wavefunctions read in
 
   number of l-projection  operators is LMAX  =           5
   number of lm-projection operators is LMMAX =          13
 
 WARNING: PSMAXN for non-local potential too small
          PSMAXN should be >   12.5490833729506       NTYP=           1
  PAW_PBE Sn 08Apr2002                  :
 energy of atom  1       EATOM=  -94.0860
 kinetic energy error for atom=    0.0000 (will be added to EATOM!!)
  PAW_PBE Se 06Sep2000                  :
 energy of atom  2       EATOM= -257.1286
 kinetic energy error for atom=    0.0006 (will be added to EATOM!!)
 
 
 POSCAR:  POSCAR with strain of -0.007           
  positions in direct lattice
  No initial velocities read in
 exchange correlation table for  LEXCH =        8
   RHO(1)=    0.500       N(1)  =     2000
   RHO(2)=  100.500       N(2)  =     4000
 


--------------------------------------------------------------------------------------------------------


 ion  position               nearest neighbor table
   1  0.581  0.750  0.569-   4 2.70   3 2.91   3 2.93   3 3.21   3 3.23
   2  0.081  0.250  0.431-   3 2.71   4 2.91   4 2.93   4 3.21   4 3.23
   3  0.033  0.250  0.567-   2 2.71   1 2.91   1 2.93   1 3.21   1 3.23
   4  0.533  0.750  0.433-   1 2.70   2 2.91   2 2.93   2 3.21   2 3.23
 

IMPORTANT INFORMATION: All symmetrisations will be switched off!
NOSYMM: (Re-)initialisation of all symmetry stuff for point group C_1.

 
 
 KPOINTS: KMesh Grid                              

Automatic generation of k-mesh.
Space group operators:
 irot       det(A)        alpha          n_x          n_y          n_z        tau_x        tau_y        tau_z
    1     1.000000     0.000001     1.000000     0.000000     0.000000     0.000000     0.000000     0.000000
 
 Subroutine IBZKPT returns following result:
 ===========================================
 
 Found    113 irreducible k-points:
 
 Following reciprocal coordinates:
            Coordinates               Weight
  0.000000  0.000000  0.000000      1.000000
  0.066667 -0.000000 -0.000000      2.000000
  0.133333 -0.000000 -0.000000      2.000000
  0.200000 -0.000000 -0.000000      2.000000
  0.266667 -0.000000 -0.000000      2.000000
  0.333333  0.000000  0.000000      2.000000
  0.400000 -0.000000 -0.000000      2.000000
  0.466667 -0.000000  0.000000      2.000000
 -0.000000  0.066667 -0.000000      2.000000
  0.066667  0.066667 -0.000000      2.000000
  0.133333  0.066667 -0.000000      2.000000
  0.200000  0.066667 -0.000000      2.000000
  0.266667  0.066667  0.000000      2.000000
  0.333333  0.066667 -0.000000      2.000000
  0.400000  0.066667 -0.000000      2.000000
  0.466667  0.066667 -0.000000      2.000000
 -0.466667  0.066667  0.000000      2.000000
 -0.400000  0.066667  0.000000      2.000000
 -0.333333  0.066667 -0.000000      2.000000
 -0.266667  0.066667  0.000000      2.000000
 -0.200000  0.066667  0.000000      2.000000
 -0.133333  0.066667  0.000000      2.000000
 -0.066667  0.066667 -0.000000      2.000000
  0.000000  0.133333 -0.000000      2.000000
  0.066667  0.133333 -0.000000      2.000000
  0.133333  0.133333 -0.000000      2.000000
  0.200000  0.133333 -0.000000      2.000000
  0.266667  0.133333 -0.000000      2.000000
  0.333333  0.133333  0.000000      2.000000
  0.400000  0.133333  0.000000      2.000000
  0.466667  0.133333 -0.000000      2.000000
 -0.466667  0.133333  0.000000      2.000000
 -0.400000  0.133333  0.000000      2.000000
 -0.333333  0.133333  0.000000      2.000000
 -0.266667  0.133333 -0.000000      2.000000
 -0.200000  0.133333  0.000000      2.000000
 -0.133333  0.133333 -0.000000      2.000000
 -0.066667  0.133333 -0.000000      2.000000
 -0.000000  0.200000  0.000000      2.000000
  0.066667  0.200000  0.000000      2.000000
  0.133333  0.200000  0.000000      2.000000
  0.200000  0.200000  0.000000      2.000000
  0.266667  0.200000  0.000000      2.000000
  0.333333  0.200000  0.000000      2.000000
  0.400000  0.200000  0.000000      2.000000
  0.466667  0.200000  0.000000      2.000000
 -0.466667  0.200000  0.000000      2.000000
 -0.400000  0.200000  0.000000      2.000000
 -0.333333  0.200000  0.000000      2.000000
 -0.266667  0.200000  0.000000      2.000000
 -0.200000  0.200000  0.000000      2.000000
 -0.133333  0.200000  0.000000      2.000000
 -0.066667  0.200000  0.000000      2.000000
  0.000000  0.266667 -0.000000      2.000000
  0.066667  0.266667 -0.000000      2.000000
  0.133333  0.266667  0.000000      2.000000
  0.200000  0.266667  0.000000      2.000000
  0.266667  0.266667 -0.000000      2.000000
  0.333333  0.266667 -0.000000      2.000000
  0.400000  0.266667  0.000000      2.000000
  0.466667  0.266667 -0.000000      2.000000
 -0.466667  0.266667  0.000000      2.000000
 -0.400000  0.266667  0.000000      2.000000
 -0.333333  0.266667 -0.000000      2.000000
 -0.266667  0.266667  0.000000      2.000000
 -0.200000  0.266667 -0.000000      2.000000
 -0.133333  0.266667  0.000000      2.000000
 -0.066667  0.266667 -0.000000      2.000000
 -0.000000  0.333333  0.000000      2.000000
  0.066667  0.333333  0.000000      2.000000
  0.133333  0.333333 -0.000000      2.000000
  0.200000  0.333333 -0.000000      2.000000
  0.266667  0.333333  0.000000      2.000000
  0.333333  0.333333 -0.000000      2.000000
  0.400000  0.333333 -0.000000      2.000000
  0.466667  0.333333 -0.000000      2.000000
 -0.466667  0.333333  0.000000      2.000000
 -0.400000  0.333333  0.000000      2.000000
 -0.333333  0.333333  0.000000      2.000000
 -0.266667  0.333333  0.000000      2.000000
 -0.200000  0.333333  0.000000      2.000000
 -0.133333  0.333333  0.000000      2.000000
 -0.066667  0.333333  0.000000      2.000000
 -0.000000  0.400000  0.000000      2.000000
  0.066667  0.400000  0.000000      2.000000
  0.133333  0.400000  0.000000      2.000000
  0.200000  0.400000 -0.000000      2.000000
  0.266667  0.400000 -0.000000      2.000000
  0.333333  0.400000  0.000000      2.000000
  0.400000  0.400000  0.000000      2.000000
  0.466667  0.400000 -0.000000      2.000000
 -0.466667  0.400000 -0.000000      2.000000
 -0.400000  0.400000  0.000000      2.000000
 -0.333333  0.400000  0.000000      2.000000
 -0.266667  0.400000 -0.000000      2.000000
 -0.200000  0.400000  0.000000      2.000000
 -0.133333  0.400000  0.000000      2.000000
 -0.066667  0.400000  0.000000      2.000000
 -0.000000  0.466667  0.000000      2.000000
  0.066667  0.466667  0.000000      2.000000
  0.133333  0.466667  0.000000      2.000000
  0.200000  0.466667 -0.000000      2.000000
  0.266667  0.466667 -0.000000      2.000000
  0.333333  0.466667  0.000000      2.000000
  0.400000  0.466667  0.000000      2.000000
  0.466667  0.466667  0.000000      2.000000
 -0.466667  0.466667  0.000000      2.000000
 -0.400000  0.466667  0.000000      2.000000
 -0.333333  0.466667  0.000000      2.000000
 -0.266667  0.466667  0.000000      2.000000
 -0.200000  0.466667  0.000000      2.000000
 -0.133333  0.466667  0.000000      2.000000
 -0.066667  0.466667  0.000000      2.000000
 
 Following cartesian coordinates:
            Coordinates               Weight
  0.000000  0.000000  0.000000      1.000000
  0.015213  0.000057  0.000058      2.000000
  0.030426  0.000115  0.000115      2.000000
  0.045639  0.000172  0.000173      2.000000
  0.060852  0.000229  0.000231      2.000000
  0.076065  0.000286  0.000288      2.000000
  0.091278  0.000344  0.000346      2.000000
  0.106491  0.000401  0.000404      2.000000
  0.000058  0.015531  0.000059      2.000000
  0.015271  0.015589  0.000117      2.000000
  0.030484  0.015646  0.000174      2.000000
  0.045697  0.015703  0.000232      2.000000
  0.060910  0.015761  0.000290      2.000000
  0.076123  0.015818  0.000347      2.000000
  0.091336  0.015875  0.000405      2.000000
  0.106549  0.015932  0.000463      2.000000
 -0.106432  0.015131 -0.000345      2.000000
 -0.091219  0.015188 -0.000287      2.000000
 -0.076006  0.015245 -0.000230      2.000000
 -0.060793  0.015302 -0.000172      2.000000
 -0.045580  0.015360 -0.000114      2.000000
 -0.030367  0.015417 -0.000056      2.000000
 -0.015154  0.015474  0.000001      2.000000
  0.000117  0.031063  0.000118      2.000000
  0.015330  0.031120  0.000176      2.000000
  0.030543  0.031178  0.000233      2.000000
  0.045756  0.031235  0.000291      2.000000
  0.060969  0.031292  0.000349      2.000000
  0.076182  0.031349  0.000406      2.000000
  0.091395  0.031407  0.000464      2.000000
  0.106608  0.031464  0.000522      2.000000
 -0.106374  0.030662 -0.000286      2.000000
 -0.091161  0.030719 -0.000228      2.000000
 -0.075948  0.030777 -0.000171      2.000000
 -0.060735  0.030834 -0.000113      2.000000
 -0.045522  0.030891 -0.000055      2.000000
 -0.030309  0.030948  0.000002      2.000000
 -0.015096  0.031006  0.000060      2.000000
  0.000175  0.046594  0.000177      2.000000
  0.015388  0.046652  0.000234      2.000000
  0.030601  0.046709  0.000292      2.000000
  0.045814  0.046766  0.000350      2.000000
  0.061027  0.046824  0.000407      2.000000
  0.076240  0.046881  0.000465      2.000000
  0.091453  0.046938  0.000523      2.000000
  0.106666  0.046995  0.000581      2.000000
 -0.106315  0.046194 -0.000227      2.000000
 -0.091102  0.046251 -0.000169      2.000000
 -0.075889  0.046308 -0.000112      2.000000
 -0.060676  0.046365 -0.000054      2.000000
 -0.045463  0.046423  0.000004      2.000000
 -0.030250  0.046480  0.000061      2.000000
 -0.015038  0.046537  0.000119      2.000000
  0.000234  0.062126  0.000236      2.000000
  0.015447  0.062183  0.000293      2.000000
  0.030660  0.062240  0.000351      2.000000
  0.045873  0.062298  0.000409      2.000000
  0.061086  0.062355  0.000466      2.000000
  0.076299  0.062412  0.000524      2.000000
  0.091512  0.062470  0.000582      2.000000
  0.106724  0.062527  0.000639      2.000000
 -0.106257  0.061725 -0.000168      2.000000
 -0.091044  0.061782 -0.000111      2.000000
 -0.075831  0.061840 -0.000053      2.000000
 -0.060618  0.061897  0.000005      2.000000
 -0.045405  0.061954  0.000063      2.000000
 -0.030192  0.062011  0.000120      2.000000
 -0.014979  0.062069  0.000178      2.000000
  0.000292  0.077657  0.000295      2.000000
  0.015505  0.077715  0.000352      2.000000
  0.030718  0.077772  0.000410      2.000000
  0.045931  0.077829  0.000468      2.000000
  0.061144  0.077886  0.000525      2.000000
  0.076357  0.077944  0.000583      2.000000
  0.091570  0.078001  0.000641      2.000000
  0.106783  0.078058  0.000698      2.000000
 -0.106198  0.077257 -0.000109      2.000000
 -0.090985  0.077314 -0.000052      2.000000
 -0.075772  0.077371  0.000006      2.000000
 -0.060559  0.077428  0.000064      2.000000
 -0.045347  0.077486  0.000121      2.000000
 -0.030134  0.077543  0.000179      2.000000
 -0.014921  0.077600  0.000237      2.000000
  0.000351  0.093189  0.000353      2.000000
  0.015564  0.093246  0.000411      2.000000
  0.030777  0.093303  0.000469      2.000000
  0.045990  0.093361  0.000527      2.000000
  0.061203  0.093418  0.000584      2.000000
  0.076416  0.093475  0.000642      2.000000
  0.091628  0.093533  0.000700      2.000000
  0.106841  0.093590  0.000757      2.000000
 -0.106140  0.092788 -0.000050      2.000000
 -0.090927  0.092845  0.000007      2.000000
 -0.075714  0.092903  0.000065      2.000000
 -0.060501  0.092960  0.000123      2.000000
 -0.045288  0.093017  0.000180      2.000000
 -0.030075  0.093074  0.000238      2.000000
 -0.014862  0.093132  0.000296      2.000000
  0.000409  0.108720  0.000412      2.000000
  0.015622  0.108778  0.000470      2.000000
  0.030835  0.108835  0.000528      2.000000
  0.046048  0.108892  0.000585      2.000000
  0.061261  0.108949  0.000643      2.000000
  0.076474  0.109007  0.000701      2.000000
  0.091687  0.109064  0.000759      2.000000
  0.106900  0.109121  0.000816      2.000000
 -0.106081  0.108320  0.000008      2.000000
 -0.090868  0.108377  0.000066      2.000000
 -0.075655  0.108434  0.000124      2.000000
 -0.060443  0.108491  0.000182      2.000000
 -0.045230  0.108549  0.000239      2.000000
 -0.030017  0.108606  0.000297      2.000000
 -0.014804  0.108663  0.000355      2.000000
 


--------------------------------------------------------------------------------------------------------




 Dimension of arrays:
   k-points           NKPTS =    113   k-points in BZ     NKDIM =    113   number of bands    NBANDS=     14
   number of dos      NEDOS =    301   number of ions     NIONS =      4
   non local maximal  LDIM  =      5   non local SUM 2l+1 LMDIM =     13
   total plane-waves  NPLWV = 207360
   max r-space proj   IRMAX =      1   max aug-charges    IRDMAX=  53650
   dimension x,y,z NGX =    36 NGY =   36 NGZ =  160
   dimension x,y,z NGXF=    72 NGYF=   72 NGZF=  320
   support grid    NGXF=    72 NGYF=   72 NGZF=  320
   ions per type =               2   2
   NGX,Y,Z   is equivalent  to a cutoff of  13.66, 13.94, 13.40 a.u.
   NGXF,Y,Z  is equivalent  to a cutoff of  27.31, 27.88, 26.80 a.u.

 SYSTEM =  SnSe                                    
 POSCAR =   POSCAR with strain of -0.007           

 Startparameter for this run:
   NWRITE =      2    write-flag & timer
   PREC   = accura    normal or accurate (medium, high low for compatibility)
   ISTART =      0    job   : 0-new  1-cont  2-samecut
   ICHARG =      2    charge: 1-file 2-atom 10-const
   ISPIN  =      1    spin polarized calculation?
   LNONCOLLINEAR =      F non collinear calculations
   LSORBIT =      F    spin-orbit coupling
   INIWAV =      1    electr: 0-lowe 1-rand  2-diag
   LASPH  =      F    aspherical Exc in radial PAW
   METAGGA=      F    non-selfconsistent MetaGGA calc.

 Electronic Relaxation 1
   ENCUT  =  600.0 eV  44.10 Ry    6.64 a.u.   8.75  8.57 39.65*2*pi/ulx,y,z
   ENINI  =  600.0     initial cutoff
   ENAUG  =  446.8 eV  augmentation charge cutoff
   NELM   =     60;   NELMIN=  2; NELMDL= -5     # of ELM steps 
   EDIFF  = 0.1E-05   stopping-criterion for ELM
   LREAL  =      F    real-space projection
   NLSPLINE    = F    spline interpolate recip. space projectors
   LCOMPAT=      F    compatible to vasp.4.4
   GGA_COMPAT  = T    GGA compatible to vasp.4.4-vasp.4.6
   LMAXPAW     = -100 max onsite density
   LMAXMIX     =    2 max onsite mixed and CHGCAR
   VOSKOWN=      0    Vosko Wilk Nusair interpolation
   ROPT   =    0.00000   0.00000
 Ionic relaxation
   EDIFFG = -.1E-02   stopping-criterion for IOM
   NSW    =    100    number of steps for IOM
   NBLOCK =      1;   KBLOCK =    100    inner block; outer block 
   IBRION =      2    ionic relax: 0-MD 1-quasi-New 2-CG
   NFREE  =      1    steps in history (QN), initial steepest desc. (CG)
   ISIF   =      2    stress and relaxation
   IWAVPR =     11    prediction:  0-non 1-charg 2-wave 3-comb
   ISYM   =      0    0-nonsym 1-usesym 2-fastsym
   LCORR  =      T    Harris-Foulkes like correction to forces

   POTIM  = 0.5000    time-step for ionic-motion
   TEIN   =    0.0    initial temperature
   TEBEG  =    0.0;   TEEND  =   0.0 temperature during run
   SMASS  =  -3.00    Nose mass-parameter (am)
   estimated Nose-frequenzy (Omega)   =  0.10E-29 period in steps =****** mass=  -0.439E-27a.u.
   SCALEE = 1.0000    scale energy and forces
   NPACO  =    256;   APACO  = 16.0  distance and # of slots for P.C.
   PSTRESS=    0.0 pullay stress

  Mass of Ions in am
   POMASS = 118.71 78.96
  Ionic Valenz
   ZVAL   =   4.00  6.00
  Atomic Wigner-Seitz radii
   RWIGS  =  -1.00 -1.00
  virtual crystal weights 
   VCA    =   1.00  1.00
   NELECT =      20.0000    total number of electrons
   NUPDOWN=      -1.0000    fix difference up-down

 DOS related values:
   EMIN   =  10.00;   EMAX   =-10.00  energy-range for DOS
   EFERMI =   0.00
   ISMEAR =     0;   SIGMA  =   0.10  broadening in eV -4-tet -1-fermi 0-gaus

 Electronic relaxation 2 (details)
   IALGO  =     38    algorithm
   LDIAG  =      T    sub-space diagonalisation (order eigenvalues)
   LSUBROT=      F    optimize rotation matrix (better conditioning)
   TURBO    =      0    0=normal 1=particle mesh
   IRESTART =      0    0=no restart 2=restart with 2 vectors
   NREBOOT  =      0    no. of reboots
   NMIN     =      0    reboot dimension
   EREF     =   0.00    reference energy to select bands
   IMIX   =      4    mixing-type and parameters
     AMIX     =   0.40;   BMIX     =  1.00
     AMIX_MAG =   1.60;   BMIX_MAG =  1.00
     AMIN     =   0.10
     WC   =   100.;   INIMIX=   1;  MIXPRE=   1;  MAXMIX= -45

 Intra band minimization:
   WEIMIN = 0.0010     energy-eigenvalue tresh-hold
   EBREAK =  0.18E-07  absolut break condition
   DEPER  =   0.30     relativ break condition  

   TIME   =   0.40     timestep for ELM

  volume/ion in A,a.u.               =      93.35       629.93
  Fermi-wavevector in a.u.,A,eV,Ry     =   0.617114  1.166177  5.181506  0.380830
  Thomas-Fermi vector in A             =   1.675084
 
 Write flags
   LWAVE        =      T    write WAVECAR
   LDOWNSAMPLE  =      F    k-point downsampling of WAVECAR
   LCHARG       =      T    write CHGCAR
   LVTOT        =      F    write LOCPOT, total local potential
   LVHAR        =      F    write LOCPOT, Hartree potential only
   LELF         =      F    write electronic localiz. function (ELF)
   LORBIT       =      0    0 simple, 1 ext, 2 COOP (PROOUT), +10 PAW based schemes


 Dipole corrections
   LMONO  =      F    monopole corrections only (constant potential shift)
   LDIPOL =      F    correct potential (dipole corrections)
   IDIPOL =      0    1-x, 2-y, 3-z, 4-all directions 
   EPSILON=  1.0000000 bulk dielectric constant

 Exchange correlation treatment:
   GGA     =    PE    GGA type
   LEXCH   =     8    internal setting for exchange type
   VOSKOWN=      0    Vosko Wilk Nusair interpolation
   LHFCALC =     F    Hartree Fock is set to
   LHFONE  =     F    Hartree Fock one center treatment
   AEXX    =    0.0000 exact exchange contribution

 Linear response parameters
   LEPSILON=     F    determine dielectric tensor
   LRPA    =     F    only Hartree local field effects (RPA)
   LNABLA  =     F    use nabla operator in PAW spheres
   LVEL    =     F    velocity operator in full k-point grid
   LINTERFAST=   F  fast interpolation
   KINTER  =     0    interpolate to denser k-point grid
   CSHIFT  =0.1000    complex shift for real part using Kramers Kronig
   OMEGAMAX=  -1.0    maximum frequency
   DEG_THRESHOLD= 0.2000000E-02 threshold for treating states as degnerate
   RTIME   =   -0.100 relaxation time in fs
  (WPLASMAI=    0.000 imaginary part of plasma frequency in eV, 0.658/RTIME)
   DFIELD  = 0.0000000 0.0000000 0.0000000 field for delta impulse in time
 
 Orbital magnetization related:
   ORBITALMAG=     F  switch on orbital magnetization
   LCHIMAG   =     F  perturbation theory with respect to B field
   DQ        =  0.001000  dq finite difference perturbation B field
   LLRAUG    =     F  two centre corrections for induced B field



--------------------------------------------------------------------------------------------------------


 conjugate gradient relaxation of ions
 charge density and potential will be updated during run
 non-spin polarized calculation
 Variant of blocked Davidson
 Davidson routine will perform the subspace rotation
 perform sub-space diagonalisation
    after iterative eigenvector-optimisation
 modified Broyden-mixing scheme, WC =      100.0
 initial mixing is a Kerker type mixing with AMIX =  0.4000 and BMIX =      1.0000
 Hartree-type preconditioning will be used
 using additional bands            4
 reciprocal scheme for non local part
 use partial core corrections
 calculate Harris-corrections to forces 
   (improved forces if not selfconsistent)
 use gradient corrections 
 use of overlap-Matrix (Vanderbilt PP)
 Gauss-broadening in eV      SIGMA  =   0.10


--------------------------------------------------------------------------------------------------------


  energy-cutoff  :      600.00
  volume of cell :      373.39
      direct lattice vectors                 reciprocal lattice vectors
     4.382356765 -0.016433838 -0.016433838     0.228194187  0.000858974  0.000865440
    -0.016096792  4.292477857 -0.016096792     0.000876959  0.232972277  0.000883561
    -0.075000000 -0.075000000 19.850000000     0.000189633  0.000189633  0.050379267

  length of vectors
     4.382418391  4.292538220 19.850283373     0.228197445  0.232975603  0.050379981


 
 k-points in units of 2pi/SCALE and weight: KMesh Grid                              
   0.00000000  0.00000000  0.00000000       0.004
   0.01521295  0.00005726  0.00005770       0.009
   0.03042589  0.00011453  0.00011539       0.009
   0.04563884  0.00017179  0.00017309       0.009
   0.06085178  0.00022906  0.00023078       0.009
   0.07606473  0.00028632  0.00028848       0.009
   0.09127767  0.00034359  0.00034618       0.009
   0.10649062  0.00040085  0.00040387       0.009
   0.00005846  0.01553149  0.00005890       0.009
   0.01527141  0.01558875  0.00011660       0.009
   0.03048436  0.01564601  0.00017430       0.009
   0.04569730  0.01570328  0.00023199       0.009
   0.06091025  0.01576054  0.00028969       0.009
   0.07612319  0.01581781  0.00034738       0.009
   0.09133614  0.01587507  0.00040508       0.009
   0.10654908  0.01593234  0.00046278       0.009
  -0.10643216  0.01513063 -0.00034497       0.009
  -0.09121921  0.01518790 -0.00028727       0.009
  -0.07600627  0.01524516 -0.00022958       0.009
  -0.06079332  0.01530243 -0.00017188       0.009
  -0.04558037  0.01535969 -0.00011418       0.009
  -0.03036743  0.01541696 -0.00005649       0.009
  -0.01515448  0.01547422  0.00000121       0.009
   0.00011693  0.03106297  0.00011781       0.009
   0.01532987  0.03112024  0.00017550       0.009
   0.03054282  0.03117750  0.00023320       0.009
   0.04575577  0.03123476  0.00029090       0.009
   0.06096871  0.03129203  0.00034859       0.009
   0.07618166  0.03134929  0.00040629       0.009
   0.09139460  0.03140656  0.00046398       0.009
   0.10660755  0.03146382  0.00052168       0.009
  -0.10637369  0.03066212 -0.00028606       0.009
  -0.09116075  0.03071938 -0.00022837       0.009
  -0.07594780  0.03077665 -0.00017067       0.009
  -0.06073486  0.03083391 -0.00011298       0.009
  -0.04552191  0.03089118 -0.00005528       0.009
  -0.03030896  0.03094844  0.00000242       0.009
  -0.01509602  0.03100571  0.00006011       0.009
   0.00017539  0.04659446  0.00017671       0.009
   0.01538834  0.04665172  0.00023441       0.009
   0.03060128  0.04670899  0.00029210       0.009
   0.04581423  0.04676625  0.00034980       0.009
   0.06102718  0.04682351  0.00040750       0.009
   0.07624012  0.04688078  0.00046519       0.009
   0.09145307  0.04693804  0.00052289       0.009
   0.10666601  0.04699531  0.00058058       0.009
  -0.10631523  0.04619360 -0.00022716       0.009
  -0.09110228  0.04625087 -0.00016946       0.009
  -0.07588934  0.04630813 -0.00011177       0.009
  -0.06067639  0.04636540 -0.00005407       0.009
  -0.04546345  0.04642266  0.00000362       0.009
  -0.03025050  0.04647993  0.00006132       0.009
  -0.01503755  0.04653719  0.00011902       0.009
   0.00023386  0.06212594  0.00023562       0.009
   0.01544680  0.06218321  0.00029331       0.009
   0.03065975  0.06224047  0.00035101       0.009
   0.04587269  0.06229774  0.00040870       0.009
   0.06108564  0.06235500  0.00046640       0.009
   0.07629858  0.06241226  0.00052410       0.009
   0.09151153  0.06246953  0.00058179       0.009
   0.10672448  0.06252679  0.00063949       0.009
  -0.10625676  0.06172509 -0.00016826       0.009
  -0.09104382  0.06178235 -0.00011056       0.009
  -0.07583087  0.06183962 -0.00005286       0.009
  -0.06061793  0.06189688  0.00000483       0.009
  -0.04540498  0.06195415  0.00006253       0.009
  -0.03019204  0.06201141  0.00012022       0.009
  -0.01497909  0.06206868  0.00017792       0.009
   0.00029232  0.07765743  0.00029452       0.009
   0.01550527  0.07771469  0.00035222       0.009
   0.03071821  0.07777196  0.00040991       0.009
   0.04593116  0.07782922  0.00046761       0.009
   0.06114410  0.07788649  0.00052530       0.009
   0.07635705  0.07794375  0.00058300       0.009
   0.09156999  0.07800101  0.00064070       0.009
   0.10678294  0.07805828  0.00069839       0.009
  -0.10619830  0.07725657 -0.00010935       0.009
  -0.09098535  0.07731384 -0.00005166       0.009
  -0.07577241  0.07737110  0.00000604       0.009
  -0.06055946  0.07742837  0.00006374       0.009
  -0.04534652  0.07748563  0.00012143       0.009
  -0.03013357  0.07754290  0.00017913       0.009
  -0.01492063  0.07760016  0.00023682       0.009
   0.00035078  0.09318891  0.00035342       0.009
   0.01556373  0.09324618  0.00041112       0.009
   0.03077668  0.09330344  0.00046882       0.009
   0.04598962  0.09336071  0.00052651       0.009
   0.06120257  0.09341797  0.00058421       0.009
   0.07641551  0.09347524  0.00064190       0.009
   0.09162846  0.09353250  0.00069960       0.009
   0.10684140  0.09358976  0.00075730       0.009
  -0.10613984  0.09278806 -0.00005045       0.009
  -0.09092689  0.09284532  0.00000725       0.009
  -0.07571395  0.09290259  0.00006494       0.009
  -0.06050100  0.09295985  0.00012264       0.009
  -0.04528805  0.09301712  0.00018034       0.009
  -0.03007511  0.09307438  0.00023803       0.009
  -0.01486216  0.09313165  0.00029573       0.009
   0.00040925  0.10872040  0.00041233       0.009
   0.01562219  0.10877766  0.00047002       0.009
   0.03083514  0.10883493  0.00052772       0.009
   0.04604809  0.10889219  0.00058542       0.009
   0.06126103  0.10894946  0.00064311       0.009
   0.07647398  0.10900672  0.00070081       0.009
   0.09168692  0.10906399  0.00075850       0.009
   0.10689987  0.10912125  0.00081620       0.009
  -0.10608137  0.10831954  0.00000846       0.009
  -0.09086843  0.10837681  0.00006615       0.009
  -0.07565548  0.10843407  0.00012385       0.009
  -0.06044254  0.10849134  0.00018154       0.009
  -0.04522959  0.10854860  0.00023924       0.009
  -0.03001664  0.10860587  0.00029694       0.009
  -0.01480370  0.10866313  0.00035463       0.009
 
 k-points in reciprocal lattice and weights: KMesh Grid                              
   0.00000000  0.00000000  0.00000000       0.004
   0.06666667 -0.00000000 -0.00000000       0.009
   0.13333333 -0.00000000 -0.00000000       0.009
   0.20000000 -0.00000000 -0.00000000       0.009
   0.26666667 -0.00000000 -0.00000000       0.009
   0.33333333  0.00000000  0.00000000       0.009
   0.40000000 -0.00000000 -0.00000000       0.009
   0.46666667 -0.00000000  0.00000000       0.009
  -0.00000000  0.06666667 -0.00000000       0.009
   0.06666667  0.06666667 -0.00000000       0.009
   0.13333333  0.06666667 -0.00000000       0.009
   0.20000000  0.06666667 -0.00000000       0.009
   0.26666667  0.06666667  0.00000000       0.009
   0.33333333  0.06666667 -0.00000000       0.009
   0.40000000  0.06666667 -0.00000000       0.009
   0.46666667  0.06666667 -0.00000000       0.009
  -0.46666667  0.06666667  0.00000000       0.009
  -0.40000000  0.06666667  0.00000000       0.009
  -0.33333333  0.06666667 -0.00000000       0.009
  -0.26666667  0.06666667  0.00000000       0.009
  -0.20000000  0.06666667  0.00000000       0.009
  -0.13333333  0.06666667  0.00000000       0.009
  -0.06666667  0.06666667 -0.00000000       0.009
   0.00000000  0.13333333 -0.00000000       0.009
   0.06666667  0.13333333 -0.00000000       0.009
   0.13333333  0.13333333 -0.00000000       0.009
   0.20000000  0.13333333 -0.00000000       0.009
   0.26666667  0.13333333 -0.00000000       0.009
   0.33333333  0.13333333  0.00000000       0.009
   0.40000000  0.13333333  0.00000000       0.009
   0.46666667  0.13333333 -0.00000000       0.009
  -0.46666667  0.13333333  0.00000000       0.009
  -0.40000000  0.13333333  0.00000000       0.009
  -0.33333333  0.13333333  0.00000000       0.009
  -0.26666667  0.13333333 -0.00000000       0.009
  -0.20000000  0.13333333  0.00000000       0.009
  -0.13333333  0.13333333 -0.00000000       0.009
  -0.06666667  0.13333333 -0.00000000       0.009
  -0.00000000  0.20000000  0.00000000       0.009
   0.06666667  0.20000000  0.00000000       0.009
   0.13333333  0.20000000  0.00000000       0.009
   0.20000000  0.20000000  0.00000000       0.009
   0.26666667  0.20000000  0.00000000       0.009
   0.33333333  0.20000000  0.00000000       0.009
   0.40000000  0.20000000  0.00000000       0.009
   0.46666667  0.20000000  0.00000000       0.009
  -0.46666667  0.20000000  0.00000000       0.009
  -0.40000000  0.20000000  0.00000000       0.009
  -0.33333333  0.20000000  0.00000000       0.009
  -0.26666667  0.20000000  0.00000000       0.009
  -0.20000000  0.20000000  0.00000000       0.009
  -0.13333333  0.20000000  0.00000000       0.009
  -0.06666667  0.20000000  0.00000000       0.009
   0.00000000  0.26666667 -0.00000000       0.009
   0.06666667  0.26666667 -0.00000000       0.009
   0.13333333  0.26666667  0.00000000       0.009
   0.20000000  0.26666667  0.00000000       0.009
   0.26666667  0.26666667 -0.00000000       0.009
   0.33333333  0.26666667 -0.00000000       0.009
   0.40000000  0.26666667  0.00000000       0.009
   0.46666667  0.26666667 -0.00000000       0.009
  -0.46666667  0.26666667  0.00000000       0.009
  -0.40000000  0.26666667  0.00000000       0.009
  -0.33333333  0.26666667 -0.00000000       0.009
  -0.26666667  0.26666667  0.00000000       0.009
  -0.20000000  0.26666667 -0.00000000       0.009
  -0.13333333  0.26666667  0.00000000       0.009
  -0.06666667  0.26666667 -0.00000000       0.009
  -0.00000000  0.33333333  0.00000000       0.009
   0.06666667  0.33333333  0.00000000       0.009
   0.13333333  0.33333333 -0.00000000       0.009
   0.20000000  0.33333333 -0.00000000       0.009
   0.26666667  0.33333333  0.00000000       0.009
   0.33333333  0.33333333 -0.00000000       0.009
   0.40000000  0.33333333 -0.00000000       0.009
   0.46666667  0.33333333 -0.00000000       0.009
  -0.46666667  0.33333333  0.00000000       0.009
  -0.40000000  0.33333333  0.00000000       0.009
  -0.33333333  0.33333333  0.00000000       0.009
  -0.26666667  0.33333333  0.00000000       0.009
  -0.20000000  0.33333333  0.00000000       0.009
  -0.13333333  0.33333333  0.00000000       0.009
  -0.06666667  0.33333333  0.00000000       0.009
  -0.00000000  0.40000000  0.00000000       0.009
   0.06666667  0.40000000  0.00000000       0.009
   0.13333333  0.40000000  0.00000000       0.009
   0.20000000  0.40000000 -0.00000000       0.009
   0.26666667  0.40000000 -0.00000000       0.009
   0.33333333  0.40000000  0.00000000       0.009
   0.40000000  0.40000000  0.00000000       0.009
   0.46666667  0.40000000 -0.00000000       0.009
  -0.46666667  0.40000000 -0.00000000       0.009
  -0.40000000  0.40000000  0.00000000       0.009
  -0.33333333  0.40000000  0.00000000       0.009
  -0.26666667  0.40000000 -0.00000000       0.009
  -0.20000000  0.40000000  0.00000000       0.009
  -0.13333333  0.40000000  0.00000000       0.009
  -0.06666667  0.40000000  0.00000000       0.009
  -0.00000000  0.46666667  0.00000000       0.009
   0.06666667  0.46666667  0.00000000       0.009
   0.13333333  0.46666667  0.00000000       0.009
   0.20000000  0.46666667 -0.00000000       0.009
   0.26666667  0.46666667 -0.00000000       0.009
   0.33333333  0.46666667  0.00000000       0.009
   0.40000000  0.46666667  0.00000000       0.009
   0.46666667  0.46666667  0.00000000       0.009
  -0.46666667  0.46666667  0.00000000       0.009
  -0.40000000  0.46666667  0.00000000       0.009
  -0.33333333  0.46666667  0.00000000       0.009
  -0.26666667  0.46666667  0.00000000       0.009
  -0.20000000  0.46666667  0.00000000       0.009
  -0.13333333  0.46666667  0.00000000       0.009
  -0.06666667  0.46666667  0.00000000       0.009
 
 position of ions in fractional coordinates (direct lattice) 
   0.58124336  0.75000000  0.56874314
   0.08124336  0.25000000  0.43125686
   0.03286064  0.25000000  0.56707387
   0.53286061  0.75000000  0.43292613
 
 position of ions in cartesian coordinates  (Angst):
   2.49248743  3.16715060 11.26792670
   0.31966892  1.03944006  8.55508930
   0.09745232  1.03004890 11.25185202
   2.29064327  3.17813199  8.57275421
 


--------------------------------------------------------------------------------------------------------


 k-point  1 :   0.0000 0.0000 0.0000  plane waves:   12525
 k-point  2 :   0.0667-0.0000-0.0000  plane waves:   12492
 k-point  3 :   0.1333-0.0000-0.0000  plane waves:   12479
 k-point  4 :   0.2000-0.0000-0.0000  plane waves:   12460
 k-point  5 :   0.2667-0.0000-0.0000  plane waves:   12449
 k-point  6 :   0.3333 0.0000 0.0000  plane waves:   12477
 k-point  7 :   0.4000-0.0000-0.0000  plane waves:   12499
 k-point  8 :   0.4667-0.0000 0.0000  plane waves:   12485
 k-point  9 :  -0.0000 0.0667-0.0000  plane waves:   12504
 k-point 10 :   0.0667 0.0667-0.0000  plane waves:   12509
 k-point 11 :   0.1333 0.0667-0.0000  plane waves:   12490
 k-point 12 :   0.2000 0.0667-0.0000  plane waves:   12472
 k-point 13 :   0.2667 0.0667 0.0000  plane waves:   12469
 k-point 14 :   0.3333 0.0667-0.0000  plane waves:   12490
 k-point 15 :   0.4000 0.0667-0.0000  plane waves:   12494
 k-point 16 :   0.4667 0.0667-0.0000  plane waves:   12490
 k-point 17 :  -0.4667 0.0667 0.0000  plane waves:   12495
 k-point 18 :  -0.4000 0.0667 0.0000  plane waves:   12486
 k-point 19 :  -0.3333 0.0667-0.0000  plane waves:   12477
 k-point 20 :  -0.2667 0.0667 0.0000  plane waves:   12462
 k-point 21 :  -0.2000 0.0667 0.0000  plane waves:   12457
 k-point 22 :  -0.1333 0.0667 0.0000  plane waves:   12478
 k-point 23 :  -0.0667 0.0667-0.0000  plane waves:   12496
 k-point 24 :   0.0000 0.1333-0.0000  plane waves:   12498
 k-point 25 :   0.0667 0.1333-0.0000  plane waves:   12501
 k-point 26 :   0.1333 0.1333-0.0000  plane waves:   12481
 k-point 27 :   0.2000 0.1333-0.0000  plane waves:   12478
 k-point 28 :   0.2667 0.1333-0.0000  plane waves:   12473
 k-point 29 :   0.3333 0.1333 0.0000  plane waves:   12481
 k-point 30 :   0.4000 0.1333 0.0000  plane waves:   12484
 k-point 31 :   0.4667 0.1333-0.0000  plane waves:   12477
 k-point 32 :  -0.4667 0.1333 0.0000  plane waves:   12480
 k-point 33 :  -0.4000 0.1333 0.0000  plane waves:   12471
 k-point 34 :  -0.3333 0.1333 0.0000  plane waves:   12463
 k-point 35 :  -0.2667 0.1333-0.0000  plane waves:   12457
 k-point 36 :  -0.2000 0.1333 0.0000  plane waves:   12449
 k-point 37 :  -0.1333 0.1333-0.0000  plane waves:   12479
 k-point 38 :  -0.0667 0.1333-0.0000  plane waves:   12484
 k-point 39 :  -0.0000 0.2000 0.0000  plane waves:   12479
 k-point 40 :   0.0667 0.2000 0.0000  plane waves:   12489
 k-point 41 :   0.1333 0.2000 0.0000  plane waves:   12479
 k-point 42 :   0.2000 0.2000 0.0000  plane waves:   12487
 k-point 43 :   0.2667 0.2000 0.0000  plane waves:   12476
 k-point 44 :   0.3333 0.2000 0.0000  plane waves:   12476
 k-point 45 :   0.4000 0.2000 0.0000  plane waves:   12471
 k-point 46 :   0.4667 0.2000 0.0000  plane waves:   12473
 k-point 47 :  -0.4667 0.2000 0.0000  plane waves:   12470
 k-point 48 :  -0.4000 0.2000 0.0000  plane waves:   12463
 k-point 49 :  -0.3333 0.2000 0.0000  plane waves:   12460
 k-point 50 :  -0.2667 0.2000 0.0000  plane waves:   12450
 k-point 51 :  -0.2000 0.2000 0.0000  plane waves:   12461
 k-point 52 :  -0.1333 0.2000 0.0000  plane waves:   12476
 k-point 53 :  -0.0667 0.2000 0.0000  plane waves:   12474
 k-point 54 :   0.0000 0.2667-0.0000  plane waves:   12467
 k-point 55 :   0.0667 0.2667-0.0000  plane waves:   12465
 k-point 56 :   0.1333 0.2667 0.0000  plane waves:   12468
 k-point 57 :   0.2000 0.2667 0.0000  plane waves:   12472
 k-point 58 :   0.2667 0.2667-0.0000  plane waves:   12460
 k-point 59 :   0.3333 0.2667-0.0000  plane waves:   12468
 k-point 60 :   0.4000 0.2667 0.0000  plane waves:   12471
 k-point 61 :   0.4667 0.2667-0.0000  plane waves:   12472
 k-point 62 :  -0.4667 0.2667 0.0000  plane waves:   12463
 k-point 63 :  -0.4000 0.2667 0.0000  plane waves:   12456
 k-point 64 :  -0.3333 0.2667-0.0000  plane waves:   12459
 k-point 65 :  -0.2667 0.2667 0.0000  plane waves:   12463
 k-point 66 :  -0.2000 0.2667-0.0000  plane waves:   12467
 k-point 67 :  -0.1333 0.2667 0.0000  plane waves:   12455
 k-point 68 :  -0.0667 0.2667-0.0000  plane waves:   12461
 k-point 69 :  -0.0000 0.3333 0.0000  plane waves:   12446
 k-point 70 :   0.0667 0.3333 0.0000  plane waves:   12443
 k-point 71 :   0.1333 0.3333-0.0000  plane waves:   12453
 k-point 72 :   0.2000 0.3333-0.0000  plane waves:   12459
 k-point 73 :   0.2667 0.3333 0.0000  plane waves:   12456
 k-point 74 :   0.3333 0.3333-0.0000  plane waves:   12461
 k-point 75 :   0.4000 0.3333-0.0000  plane waves:   12455
 k-point 76 :   0.4667 0.3333-0.0000  plane waves:   12460
 k-point 77 :  -0.4667 0.3333 0.0000  plane waves:   12456
 k-point 78 :  -0.4000 0.3333 0.0000  plane waves:   12454
 k-point 79 :  -0.3333 0.3333 0.0000  plane waves:   12444
 k-point 80 :  -0.2667 0.3333 0.0000  plane waves:   12443
 k-point 81 :  -0.2000 0.3333 0.0000  plane waves:   12449
 k-point 82 :  -0.1333 0.3333 0.0000  plane waves:   12446
 k-point 83 :  -0.0667 0.3333 0.0000  plane waves:   12451
 k-point 84 :  -0.0000 0.4000 0.0000  plane waves:   12431
 k-point 85 :   0.0667 0.4000 0.0000  plane waves:   12437
 k-point 86 :   0.1333 0.4000 0.0000  plane waves:   12435
 k-point 87 :   0.2000 0.4000-0.0000  plane waves:   12442
 k-point 88 :   0.2667 0.4000-0.0000  plane waves:   12450
 k-point 89 :   0.3333 0.4000 0.0000  plane waves:   12449
 k-point 90 :   0.4000 0.4000 0.0000  plane waves:   12434
 k-point 91 :   0.4667 0.4000-0.0000  plane waves:   12444
 k-point 92 :  -0.4667 0.4000-0.0000  plane waves:   12455
 k-point 93 :  -0.4000 0.4000 0.0000  plane waves:   12452
 k-point 94 :  -0.3333 0.4000 0.0000  plane waves:   12437
 k-point 95 :  -0.2667 0.4000-0.0000  plane waves:   12433
 k-point 96 :  -0.2000 0.4000 0.0000  plane waves:   12427
 k-point 97 :  -0.1333 0.4000 0.0000  plane waves:   12437
 k-point 98 :  -0.0667 0.4000 0.0000  plane waves:   12438
 k-point 99 :  -0.0000 0.4667 0.0000  plane waves:   12438
 k-point ** :   0.0667 0.4667 0.0000  plane waves:   12434
 k-point ** :   0.1333 0.4667 0.0000  plane waves:   12439
 k-point ** :   0.2000 0.4667-0.0000  plane waves:   12422
 k-point ** :   0.2667 0.4667-0.0000  plane waves:   12427
 k-point ** :   0.3333 0.4667 0.0000  plane waves:   12430
 k-point ** :   0.4000 0.4667 0.0000  plane waves:   12429
 k-point ** :   0.4667 0.4667 0.0000  plane waves:   12439
 k-point ** :  -0.4667 0.4667 0.0000  plane waves:   12447
 k-point ** :  -0.4000 0.4667 0.0000  plane waves:   12439
 k-point ** :  -0.3333 0.4667 0.0000  plane waves:   12441
 k-point ** :  -0.2667 0.4667 0.0000  plane waves:   12424
 k-point ** :  -0.2000 0.4667 0.0000  plane waves:   12431
 k-point ** :  -0.1333 0.4667 0.0000  plane waves:   12434
 k-point ** :  -0.0667 0.4667 0.0000  plane waves:   12435

 maximum and minimum number of plane-waves per node :       536      500

 maximum number of plane-waves:     12525
 maximum index in each direction: 
   IXMAX=    9   IYMAX=    8   IZMAX=   39
   IXMIN=   -9   IYMIN=   -9   IZMIN=  -39


 parallel 3D FFT for wavefunctions:
    minimum data exchange during FFTs selected (reduces bandwidth)
 parallel 3D FFT for charge:
    minimum data exchange during FFTs selected (reduces bandwidth)


 total amount of memory used by VASP MPI-rank0    63465. kBytes
=======================================================================

   base      :      30000. kBytes
   nonl-proj :      12585. kBytes
   fftplans  :       2678. kBytes
   grid      :       4349. kBytes
   one-center:          8. kBytes
   wavefun   :      13845. kBytes
 
     INWAV:  cpu time    0.0000: real time    0.0000
 Broyden mixing: mesh for mixing (old mesh)
   NGX = 17   NGY = 17   NGZ = 79
  (NGX  = 72   NGY  = 72   NGZ  =320)
  gives a total of  22831 points

 initial charge density was supplied:
 charge density of overlapping atoms calculated
 number of electron      20.0000000 magnetization 
 keeping initial charge density in first step


--------------------------------------------------------------------------------------------------------


 Maximum index for augmentation-charges         2242 (set IRDMAX)


--------------------------------------------------------------------------------------------------------


 First call to EWALD:  gamma=   0.246
 Maximum number of real-space cells 4x 4x 1
 Maximum number of reciprocal cells 2x 2x 7

    FEWALD:  cpu time    0.0011: real time    0.0018


--------------------------------------- Iteration      1(   1)  ---------------------------------------


    POTLOK:  cpu time    0.0572: real time    0.2204
    SETDIJ:  cpu time    0.0153: real time    0.0161
     EDDAV:  cpu time    2.4259: real time    2.4350
       DOS:  cpu time    0.0044: real time    0.0044
    --------------------------------------------
      LOOP:  cpu time    2.5028: real time    2.6759

 eigenvalue-minimisations  :  3164
 total energy-change (2. order) : 0.1441987E+03  (-0.6327526E+03)
 number of electron      20.0000000 magnetization 
 augmentation part       20.0000000 magnetization 

 Free energy of the ion-electron system (eV)
  ---------------------------------------------------
  alpha Z        PSCENC =         9.57644489
  Ewald energy   TEWEN  =      1137.16006923
  -Hartree energ DENC   =     -1739.22459574
  -exchange      EXHF   =         0.00000000
  -V(xc)+E(xc)   XCENC  =      -238.55443319
  PAW double counting   =       799.43158084     -524.17639913
  entropy T*S    EENTRO =        -0.01439280
  eigenvalues    EBANDS =        -2.42742651
  atomic energy  EATOM  =       702.42789710
  Solvation  Ediel_sol  =         0.00000000
  ---------------------------------------------------
  free energy    TOTEN  =       144.19874469 eV

  energy without entropy =      144.21313749  energy(sigma->0) =      144.20594109


--------------------------------------------------------------------------------------------------------




--------------------------------------- Iteration      1(   2)  ---------------------------------------


     EDDAV:  cpu time    3.0758: real time    3.0814
       DOS:  cpu time    0.0043: real time    0.0043
    --------------------------------------------
      LOOP:  cpu time    3.0802: real time    3.0857

 eigenvalue-minimisations  :  5250
 total energy-change (2. order) :-0.1396376E+03  (-0.1355704E+03)
 number of electron      20.0000000 magnetization 
 augmentation part       20.0000000 magnetization 

 Free energy of the ion-electron system (eV)
  ---------------------------------------------------
  alpha Z        PSCENC =         9.57644489
  Ewald energy   TEWEN  =      1137.16006923
  -Hartree energ DENC   =     -1739.22459574
  -exchange      EXHF   =         0.00000000
  -V(xc)+E(xc)   XCENC  =      -238.55443319
  PAW double counting   =       799.43158084     -524.17639913
  entropy T*S    EENTRO =        -0.00273266
  eigenvalues    EBANDS =      -142.07668796
  atomic energy  EATOM  =       702.42789710
  Solvation  Ediel_sol  =         0.00000000
  ---------------------------------------------------
  free energy    TOTEN  =         4.56114337 eV

  energy without entropy =        4.56387603  energy(sigma->0) =        4.56250970


--------------------------------------------------------------------------------------------------------




--------------------------------------- Iteration      1(   3)  ---------------------------------------


     EDDAV:  cpu time    2.4823: real time    2.4866
       DOS:  cpu time    0.0029: real time    0.0029
    --------------------------------------------
      LOOP:  cpu time    2.4852: real time    2.4896

 eigenvalue-minimisations  :  4022
 total energy-change (2. order) :-0.2053834E+02  (-0.2031527E+02)
 number of electron      20.0000000 magnetization 
 augmentation part       20.0000000 magnetization 

 Free energy of the ion-electron system (eV)
  ---------------------------------------------------
  alpha Z        PSCENC =         9.57644489
  Ewald energy   TEWEN  =      1137.16006923
  -Hartree energ DENC   =     -1739.22459574
  -exchange      EXHF   =         0.00000000
  -V(xc)+E(xc)   XCENC  =      -238.55443319
  PAW double counting   =       799.43158084     -524.17639913
  entropy T*S    EENTRO =        -0.00000000
  eigenvalues    EBANDS =      -162.61776031
  atomic energy  EATOM  =       702.42789710
  Solvation  Ediel_sol  =         0.00000000
  ---------------------------------------------------
  free energy    TOTEN  =       -15.97719631 eV

  energy without entropy =      -15.97719631  energy(sigma->0) =      -15.97719631


--------------------------------------------------------------------------------------------------------




--------------------------------------- Iteration      1(   4)  ---------------------------------------


     EDDAV:  cpu time    2.6385: real time    2.6445
       DOS:  cpu time    0.0030: real time    0.0030
    --------------------------------------------
      LOOP:  cpu time    2.6415: real time    2.6475

 eigenvalue-minimisations  :  4422
 total energy-change (2. order) :-0.7889990E+00  (-0.7865868E+00)
 number of electron      20.0000000 magnetization 
 augmentation part       20.0000000 magnetization 

 Free energy of the ion-electron system (eV)
  ---------------------------------------------------
  alpha Z        PSCENC =         9.57644489
  Ewald energy   TEWEN  =      1137.16006923
  -Hartree energ DENC   =     -1739.22459574
  -exchange      EXHF   =         0.00000000
  -V(xc)+E(xc)   XCENC  =      -238.55443319
  PAW double counting   =       799.43158084     -524.17639913
  entropy T*S    EENTRO =        -0.00000000
  eigenvalues    EBANDS =      -163.40675927
  atomic energy  EATOM  =       702.42789710
  Solvation  Ediel_sol  =         0.00000000
  ---------------------------------------------------
  free energy    TOTEN  =       -16.76619528 eV

  energy without entropy =      -16.76619528  energy(sigma->0) =      -16.76619528


--------------------------------------------------------------------------------------------------------




--------------------------------------- Iteration      1(   5)  ---------------------------------------


     EDDAV:  cpu time    2.4980: real time    2.5032
       DOS:  cpu time    0.0030: real time    0.0030
    CHARGE:  cpu time    0.1838: real time    0.1845
    MIXING:  cpu time    0.0013: real time    0.0013
    --------------------------------------------
      LOOP:  cpu time    2.6862: real time    2.6920

 eigenvalue-minimisations  :  4142
 total energy-change (2. order) :-0.1900440E-01  (-0.1899014E-01)
 number of electron      20.0000000 magnetization 
 augmentation part       -4.5245280 magnetization 

 Broyden mixing:
  rms(total) = 0.45579E+00    rms(broyden)= 0.45579E+00
  rms(prec ) = 0.49591E+00
  weight for this iteration     100.00

 Free energy of the ion-electron system (eV)
  ---------------------------------------------------
  alpha Z        PSCENC =         9.57644489
  Ewald energy   TEWEN  =      1137.16006923
  -Hartree energ DENC   =     -1739.22459574
  -exchange      EXHF   =         0.00000000
  -V(xc)+E(xc)   XCENC  =      -238.55443319
  PAW double counting   =       799.43158084     -524.17639913
  entropy T*S    EENTRO =        -0.00000000
  eigenvalues    EBANDS =      -163.42576367
  atomic energy  EATOM  =       702.42789710
  Solvation  Ediel_sol  =         0.00000000
  ---------------------------------------------------
  free energy    TOTEN  =       -16.78519968 eV

  energy without entropy =      -16.78519968  energy(sigma->0) =      -16.78519968


--------------------------------------------------------------------------------------------------------




--------------------------------------- Iteration      1(   6)  ---------------------------------------


    POTLOK:  cpu time    0.0366: real time    0.0367
    SETDIJ:  cpu time    0.0032: real time    0.0040
     EDDAV:  cpu time    2.4086: real time    2.4119
       DOS:  cpu time    0.0031: real time    0.0031
    CHARGE:  cpu time    0.1671: real time    0.1675
    MIXING:  cpu time    0.0011: real time    0.0011
    --------------------------------------------
      LOOP:  cpu time    2.6197: real time    2.6243

 eigenvalue-minimisations  :  3880
 total energy-change (2. order) : 0.4824916E+00  (-0.1208294E+00)
 number of electron      20.0000000 magnetization 
 augmentation part       -4.4923030 magnetization 

 Broyden mixing:
  rms(total) = 0.28064E+00    rms(broyden)= 0.28064E+00
  rms(prec ) = 0.28979E+00
  weight for this iteration     100.00

 eigenvalues of (default mixing * dielectric matrix)
  average eigenvalue GAMMA=   1.8299
  1.8299

 Free energy of the ion-electron system (eV)
  ---------------------------------------------------
  alpha Z        PSCENC =         9.57644489
  Ewald energy   TEWEN  =      1137.16006923
  -Hartree energ DENC   =     -1747.03224243
  -exchange      EXHF   =         0.00000000
  -V(xc)+E(xc)   XCENC  =      -238.07116692
  PAW double counting   =       926.18052234     -651.11277445
  entropy T*S    EENTRO =        -0.00000000
  eigenvalues    EBANDS =      -155.43145781
  atomic energy  EATOM  =       702.42789710
  Solvation  Ediel_sol  =         0.00000000
  ---------------------------------------------------
  free energy    TOTEN  =       -16.30270805 eV

  energy without entropy =      -16.30270805  energy(sigma->0) =      -16.30270805


--------------------------------------------------------------------------------------------------------




--------------------------------------- Iteration      1(   7)  ---------------------------------------


    POTLOK:  cpu time    0.0367: real time    0.0368
    SETDIJ:  cpu time    0.0031: real time    0.0031
     EDDAV:  cpu time    2.4916: real time    2.4977
       DOS:  cpu time    0.0031: real time    0.0031
    CHARGE:  cpu time    0.1668: real time    0.1670
    MIXING:  cpu time    0.0012: real time    0.0013
    --------------------------------------------
      LOOP:  cpu time    2.7025: real time    2.7089

 eigenvalue-minimisations  :  4142
 total energy-change (2. order) : 0.2815982E-01  (-0.3164849E-01)
 number of electron      20.0000000 magnetization 
 augmentation part       -4.4832160 magnetization 

 Broyden mixing:
  rms(total) = 0.10381E+00    rms(broyden)= 0.10381E+00
  rms(prec ) = 0.10927E+00
  weight for this iteration     100.00

 eigenvalues of (default mixing * dielectric matrix)
  average eigenvalue GAMMA=   1.7308
  1.3751  2.0866

 Free energy of the ion-electron system (eV)
  ---------------------------------------------------
  alpha Z        PSCENC =         9.57644489
  Ewald energy   TEWEN  =      1137.16006923
  -Hartree energ DENC   =     -1752.11758700
  -exchange      EXHF   =         0.00000000
  -V(xc)+E(xc)   XCENC  =      -237.73795442
  PAW double counting   =      1071.85205692     -796.93118380
  entropy T*S    EENTRO =        -0.00000000
  eigenvalues    EBANDS =      -150.50429115
  atomic energy  EATOM  =       702.42789710
  Solvation  Ediel_sol  =         0.00000000
  ---------------------------------------------------
  free energy    TOTEN  =       -16.27454823 eV

  energy without entropy =      -16.27454823  energy(sigma->0) =      -16.27454823


--------------------------------------------------------------------------------------------------------




--------------------------------------- Iteration      1(   8)  ---------------------------------------


    POTLOK:  cpu time    0.0364: real time    0.0366
    SETDIJ:  cpu time    0.0031: real time    0.0031
     EDDAV:  cpu time    2.6351: real time    2.6402
       DOS:  cpu time    0.0031: real time    0.0031
    CHARGE:  cpu time    0.1680: real time    0.1682
    MIXING:  cpu time    0.0011: real time    0.0011
    --------------------------------------------
      LOOP:  cpu time    2.8469: real time    2.8522

 eigenvalue-minimisations  :  4444
 total energy-change (2. order) : 0.9660549E-02  (-0.3923667E-02)
 number of electron      20.0000000 magnetization 
 augmentation part       -4.4874931 magnetization 

 Broyden mixing:
  rms(total) = 0.20780E-01    rms(broyden)= 0.20780E-01
  rms(prec ) = 0.28100E-01
  weight for this iteration     100.00

 eigenvalues of (default mixing * dielectric matrix)
  average eigenvalue GAMMA=   1.7192
  2.5483  1.3047  1.3047

 Free energy of the ion-electron system (eV)
  ---------------------------------------------------
  alpha Z        PSCENC =         9.57644489
  Ewald energy   TEWEN  =      1137.16006923
  -Hartree energ DENC   =     -1753.73875459
  -exchange      EXHF   =         0.00000000
  -V(xc)+E(xc)   XCENC  =      -237.66152136
  PAW double counting   =      1137.03587810     -862.15411817
  entropy T*S    EENTRO =        -0.00000000
  eigenvalues    EBANDS =      -148.91078288
  atomic energy  EATOM  =       702.42789710
  Solvation  Ediel_sol  =         0.00000000
  ---------------------------------------------------
  free energy    TOTEN  =       -16.26488768 eV

  energy without entropy =      -16.26488768  energy(sigma->0) =      -16.26488768


--------------------------------------------------------------------------------------------------------




--------------------------------------- Iteration      1(   9)  ---------------------------------------


    POTLOK:  cpu time    0.0366: real time    0.0367
    SETDIJ:  cpu time    0.0030: real time    0.0030
     EDDAV:  cpu time    2.6017: real time    2.6049
       DOS:  cpu time    0.0031: real time    0.0031
    CHARGE:  cpu time    0.1687: real time    0.1689
    MIXING:  cpu time    0.0013: real time    0.0013
    --------------------------------------------
      LOOP:  cpu time    2.8144: real time    2.8179

 eigenvalue-minimisations  :  4328
 total energy-change (2. order) : 0.3712213E-02  (-0.6720428E-03)
 number of electron      20.0000000 magnetization 
 augmentation part       -4.4855533 magnetization 

 Broyden mixing:
  rms(total) = 0.10185E-01    rms(broyden)= 0.10185E-01
  rms(prec ) = 0.15618E-01
  weight for this iteration     100.00

 eigenvalues of (default mixing * dielectric matrix)
  average eigenvalue GAMMA=   1.7010
  2.2078  2.2078  1.1942  1.1942

 Free energy of the ion-electron system (eV)
  ---------------------------------------------------
  alpha Z        PSCENC =         9.57644489
  Ewald energy   TEWEN  =      1137.16006923
  -Hartree energ DENC   =     -1755.74162173
  -exchange      EXHF   =         0.00000000
  -V(xc)+E(xc)   XCENC  =      -237.58618641
  PAW double counting   =      1156.38120728     -881.51249420
  entropy T*S    EENTRO =        -0.00000000
  eigenvalues    EBANDS =      -146.96649163
  atomic energy  EATOM  =       702.42789710
  Solvation  Ediel_sol  =         0.00000000
  ---------------------------------------------------
  free energy    TOTEN  =       -16.26117547 eV

  energy without entropy =      -16.26117547  energy(sigma->0) =      -16.26117547


--------------------------------------------------------------------------------------------------------




--------------------------------------- Iteration      1(  10)  ---------------------------------------


    POTLOK:  cpu time    0.0366: real time    0.0367
    SETDIJ:  cpu time    0.0040: real time    0.0040
     EDDAV:  cpu time    2.6411: real time    2.6464
       DOS:  cpu time    0.0031: real time    0.0031
    CHARGE:  cpu time    0.1684: real time    0.1690
    MIXING:  cpu time    0.0013: real time    0.0013
    --------------------------------------------
      LOOP:  cpu time    2.8545: real time    2.8605

 eigenvalue-minimisations  :  4370
 total energy-change (2. order) : 0.1188886E-02  (-0.1167919E-03)
 number of electron      20.0000000 magnetization 
 augmentation part       -4.4843349 magnetization 

 Broyden mixing:
  rms(total) = 0.54512E-02    rms(broyden)= 0.54512E-02
  rms(prec ) = 0.95450E-02
  weight for this iteration     100.00

 eigenvalues of (default mixing * dielectric matrix)
  average eigenvalue GAMMA=   1.8760
  3.3765  2.6025  1.2474  1.2474  0.9063

 Free energy of the ion-electron system (eV)
  ---------------------------------------------------
  alpha Z        PSCENC =         9.57644489
  Ewald energy   TEWEN  =      1137.16006923
  -Hartree energ DENC   =     -1756.96166347
  -exchange      EXHF   =         0.00000000
  -V(xc)+E(xc)   XCENC  =      -237.57710428
  PAW double counting   =      1145.03930439     -870.15960985
  entropy T*S    EENTRO =        -0.00000000
  eigenvalues    EBANDS =      -145.76532458
  atomic energy  EATOM  =       702.42789710
  Solvation  Ediel_sol  =         0.00000000
  ---------------------------------------------------
  free energy    TOTEN  =       -16.25998658 eV

  energy without entropy =      -16.25998658  energy(sigma->0) =      -16.25998658


--------------------------------------------------------------------------------------------------------




--------------------------------------- Iteration      1(  11)  ---------------------------------------


    POTLOK:  cpu time    0.0371: real time    0.0372
    SETDIJ:  cpu time    0.0031: real time    0.0031
     EDDAV:  cpu time    2.6179: real time    2.6239
       DOS:  cpu time    0.0031: real time    0.0031
    CHARGE:  cpu time    0.1705: real time    0.1708
    MIXING:  cpu time    0.0013: real time    0.0013
    --------------------------------------------
      LOOP:  cpu time    2.8330: real time    2.8393

 eigenvalue-minimisations  :  4334
 total energy-change (2. order) : 0.7328512E-03  (-0.1270195E-03)
 number of electron      20.0000000 magnetization 
 augmentation part       -4.4829372 magnetization 

 Broyden mixing:
  rms(total) = 0.33391E-02    rms(broyden)= 0.33391E-02
  rms(prec ) = 0.50047E-02
  weight for this iteration     100.00

 eigenvalues of (default mixing * dielectric matrix)
  average eigenvalue GAMMA=   1.8291
  3.3853  2.2591  2.0604  1.1976  1.1976  0.8748

 Free energy of the ion-electron system (eV)
  ---------------------------------------------------
  alpha Z        PSCENC =         9.57644489
  Ewald energy   TEWEN  =      1137.16006923
  -Hartree energ DENC   =     -1758.56731485
  -exchange      EXHF   =         0.00000000
  -V(xc)+E(xc)   XCENC  =      -237.54492631
  PAW double counting   =      1146.76293058     -871.88247477
  entropy T*S    EENTRO =        -0.00000000
  eigenvalues    EBANDS =      -144.19187959
  atomic energy  EATOM  =       702.42789710
  Solvation  Ediel_sol  =         0.00000000
  ---------------------------------------------------
  free energy    TOTEN  =       -16.25925373 eV

  energy without entropy =      -16.25925373  energy(sigma->0) =      -16.25925373


--------------------------------------------------------------------------------------------------------




--------------------------------------- Iteration      1(  12)  ---------------------------------------


    POTLOK:  cpu time    0.0369: real time    0.0371
    SETDIJ:  cpu time    0.0031: real time    0.0031
     EDDAV:  cpu time    2.3035: real time    2.3083
       DOS:  cpu time    0.0031: real time    0.0031
    CHARGE:  cpu time    0.1791: real time    0.1798
    MIXING:  cpu time    0.0014: real time    0.0014
    --------------------------------------------
      LOOP:  cpu time    2.5271: real time    2.5328

 eigenvalue-minimisations  :  3616
 total energy-change (2. order) :-0.7697155E-03  (-0.2917576E-04)
 number of electron      20.0000000 magnetization 
 augmentation part       -4.4823380 magnetization 

 Broyden mixing:
  rms(total) = 0.18980E-02    rms(broyden)= 0.18980E-02
  rms(prec ) = 0.29065E-02
  weight for this iteration     100.00

 eigenvalues of (default mixing * dielectric matrix)
  average eigenvalue GAMMA=   2.0644
  4.5757  3.0763  2.4977  1.2141  1.2141  1.0338  0.8388

 Free energy of the ion-electron system (eV)
  ---------------------------------------------------
  alpha Z        PSCENC =         9.57644489
  Ewald energy   TEWEN  =      1137.16006923
  -Hartree energ DENC   =     -1759.15410302
  -exchange      EXHF   =         0.00000000
  -V(xc)+E(xc)   XCENC  =      -237.53558561
  PAW double counting   =      1148.85059404     -873.97316871
  entropy T*S    EENTRO =        -0.00000000
  eigenvalues    EBANDS =      -143.61217136
  atomic energy  EATOM  =       702.42789710
  Solvation  Ediel_sol  =         0.00000000
  ---------------------------------------------------
  free energy    TOTEN  =       -16.26002345 eV

  energy without entropy =      -16.26002345  energy(sigma->0) =      -16.26002345


--------------------------------------------------------------------------------------------------------




--------------------------------------- Iteration      1(  13)  ---------------------------------------


    POTLOK:  cpu time    0.0374: real time    0.0375
    SETDIJ:  cpu time    0.0031: real time    0.0031
     EDDAV:  cpu time    2.3296: real time    2.3327
       DOS:  cpu time    0.0031: real time    0.0031
    CHARGE:  cpu time    0.1674: real time    0.1676
    MIXING:  cpu time    0.0014: real time    0.0014
    --------------------------------------------
      LOOP:  cpu time    2.5419: real time    2.5454

 eigenvalue-minimisations  :  3716
 total energy-change (2. order) :-0.4386651E-03  (-0.8454047E-05)
 number of electron      20.0000000 magnetization 
 augmentation part       -4.4821213 magnetization 

 Broyden mixing:
  rms(total) = 0.11876E-02    rms(broyden)= 0.11876E-02
  rms(prec ) = 0.15611E-02
  weight for this iteration     100.00

 eigenvalues of (default mixing * dielectric matrix)
  average eigenvalue GAMMA=   2.2065
  5.4721  3.3117  2.4893  2.0836  1.1642  1.1642  1.0583  0.9085

 Free energy of the ion-electron system (eV)
  ---------------------------------------------------
  alpha Z        PSCENC =         9.57644489
  Ewald energy   TEWEN  =      1137.16006923
  -Hartree energ DENC   =     -1759.58513954
  -exchange      EXHF   =         0.00000000
  -V(xc)+E(xc)   XCENC  =      -237.53422588
  PAW double counting   =      1147.56113323     -872.68239755
  entropy T*S    EENTRO =        -0.00000000
  eigenvalues    EBANDS =      -143.18424358
  atomic energy  EATOM  =       702.42789710
  Solvation  Ediel_sol  =         0.00000000
  ---------------------------------------------------
  free energy    TOTEN  =       -16.26046211 eV

  energy without entropy =      -16.26046211  energy(sigma->0) =      -16.26046211


--------------------------------------------------------------------------------------------------------




--------------------------------------- Iteration      1(  14)  ---------------------------------------


    POTLOK:  cpu time    0.0381: real time    0.0382
    SETDIJ:  cpu time    0.0031: real time    0.0031
     EDDAV:  cpu time    2.4354: real time    2.4384
       DOS:  cpu time    0.0031: real time    0.0031
    CHARGE:  cpu time    0.1762: real time    0.1764
    MIXING:  cpu time    0.0016: real time    0.0016
    --------------------------------------------
      LOOP:  cpu time    2.6575: real time    2.6608

 eigenvalue-minimisations  :  3926
 total energy-change (2. order) :-0.2424107E-03  (-0.4007603E-05)
 number of electron      20.0000000 magnetization 
 augmentation part       -4.4820913 magnetization 

 Broyden mixing:
  rms(total) = 0.38310E-03    rms(broyden)= 0.38310E-03
  rms(prec ) = 0.62524E-03
  weight for this iteration     100.00

 eigenvalues of (default mixing * dielectric matrix)
  average eigenvalue GAMMA=   2.2341
  6.6943  3.0652  2.5159  2.5159  1.1889  1.1889  1.0793  0.9293  0.9293

 Free energy of the ion-electron system (eV)
  ---------------------------------------------------
  alpha Z        PSCENC =         9.57644489
  Ewald energy   TEWEN  =      1137.16006923
  -Hartree energ DENC   =     -1759.79078496
  -exchange      EXHF   =         0.00000000
  -V(xc)+E(xc)   XCENC  =      -237.53400360
  PAW double counting   =      1147.88101231     -873.00174738
  entropy T*S    EENTRO =        -0.00000000
  eigenvalues    EBANDS =      -142.97959211
  atomic energy  EATOM  =       702.42789710
  Solvation  Ediel_sol  =         0.00000000
  ---------------------------------------------------
  free energy    TOTEN  =       -16.26070452 eV

  energy without entropy =      -16.26070452  energy(sigma->0) =      -16.26070452


--------------------------------------------------------------------------------------------------------




--------------------------------------- Iteration      1(  15)  ---------------------------------------


    POTLOK:  cpu time    0.0379: real time    0.0380
    SETDIJ:  cpu time    0.0031: real time    0.0031
     EDDAV:  cpu time    2.3833: real time    2.3876
       DOS:  cpu time    0.0031: real time    0.0032
    CHARGE:  cpu time    0.1765: real time    0.1766
    MIXING:  cpu time    0.0015: real time    0.0015
    --------------------------------------------
      LOOP:  cpu time    2.6054: real time    2.6100

 eigenvalue-minimisations  :  3810
 total energy-change (2. order) :-0.5842404E-04  (-0.1983041E-06)
 number of electron      20.0000000 magnetization 
 augmentation part       -4.4821096 magnetization 

 Broyden mixing:
  rms(total) = 0.33582E-03    rms(broyden)= 0.33582E-03
  rms(prec ) = 0.51833E-03
  weight for this iteration     100.00

 eigenvalues of (default mixing * dielectric matrix)
  average eigenvalue GAMMA=   2.3419
  6.4703  4.2152  2.6995  2.6995  1.9708  1.1478  1.1478  1.2005  0.9339  0.9339

 Free energy of the ion-electron system (eV)
  ---------------------------------------------------
  alpha Z        PSCENC =         9.57644489
  Ewald energy   TEWEN  =      1137.16006923
  -Hartree energ DENC   =     -1759.81082778
  -exchange      EXHF   =         0.00000000
  -V(xc)+E(xc)   XCENC  =      -237.53432138
  PAW double counting   =      1147.73058874     -872.85119197
  entropy T*S    EENTRO =        -0.00000000
  eigenvalues    EBANDS =      -142.95942177
  atomic energy  EATOM  =       702.42789710
  Solvation  Ediel_sol  =         0.00000000
  ---------------------------------------------------
  free energy    TOTEN  =       -16.26076295 eV

  energy without entropy =      -16.26076295  energy(sigma->0) =      -16.26076295


--------------------------------------------------------------------------------------------------------




--------------------------------------- Iteration      1(  16)  ---------------------------------------


    POTLOK:  cpu time    0.0369: real time    0.0371
    SETDIJ:  cpu time    0.0031: real time    0.0031
     EDDAV:  cpu time    2.2596: real time    2.2645
       DOS:  cpu time    0.0032: real time    0.0032
    CHARGE:  cpu time    0.1748: real time    0.1750
    MIXING:  cpu time    0.0016: real time    0.0016
    --------------------------------------------
      LOOP:  cpu time    2.4792: real time    2.4844

 eigenvalue-minimisations  :  3552
 total energy-change (2. order) :-0.4599714E-04  (-0.8275695E-06)
 number of electron      20.0000000 magnetization 
 augmentation part       -4.4821243 magnetization 

 Broyden mixing:
  rms(total) = 0.13703E-03    rms(broyden)= 0.13703E-03
  rms(prec ) = 0.23882E-03
  weight for this iteration     100.00

 eigenvalues of (default mixing * dielectric matrix)
  average eigenvalue GAMMA=   2.2796
  6.7728  4.4887  2.6424  2.6424  2.2753  1.1647  1.1647  1.1798  0.9316  0.9316
  0.8812

 Free energy of the ion-electron system (eV)
  ---------------------------------------------------
  alpha Z        PSCENC =         9.57644489
  Ewald energy   TEWEN  =      1137.16006923
  -Hartree energ DENC   =     -1759.86517012
  -exchange      EXHF   =         0.00000000
  -V(xc)+E(xc)   XCENC  =      -237.53447672
  PAW double counting   =      1147.54239373     -872.66296410
  entropy T*S    EENTRO =        -0.00000000
  eigenvalues    EBANDS =      -142.90500295
  atomic energy  EATOM  =       702.42789710
  Solvation  Ediel_sol  =         0.00000000
  ---------------------------------------------------
  free energy    TOTEN  =       -16.26080895 eV

  energy without entropy =      -16.26080895  energy(sigma->0) =      -16.26080895


--------------------------------------------------------------------------------------------------------




--------------------------------------- Iteration      1(  17)  ---------------------------------------


    POTLOK:  cpu time    0.0368: real time    0.0369
    SETDIJ:  cpu time    0.0031: real time    0.0031
     EDDAV:  cpu time    2.1702: real time    2.1748
       DOS:  cpu time    0.0031: real time    0.0031
    CHARGE:  cpu time    0.1680: real time    0.1687
    MIXING:  cpu time    0.0017: real time    0.0017
    --------------------------------------------
[...]
  band No.  band energies     occupation 
      1     -14.5486      2.00000
      2     -14.2842      2.00000
      3      -8.8014      2.00000
      4      -8.5894      2.00000
      5      -6.0639      2.00000
      6      -5.1129      2.00000
      7      -4.7947      2.00000
      8      -4.0965      2.00000
      9      -3.8828      2.00000
     10      -3.0747      2.00000
     11       0.1312      0.00000
     12       1.0839      0.00000
     13       1.1896      0.00000
     14       1.5936      0.00000

 k-point    96 :      -0.2000    0.4000    0.0000
  band No.  band energies     occupation 
      1     -14.6167      2.00000
      2     -14.3079      2.00000
      3      -8.9692      2.00000
      4      -8.6907      2.00000
      5      -5.6201      2.00000
      6      -4.8297      2.00000
      7      -4.5327      2.00000
      8      -3.9550      2.00000
      9      -3.5091      2.00000
     10      -2.7195      2.00000
     11      -0.3401      0.00000
     12       0.5790      0.00000
     13       0.7233      0.00000
     14       1.2450      0.00000

 k-point    97 :      -0.1333    0.4000    0.0000
  band No.  band energies     occupation 
      1     -14.6708      2.00000
      2     -14.3317      2.00000
      3      -9.0999      2.00000
      4      -8.7758      2.00000
      5      -5.0973      2.00000
      6      -4.7593      2.00000
      7      -4.1366      2.00000
      8      -3.9084      2.00000
      9      -2.9390      2.00000
     10      -2.5011      2.00000
     11      -0.6178      0.00000
     12      -0.1499      0.00000
     13       0.5046      0.00000
     14       0.8209      0.00000

 k-point    98 :      -0.0667    0.4000    0.0000
  band No.  band energies     occupation 
      1     -14.7049      2.00000
      2     -14.3491      2.00000
      3      -9.1828      2.00000
      4      -8.8325      2.00000
      5      -4.7612      2.00000
      6      -4.5596      2.00000
      7      -3.9366      2.00000
      8      -3.7317      2.00000
      9      -2.6563      2.00000
     10      -2.3622      2.00000
     11      -0.7454      0.00000
     12      -0.3826      0.00000
     13       0.2614      0.00000
     14       0.3872      0.00000

 k-point    99 :      -0.0000    0.4667    0.0000
  band No.  band energies     occupation 
      1     -14.5714      2.00000
      2     -14.4478      2.00000
      3      -9.1976      2.00000
      4      -9.0742      2.00000
      5      -4.5206      2.00000
      6      -4.3021      2.00000
      7      -3.8427      2.00000
      8      -3.6489      2.00000
      9      -2.5469      2.00000
     10      -2.2062      2.00000
     11      -0.8841      0.00000
     12      -0.4475      0.00000
     13      -0.0542      0.00000
     14       0.1444      0.00000

 k-point   100 :       0.0667    0.4667    0.0000
  band No.  band energies     occupation 
      1     -14.5597      2.00000
      2     -14.4414      2.00000
      3      -9.1711      2.00000
      4      -9.0501      2.00000
      5      -4.5298      2.00000
      6      -4.4280      2.00000
      7      -3.9913      2.00000
      8      -3.8505      2.00000
      9      -2.4370      2.00000
     10      -2.3767      2.00000
     11      -0.7911      0.00000
     12      -0.6748      0.00000
     13       0.3087      0.00000
     14       0.5964      0.00000

 k-point   101 :       0.1333    0.4667    0.0000
  band No.  band energies     occupation 
      1     -14.5289      2.00000
      2     -14.4204      2.00000
      3      -9.0906      2.00000
      4      -8.9771      2.00000
      5      -4.8425      2.00000
      6      -4.6288      2.00000
      7      -4.2322      2.00000
      8      -4.1019      2.00000
      9      -2.8354      2.00000
     10      -2.5973      2.00000
     11      -0.5303      0.00000
     12      -0.3158      0.00000
     13       0.8079      0.00000
     14       0.9051      0.00000

 k-point   102 :       0.2000    0.4667   -0.0000
  band No.  band energies     occupation 
      1     -14.4831      2.00000
      2     -14.3888      2.00000
      3      -8.9603      2.00000
      4      -8.8591      2.00000
      5      -5.3490      2.00000
      6      -5.0023      2.00000
      7      -4.4331      2.00000
      8      -4.1733      2.00000
      9      -3.3347      2.00000
     10      -3.0367      2.00000
     11       0.0008      0.00000
     12       0.3310      0.00000
     13       1.0335      0.00000
     14       1.2457      0.00000

 k-point   103 :       0.2667    0.4667   -0.0000
  band No.  band energies     occupation 
      1     -14.4281      2.00000
      2     -14.3524      2.00000
      3      -8.7890      2.00000
      4      -8.7044      2.00000
      5      -5.8141      2.00000
      6      -5.4702      2.00000
      7      -4.6335      2.00000
      8      -4.3330      2.00000
      9      -3.6604      2.00000
     10      -3.4242      2.00000
     11       0.5121      0.00000
     12       0.8494      0.00000
     13       1.4428      0.00000
     14       1.6589      0.00000

 k-point   104 :       0.3333    0.4667    0.0000
  band No.  band energies     occupation 
      1     -14.3719      2.00000
      2     -14.3189      2.00000
      3      -8.5940      2.00000
      4      -8.5279      2.00000
      5      -6.1895      2.00000
      6      -5.9013      2.00000
      7      -4.9271      2.00000
      8      -4.6342      2.00000
      9      -3.7632      2.00000
     10      -3.6193      2.00000
     11       0.8512      0.00000
     12       1.1210      0.00000
     13       2.0067      0.00000
     14       2.2294      0.00000

 k-point   105 :       0.4000    0.4667    0.0000
  band No.  band energies     occupation 
      1     -14.3229      2.00000
      2     -14.2960      2.00000
      3      -8.4090      2.00000
      4      -8.3571      2.00000
      5      -6.4417      2.00000
      6      -6.2655      2.00000
      7      -5.1758      2.00000
      8      -4.9640      2.00000
      9      -3.7565      2.00000
     10      -3.6947      2.00000
     11       1.0790      0.00000
     12       1.2631      0.00000
     13       2.4979      0.00000
     14       2.6714      0.00000

 k-point   106 :       0.4667    0.4667    0.0000
  band No.  band energies     occupation 
      1     -14.2902      2.00000
      2     -14.2888      2.00000
      3      -8.2888      2.00000
      4      -8.2403      2.00000
      5      -6.5342      2.00000
      6      -6.5247      2.00000
      7      -5.2794      2.00000
      8      -5.2005      2.00000
      9      -3.7377      2.00000
     10      -3.7189      2.00000
     11       1.2254      0.00000
     12       1.3109      0.00000
     13       2.7259      0.00000
     14       2.7949      0.00000

 k-point   107 :      -0.4667    0.4667    0.0000
  band No.  band energies     occupation 
      1     -14.3045      2.00000
      2     -14.2747      2.00000
      3      -8.2826      2.00000
      4      -8.2398      2.00000
      5      -6.6127      2.00000
      6      -6.4470      2.00000
      7      -5.2765      2.00000
      8      -5.2109      2.00000
      9      -3.7783      2.00000
     10      -3.6789      2.00000
     11       1.2525      0.00000
     12       1.2828      0.00000
     13       2.6960      0.00000
     14       2.8379      0.00000

 k-point   108 :      -0.4000    0.4667    0.0000
  band No.  band energies     occupation 
      1     -14.3380      2.00000
      2     -14.2815      2.00000
      3      -8.3825      2.00000
      4      -8.3691      2.00000
      5      -6.4973      2.00000
      6      -6.2125      2.00000
      7      -5.1663      2.00000
      8      -4.9902      2.00000
      9      -3.8158      2.00000
     10      -3.6382      2.00000
     11       1.0918      0.00000
     12       1.2485      0.00000
     13       2.4571      0.00000
     14       2.7372      0.00000

 k-point   109 :      -0.3333    0.4667    0.0000
  band No.  band energies     occupation 
      1     -14.3857      2.00000
      2     -14.3059      2.00000
      3      -8.5674      2.00000
      4      -8.5387      2.00000
      5      -6.2163      2.00000
      6      -5.8812      2.00000
      7      -4.9003      2.00000
      8      -4.6748      2.00000
      9      -3.8210      2.00000
     10      -3.5701      2.00000
     11       0.8467      0.00000
     12       1.1240      0.00000
     13       1.9652      0.00000
     14       2.2814      0.00000

 k-point   110 :      -0.2667    0.4667    0.0000
  band No.  band energies     occupation 
      1     -14.4399      2.00000
      2     -14.3415      2.00000
      3      -8.7725      2.00000
      4      -8.7067      2.00000
      5      -5.8162      2.00000
      6      -5.4791      2.00000
      7      -4.5951      2.00000
      8      -4.3719      2.00000
      9      -3.7070      2.00000
     10      -3.3995      2.00000
     11       0.4914      0.00000
     12       0.8704      0.00000
     13       1.4161      0.00000
     14       1.6890      0.00000

 k-point   111 :      -0.2000    0.4667    0.0000
  band No.  band energies     occupation 
      1     -14.4924      2.00000
      2     -14.3803      2.00000
      3      -8.9505      2.00000
      4      -8.8576      2.00000
      5      -5.3319      2.00000
      6      -5.0325      2.00000
      7      -4.4043      2.00000
      8      -4.1949      2.00000
      9      -3.3501      2.00000
     10      -3.0530      2.00000
     11      -0.0255      0.00000
     12       0.3620      0.00000
     13       1.0204      0.00000
     14       1.2569      0.00000

 k-point   112 :      -0.1333    0.4667    0.0000
  band No.  band energies     occupation 
      1     -14.5353      2.00000
      2     -14.4146      2.00000
      3      -9.0852      2.00000
      4      -8.9747      2.00000
      5      -4.8118      2.00000
      6      -4.6586      2.00000
      7      -4.2252      2.00000
      8      -4.1140      2.00000
      9      -2.8216      2.00000
     10      -2.6470      2.00000
     11      -0.5455      0.00000
     12      -0.2940      0.00000
     13       0.7992      0.00000
     14       0.8998      0.00000

 k-point   113 :      -0.0667    0.4667    0.0000
  band No.  band energies     occupation 
      1     -14.5629      2.00000
      2     -14.4384      2.00000
      3      -9.1687      2.00000
      4      -9.0485      2.00000
      5      -4.5391      2.00000
      6      -4.4019      2.00000
      7      -3.9936      2.00000
      8      -3.8656      2.00000
      9      -2.4896      2.00000
     10      -2.3474      2.00000
     11      -0.7890      0.00000
     12      -0.6843      0.00000
     13       0.3008      0.00000
     14       0.6145      0.00000


--------------------------------------------------------------------------------------------------------


 soft charge-density along one line, spin component           1
         0         1         2         3         4         5         6         7         8         9
 total charge-density along one line
 
 pseudopotential strength for first ion, spin component:           1
 30.077 -23.430  -0.004  -0.089   0.034  -0.007  -0.141   0.054
-23.430  28.114   0.002   0.051  -0.019   0.004   0.082  -0.031
 -0.004   0.002   6.330  -0.000  -0.000   9.793  -0.000  -0.000
 -0.089   0.051  -0.000   6.328   0.002  -0.000   9.789   0.002
  0.034  -0.019  -0.000   0.002   6.330  -0.000   0.002   9.792
 -0.007   0.004   9.793  -0.000  -0.000  15.221  -0.000  -0.000
 -0.141   0.082  -0.000   9.789   0.002  -0.000  15.214   0.004
  0.054  -0.031  -0.000   0.002   9.792  -0.000   0.004  15.220
 -0.000   0.000   0.007  -0.000  -0.001   0.011  -0.000  -0.001
 -0.000   0.000  -0.020  -0.001  -0.000  -0.031  -0.002  -0.000
 -0.003   0.004   0.001  -0.023  -0.004   0.001  -0.035  -0.006
  0.003  -0.002  -0.000   0.008  -0.020  -0.000   0.013  -0.031
 -0.000   0.000   0.001  -0.000   0.008   0.002  -0.000   0.013
 total augmentation occupancy for first ion, spin component:           1
  2.025  -0.015   0.011   0.238  -0.086  -0.002  -0.043   0.016  -0.002  -0.000   0.023   0.002  -0.000
 -0.015   0.009  -0.003  -0.073   0.026   0.001   0.019  -0.006   0.000  -0.000  -0.002   0.001  -0.000
  0.011  -0.003   1.508  -0.001  -0.001  -0.406   0.002   0.000   0.122  -0.043   0.009  -0.000  -0.002
  0.238  -0.073  -0.001   1.840   0.002   0.002  -0.485  -0.015   0.000   0.002  -0.267  -0.020  -0.001
 -0.086   0.026  -0.001   0.002   1.493   0.000  -0.015  -0.396  -0.015  -0.000  -0.079  -0.046  -0.006
 -0.002   0.001  -0.406   0.002   0.000   0.118  -0.001  -0.000  -0.033   0.012  -0.002   0.000   0.001
 -0.043   0.019   0.002  -0.485  -0.015  -0.001   0.140   0.007  -0.000  -0.000   0.074   0.005   0.000
  0.016  -0.006   0.000  -0.015  -0.396  -0.000   0.007   0.114   0.004   0.000   0.021   0.013   0.002
 -0.002   0.000   0.122   0.000  -0.015  -0.033  -0.000   0.004   0.076   0.000  -0.001  -0.000  -0.000
 -0.000  -0.000  -0.043   0.002  -0.000   0.012  -0.000   0.000   0.000   0.021  -0.000   0.000   0.000
  0.023  -0.002   0.009  -0.267  -0.079  -0.002   0.074   0.021  -0.001  -0.000   0.078   0.006   0.002
  0.002   0.001  -0.000  -0.020  -0.046   0.000   0.005   0.013  -0.000   0.000   0.006   0.022   0.001
 -0.000  -0.000  -0.002  -0.001  -0.006   0.001   0.000   0.002  -0.000   0.000   0.002   0.001   0.017


------------------------ aborting loop because EDIFF is reached ----------------------------------------


    CHARGE:  cpu time    0.1704: real time    0.1711
    FORLOC:  cpu time    0.0017: real time    0.0017
    FORNL :  cpu time    0.3074: real time    0.3078
    STRESS:  cpu time    0.5873: real time    0.5879
    FORCOR:  cpu time    0.0386: real time    0.0387
    FORHAR:  cpu time    0.0099: real time    0.0099
    MIXING:  cpu time    0.0008: real time    0.0008
    OFIELD:  cpu time    0.0000: real time    0.0000

  FORCE on cell =-STRESS in cart. coord.  units (eV):
  Direction    XX          YY          ZZ          XY          YZ          ZX
  --------------------------------------------------------------------------------------
  Alpha Z     9.57644     9.57644     9.57644
  Ewald    1583.42621  1587.66375 -2041.14635     1.19447   -13.66589   -13.62904
  Hartree  1704.74105  1706.34207 -1657.97025     0.38877   -12.66332   -12.65894
  E(xc)     -77.66556   -77.67908   -78.88784     0.01629    -0.00453    -0.00459
  Local   -3540.96017 -3546.25463  3444.21207    -1.61524    26.31922    26.28418
  n-local   162.52587   162.70395   167.20977    -0.04412     0.01617     0.01881
  augment   -31.87529   -31.82130   -32.80201     0.00497    -0.00359    -0.00308
  Kinetic   190.22902   189.48261   189.80599     0.21236     0.00246    -0.01099
  Fock        0.00000     0.00000     0.00000     0.00000     0.00000     0.00000
  -------------------------------------------------------------------------------------
  Total      -0.00242     0.01381    -0.00218     0.15749     0.00051    -0.00366
  in kB      -0.01040     0.05927    -0.00937     0.67578     0.00221    -0.01572
  external pressure =        0.01 kB  Pullay stress =        0.00 kB


 VOLUME and BASIS-vectors are now :
 -----------------------------------------------------------------------------
  energy-cutoff  :      600.00
  volume of cell :      373.39
      direct lattice vectors                 reciprocal lattice vectors
     4.382356765 -0.016433838 -0.016433838     0.228194187  0.000858974  0.000865440
    -0.016096792  4.292477857 -0.016096792     0.000876959  0.232972277  0.000883561
    -0.075000000 -0.075000000 19.850000000     0.000189633  0.000189633  0.050379267

  length of vectors
     4.382418391  4.292538220 19.850283373     0.228197445  0.232975603  0.050379981


 FORCES acting on ions
    electron-ion (+dipol)            ewald-force                    non-local-force                 convergence-correction
 -----------------------------------------------------------------------------------------------
   0.366E+01 -.101E+01 -.144E+03   -.513E+01 0.120E+01 0.148E+03   0.147E+01 -.189E+00 -.382E+01   -.177E-03 0.185E-03 -.119E-03
   0.474E+01 0.501E-01 0.144E+03   -.623E+01 0.113E+00 -.148E+03   0.149E+01 -.163E+00 0.381E+01   0.145E-03 -.145E-03 -.909E-04
   -.602E+01 -.170E+00 -.206E+03   0.647E+01 0.134E+00 0.208E+03   -.450E+00 0.380E-01 -.204E+01   0.459E-03 -.108E-02 -.712E-03
   -.445E+01 0.139E+01 0.206E+03   0.489E+01 -.145E+01 -.208E+03   -.433E+00 0.546E-01 0.204E+01   -.679E-03 0.481E-03 0.769E-04
 -----------------------------------------------------------------------------------------------
   -.207E+01 0.260E+00 0.840E-02   -.266E-14 0.178E-14 0.284E-13   0.207E+01 -.260E+00 -.750E-02   -.252E-03 -.558E-03 -.845E-03
 
 
 POSITION                                       TOTAL-FORCE (eV/Angst)
 -----------------------------------------------------------------------------------
      2.50292      3.16231     11.27850        -0.000688     -0.000239      0.000043
      0.30829      1.01387      8.54460         0.000601     -0.000033      0.000244
      0.10836      1.05512     11.26155        -0.000353      0.000595     -0.000406
      2.28068      3.18347      8.56297         0.000440     -0.000323      0.000119
 -----------------------------------------------------------------------------------
    total drift:                               -0.000199     -0.000164      0.000053


--------------------------------------------------------------------------------------------------------



  FREE ENERGIE OF THE ION-ELECTRON SYSTEM (eV)
  ---------------------------------------------------
  free  energy   TOTEN  =       -16.26380575 eV

  energy  without entropy=      -16.26380575  energy(sigma->0) =      -16.26380575
 
 d Force = 0.5078922E-06[ 0.327E-06, 0.689E-06]  d Energy = 0.4299814E-06 0.779E-07
 d Force = 0.4497347E-01[ 0.450E-01, 0.450E-01]  d Ewald  = 0.4497347E-01-0.464E-10


--------------------------------------------------------------------------------------------------------


    POTLOK:  cpu time    0.0403: real time    0.0403


--------------------------------------------------------------------------------------------------------


 Conjugate gradient step on ions:
 trial-energy change:   -0.000000  1 .order   -0.000001   -0.000001   -0.000000
  (g-gl).g = 0.877E-07      g.g   = 0.227E-06  gl.gl    = 0.134E-05
 g(Force)  = 0.227E-06   g(Stress)= 0.000E+00 ortho     =-0.174E-07
 gamma     =   0.06552
 trial     =   3.04263
 opt step  =   5.79788  (harmonic =   5.79788) maximal distance =0.00028409
 next E    =   -16.263806   (d E  =  -0.00000)


--------------------------------------------------------------------------------------------------------


  
 reached required accuracy - stopping structural energy minimisation
 writing wavefunctions
     LOOP+:  cpu time    6.8500: real time    7.1598
    4ORBIT:  cpu time    0.0000: real time    0.0000

 total amount of memory used by VASP MPI-rank0    63465. kBytes
=======================================================================

   base      :      30000. kBytes
   nonl-proj :      12585. kBytes
   fftplans  :       2678. kBytes
   grid      :       4349. kBytes
   one-center:          8. kBytes
   wavefun   :      13845. kBytes
 
  
  
 General timing and accounting informations for this job:
 ========================================================
  
                  Total CPU time used (sec):      238.761
                            User time (sec):      238.104
                          System time (sec):        0.657
                         Elapsed time (sec):      247.887
  
                   Maximum memory used (kb):      232008.
                   Average memory used (kb):           0.
  
                          Minor page faults:        74127
                          Major page faults:          149
                 Voluntary context switches:         9786
