 vasp.5.4.4.18Apr17-6-g9f103f2a35 (build Sep 16 2021 13:51:27) complex          
  
 executed on             LinuxIFC date 2023.02.26  09:55:28
 running on   24 total cores
 distrk:  each k-point on   24 cores,    1 groups
 distr:  one band on NCORES_PER_BAND=  24 cores,    1 groups


--------------------------------------------------------------------------------------------------------


 INCAR:
 POTCAR:    PAW_PBE Sn 08Apr2002                  
 POTCAR:    PAW_PBE Se 06Sep2000                  

 ----------------------------------------------------------------------------- 
|                                                                             |
|           W    W    AA    RRRRR   N    N  II  N    N   GGGG   !!!           |
|           W    W   A  A   R    R  NN   N  II  NN   N  G    G  !!!           |
|           W    W  A    A  R    R  N N  N  II  N N  N  G       !!!           |
|           W WW W  AAAAAA  RRRRR   N  N N  II  N  N N  G  GGG   !            |
|           WW  WW  A    A  R   R   N   NN  II  N   NN  G    G                |
|           W    W  A    A  R    R  N    N  II  N    N   GGGG   !!!           |
|                                                                             |
|      For optimal performance we recommend to set                            |
|        NCORE= 4 - approx SQRT( number of cores)                             |
|      NCORE specifies how many cores store one orbital (NPAR=cpu/NCORE).     |
|      This setting can  greatly improve the performance of VASP for DFT.     |
|      The default,   NCORE=1            might be grossly inefficient         |
|      on modern multi-core architectures or massively parallel machines.     |
|      Do your own testing !!!!                                               |
|      Unfortunately you need to use the default for GW and RPA calculations. |
|      (for HF NCORE is supported but not extensively tested yet)             |
|                                                                             |
 ----------------------------------------------------------------------------- 

 POTCAR:    PAW_PBE Sn 08Apr2002                  
   VRHFIN =Sn: s2p2                                                             
   LEXCH  = PE                                                                  
   EATOM  =    94.0860 eV,    6.9151 Ry                                         
                                                                                
   TITEL  = PAW_PBE Sn 08Apr2002                                                
   LULTRA =        F    use ultrasoft PP ?                                      
   IUNSCR =        1    unscreen: 0-lin 1-nonlin 2-no                           
   RPACOR =    2.000    partial core radius                                     
   POMASS =  118.710; ZVAL   =    4.000    mass and valenz                      
   RCORE  =    3.000    outmost cutoff radius                                   
   RWIGS  =    2.960; RWIGS  =    1.566    wigner-seitz radius (au A)           
   ENMAX  =  103.236; ENMIN  =   77.427 eV                                      
   ICORE  =        3    local potential                                         
   LCOR   =        T    correct aug charges                                     
   LPAW   =        T    paw PP                                                  
   EAUG   =  263.585                                                            
   DEXC   =    0.000                                                            
   RMAX   =    3.078    core radius for proj-oper                               
   RAUG   =    1.300    factor for augmentation sphere                          
   RDEP   =    3.022    radius for radial grids                                 
   RDEPT  =    2.655    core radius for aug-charge                              
                                                                                
   Atomic configuration                                                         
   13 entries                                                                   
     n  l   j            E        occ.                                          
     1  0  0.50    -29007.2859   2.0000                                         
     2  0  0.50     -4378.8056   2.0000                                         
     2  1  1.50     -3930.4293   6.0000                                         
     3  0  0.50      -845.0264   2.0000                                         
     3  1  1.50      -698.5725   6.0000                                         
     3  2  2.50      -473.2839  10.0000                                         
     4  0  0.50      -133.9036   2.0000                                         
     4  1  1.50       -89.6752   6.0000                                         
     4  2  2.50       -25.8375  10.0000                                         
     5  0  0.50       -10.5484   2.0000                                         
     5  1  0.50        -3.6940   2.0000                                         
     5  2  1.50        -1.3606   0.0000                                         
     4  3  2.50        -4.0817   0.0000                                         
   Description                                                                  
     l       E           TYP  RCUT    TYP  RCUT                                 
     0    -10.5483727     23  3.000                                             
     0     27.2116520     23  3.000                                             
     1     -3.6939829     23  3.000                                             
     1      1.9821976     23  3.000                                             
     2     -1.3605826     23  3.000                                             
     3     -2.7211652     23  3.000                                             
  local pseudopotential read in
  partial core-charges read in
  partial kinetic energy density read in
  atomic valenz-charges read in
  non local Contribution for L=           0  read in
    real space projection operators read in
  non local Contribution for L=           0  read in
    real space projection operators read in
  non local Contribution for L=           1  read in
    real space projection operators read in
  non local Contribution for L=           1  read in
    real space projection operators read in
  non local Contribution for L=           2  read in
    real space projection operators read in
    PAW grid and wavefunctions read in
 
   number of l-projection  operators is LMAX  =           5
   number of lm-projection operators is LMMAX =          13
 
 POTCAR:    PAW_PBE Se 06Sep2000                  
   VRHFIN =Se: s2p4                                                             
   LEXCH  = PE                                                                  
   EATOM  =   257.1286 eV,   18.8984 Ry                                         
                                                                                
   TITEL  = PAW_PBE Se 06Sep2000                                                
   LULTRA =        F    use ultrasoft PP ?                                      
   IUNSCR =        1    unscreen: 0-lin 1-nonlin 2-no                           
   RPACOR =    1.900    partial core radius                                     
   POMASS =   78.960; ZVAL   =    6.000    mass and valenz                      
   RCORE  =    2.100    outmost cutoff radius                                   
   RWIGS  =    2.200; RWIGS  =    1.164    wigner-seitz radius (au A)           
   ENMAX  =  211.555; ENMIN  =  158.666 eV                                      
   ICORE  =        3    local potential                                         
   LCOR   =        T    correct aug charges                                     
   LPAW   =        T    paw PP                                                  
   EAUG   =  446.842                                                            
   DEXC   =    0.000                                                            
   RMAX   =    2.147    core radius for proj-oper                               
   RAUG   =    1.300    factor for augmentation sphere                          
   RDEP   =    2.177    radius for radial grids                                 
   RDEPT  =    1.928    core radius for aug-charge                              
                                                                                
   Atomic configuration                                                         
   10 entries                                                                   
     n  l   j            E        occ.                                          
     1  0  0.50    -12503.4787   2.0000                                         
     2  0  0.50     -1606.9547   2.0000                                         
     2  1  1.50     -1413.3140   6.0000                                         
     3  0  0.50      -213.4885   2.0000                                         
     3  1  1.50      -152.9538   6.0000                                         
     3  2  2.50       -53.1221  10.0000                                         
     4  0  0.50       -17.2865   2.0000                                         
     4  1  0.50        -6.5110   4.0000                                         
     4  2  2.50        -6.8029   0.0000                                         
     4  3  2.50        -6.8029   0.0000                                         
   Description                                                                  
     l       E           TYP  RCUT    TYP  RCUT                                 
     0    -17.2865377     23  2.100                                             
     0    -15.3094411     23  2.100                                             
     1     -6.5110275     23  2.100                                             
     1     -0.0695192     23  2.100                                             
     2     -6.8029130     23  2.100                                             
     3     -1.3605826      7  2.100                                             
  local pseudopotential read in
  partial core-charges read in
  partial kinetic energy density read in
  atomic valenz-charges read in
  non local Contribution for L=           0  read in
    real space projection operators read in
  non local Contribution for L=           0  read in
    real space projection operators read in
  non local Contribution for L=           1  read in
    real space projection operators read in
  non local Contribution for L=           1  read in
    real space projection operators read in
  non local Contribution for L=           2  read in
    real space projection operators read in
    PAW grid and wavefunctions read in
 
   number of l-projection  operators is LMAX  =           5
   number of lm-projection operators is LMMAX =          13
 
 WARNING: PSMAXN for non-local potential too small
          PSMAXN should be >   12.5490833729506       NTYP=           1
  PAW_PBE Sn 08Apr2002                  :
 energy of atom  1       EATOM=  -94.0860
 kinetic energy error for atom=    0.0000 (will be added to EATOM!!)
  PAW_PBE Se 06Sep2000                  :
 energy of atom  2       EATOM= -257.1286
 kinetic energy error for atom=    0.0006 (will be added to EATOM!!)
 
 
 POSCAR:  SnSe-Monolayer                         
  positions in direct lattice
  velocities in cartesian coordinates
 exchange correlation table for  LEXCH =        8
   RHO(1)=    0.500       N(1)  =     2000
   RHO(2)=  100.500       N(2)  =     4000
 


--------------------------------------------------------------------------------------------------------


 ion  position               nearest neighbor table
   1  0.581  0.750  0.569-   4 2.72   3 2.91   3 2.91   3 3.21   3 3.21
   2  0.081  0.250  0.431-   3 2.72   4 2.91   4 2.91   4 3.21   4 3.21
   3  0.033  0.250  0.567-   2 2.72   1 2.91   1 2.91   1 3.21   1 3.21
   4  0.533  0.750  0.433-   1 2.72   2 2.91   2 2.91   2 3.21   2 3.21
 
  LATTYP: Found a simple orthorhombic cell.
 ALAT       =     4.2924778572
 B/A-ratio  =     1.0148130682
 C/A-ratio  =     4.6593134934
  
  Lattice vectors:
  
 A1 = (   0.0000000000,  -4.2924778572,   0.0000000000)
 A2 = (  -4.3560626243,   0.0000000000,   0.0000000000)
 A3 = (   0.0000000000,   0.0000000000, -20.0000000000)


Analysis of symmetry for initial positions (statically):
=====================================================================
 Subroutine PRICEL returns:
 Original cell was already a primitive cell.
 

 Routine SETGRP: Setting up the symmetry group for a 
 simple orthorhombic supercell.


 Subroutine GETGRP returns: Found  4 space group operations
 (whereof  1 operations were pure point group operations)
 out of a pool of  8 trial point group operations.


The static configuration has the point symmetry C_1 .
 The point group associated with its full space group is C_2v.


Analysis of symmetry for dynamics (positions and initial velocities):
=====================================================================
 Subroutine PRICEL returns:
 Original cell was already a primitive cell.
 

 Routine SETGRP: Setting up the symmetry group for a 
 simple orthorhombic supercell.


 Subroutine GETGRP returns: Found  4 space group operations
 (whereof  1 operations were pure point group operations)
 out of a pool of  8 trial point group operations.


The dynamic configuration has the point symmetry C_1 .
 The point group associated with its full space group is C_2v.


 Subroutine INISYM returns: Found  4 space group operations
 (whereof  1 operations are pure point group operations),
 and found     1 'primitive' translations

 
 
 KPOINTS: Automatic                               

Automatic generation of k-mesh.
Space group operators:
 irot       det(A)        alpha          n_x          n_y          n_z        tau_x        tau_y        tau_z
    1     1.000000     0.000000     1.000000     0.000000     0.000000     0.000000     0.000000     0.000000
    2    -1.000000   180.000000     0.000000     0.000000     1.000000    -0.500000    -0.500000     0.000000
    3     1.000000   180.000000     1.000000     0.000000     0.000000    -0.500000     0.000000     0.000000
    4    -1.000000   180.000000     0.000000     1.000000     0.000000     0.000000    -0.500000     0.000000
 
 Subroutine IBZKPT returns following result:
 ===========================================
 
 Found     64 irreducible k-points:
 
 Following reciprocal coordinates:
            Coordinates               Weight
  0.000000  0.000000  0.000000      1.000000
  0.066667  0.000000  0.000000      2.000000
  0.133333  0.000000  0.000000      2.000000
  0.200000  0.000000  0.000000      2.000000
  0.266667  0.000000  0.000000      2.000000
  0.333333  0.000000  0.000000      2.000000
  0.400000  0.000000  0.000000      2.000000
  0.466667  0.000000  0.000000      2.000000
  0.000000  0.066667  0.000000      2.000000
  0.066667  0.066667  0.000000      4.000000
  0.133333  0.066667  0.000000      4.000000
  0.200000  0.066667  0.000000      4.000000
  0.266667  0.066667  0.000000      4.000000
  0.333333  0.066667  0.000000      4.000000
  0.400000  0.066667  0.000000      4.000000
  0.466667  0.066667  0.000000      4.000000
  0.000000  0.133333  0.000000      2.000000
  0.066667  0.133333  0.000000      4.000000
  0.133333  0.133333  0.000000      4.000000
  0.200000  0.133333  0.000000      4.000000
  0.266667  0.133333  0.000000      4.000000
  0.333333  0.133333  0.000000      4.000000
  0.400000  0.133333  0.000000      4.000000
  0.466667  0.133333  0.000000      4.000000
  0.000000  0.200000  0.000000      2.000000
  0.066667  0.200000  0.000000      4.000000
  0.133333  0.200000  0.000000      4.000000
  0.200000  0.200000  0.000000      4.000000
  0.266667  0.200000  0.000000      4.000000
  0.333333  0.200000  0.000000      4.000000
  0.400000  0.200000  0.000000      4.000000
  0.466667  0.200000  0.000000      4.000000
  0.000000  0.266667  0.000000      2.000000
  0.066667  0.266667  0.000000      4.000000
  0.133333  0.266667  0.000000      4.000000
  0.200000  0.266667  0.000000      4.000000
  0.266667  0.266667  0.000000      4.000000
  0.333333  0.266667  0.000000      4.000000
  0.400000  0.266667  0.000000      4.000000
  0.466667  0.266667  0.000000      4.000000
  0.000000  0.333333  0.000000      2.000000
  0.066667  0.333333  0.000000      4.000000
  0.133333  0.333333  0.000000      4.000000
  0.200000  0.333333  0.000000      4.000000
  0.266667  0.333333  0.000000      4.000000
  0.333333  0.333333  0.000000      4.000000
  0.400000  0.333333  0.000000      4.000000
  0.466667  0.333333  0.000000      4.000000
  0.000000  0.400000  0.000000      2.000000
  0.066667  0.400000  0.000000      4.000000
  0.133333  0.400000  0.000000      4.000000
  0.200000  0.400000  0.000000      4.000000
  0.266667  0.400000  0.000000      4.000000
  0.333333  0.400000  0.000000      4.000000
  0.400000  0.400000  0.000000      4.000000
  0.466667  0.400000  0.000000      4.000000
  0.000000  0.466667  0.000000      2.000000
  0.066667  0.466667  0.000000      4.000000
  0.133333  0.466667  0.000000      4.000000
  0.200000  0.466667  0.000000      4.000000
  0.266667  0.466667  0.000000      4.000000
  0.333333  0.466667  0.000000      4.000000
  0.400000  0.466667  0.000000      4.000000
  0.466667  0.466667  0.000000      4.000000
 
 Following cartesian coordinates:
            Coordinates               Weight
  0.000000  0.000000  0.000000      1.000000
  0.015304  0.000000  0.000000      2.000000
  0.030609  0.000000  0.000000      2.000000
  0.045913  0.000000  0.000000      2.000000
  0.061217  0.000000  0.000000      2.000000
  0.076522  0.000000  0.000000      2.000000
  0.091826  0.000000  0.000000      2.000000
  0.107130  0.000000  0.000000      2.000000
  0.000000  0.015531  0.000000      2.000000
  0.015304  0.015531  0.000000      4.000000
  0.030609  0.015531  0.000000      4.000000
  0.045913  0.015531  0.000000      4.000000
  0.061217  0.015531  0.000000      4.000000
  0.076522  0.015531  0.000000      4.000000
  0.091826  0.015531  0.000000      4.000000
  0.107130  0.015531  0.000000      4.000000
  0.000000  0.031062  0.000000      2.000000
  0.015304  0.031062  0.000000      4.000000
  0.030609  0.031062  0.000000      4.000000
  0.045913  0.031062  0.000000      4.000000
  0.061217  0.031062  0.000000      4.000000
  0.076522  0.031062  0.000000      4.000000
  0.091826  0.031062  0.000000      4.000000
  0.107130  0.031062  0.000000      4.000000
  0.000000  0.046593  0.000000      2.000000
  0.015304  0.046593  0.000000      4.000000
  0.030609  0.046593  0.000000      4.000000
  0.045913  0.046593  0.000000      4.000000
  0.061217  0.046593  0.000000      4.000000
  0.076522  0.046593  0.000000      4.000000
  0.091826  0.046593  0.000000      4.000000
  0.107130  0.046593  0.000000      4.000000
  0.000000  0.062124  0.000000      2.000000
  0.015304  0.062124  0.000000      4.000000
  0.030609  0.062124  0.000000      4.000000
  0.045913  0.062124  0.000000      4.000000
  0.061217  0.062124  0.000000      4.000000
  0.076522  0.062124  0.000000      4.000000
  0.091826  0.062124  0.000000      4.000000
  0.107130  0.062124  0.000000      4.000000
  0.000000  0.077655  0.000000      2.000000
  0.015304  0.077655  0.000000      4.000000
  0.030609  0.077655  0.000000      4.000000
  0.045913  0.077655  0.000000      4.000000
  0.061217  0.077655  0.000000      4.000000
  0.076522  0.077655  0.000000      4.000000
  0.091826  0.077655  0.000000      4.000000
  0.107130  0.077655  0.000000      4.000000
  0.000000  0.093186  0.000000      2.000000
  0.015304  0.093186  0.000000      4.000000
  0.030609  0.093186  0.000000      4.000000
  0.045913  0.093186  0.000000      4.000000
  0.061217  0.093186  0.000000      4.000000
  0.076522  0.093186  0.000000      4.000000
  0.091826  0.093186  0.000000      4.000000
  0.107130  0.093186  0.000000      4.000000
  0.000000  0.108717  0.000000      2.000000
  0.015304  0.108717  0.000000      4.000000
  0.030609  0.108717  0.000000      4.000000
  0.045913  0.108717  0.000000      4.000000
  0.061217  0.108717  0.000000      4.000000
  0.076522  0.108717  0.000000      4.000000
  0.091826  0.108717  0.000000      4.000000
  0.107130  0.108717  0.000000      4.000000
 


--------------------------------------------------------------------------------------------------------




 Dimension of arrays:
   k-points           NKPTS =     64   k-points in BZ     NKDIM =     64   number of bands    NBANDS=     14
   number of dos      NEDOS =    301   number of ions     NIONS =      4
   non local maximal  LDIM  =      5   non local SUM 2l+1 LMDIM =     13
   total plane-waves  NPLWV = 207360
   max r-space proj   IRMAX =      1   max aug-charges    IRDMAX=  53567
   dimension x,y,z NGX =    36 NGY =   36 NGZ =  160
   dimension x,y,z NGXF=    72 NGYF=   72 NGZF=  320
   support grid    NGXF=    72 NGYF=   72 NGZF=  320
   ions per type =               2   2
   NGX,Y,Z   is equivalent  to a cutoff of  13.74, 13.94, 13.30 a.u.
   NGXF,Y,Z  is equivalent  to a cutoff of  27.48, 27.89, 26.60 a.u.

 SYSTEM =  SnSe                                    
 POSCAR =   SnSe-Monolayer                         

 Startparameter for this run:
   NWRITE =      2    write-flag & timer
   PREC   = accura    normal or accurate (medium, high low for compatibility)
   ISTART =      0    job   : 0-new  1-cont  2-samecut
   ICHARG =      2    charge: 1-file 2-atom 10-const
   ISPIN  =      1    spin polarized calculation?
   LNONCOLLINEAR =      F non collinear calculations
   LSORBIT =      F    spin-orbit coupling
   INIWAV =      1    electr: 0-lowe 1-rand  2-diag
   LASPH  =      F    aspherical Exc in radial PAW
   METAGGA=      F    non-selfconsistent MetaGGA calc.

 Electronic Relaxation 1
   ENCUT  =  600.0 eV  44.10 Ry    6.64 a.u.   8.70  8.57 39.94*2*pi/ulx,y,z
   ENINI  =  600.0     initial cutoff
   ENAUG  =  446.8 eV  augmentation charge cutoff
   NELM   =     60;   NELMIN=  2; NELMDL= -5     # of ELM steps 
   EDIFF  = 0.1E-05   stopping-criterion for ELM
   LREAL  =      F    real-space projection
   NLSPLINE    = F    spline interpolate recip. space projectors
   LCOMPAT=      F    compatible to vasp.4.4
   GGA_COMPAT  = T    GGA compatible to vasp.4.4-vasp.4.6
   LMAXPAW     = -100 max onsite density
   LMAXMIX     =    2 max onsite mixed and CHGCAR
   VOSKOWN=      0    Vosko Wilk Nusair interpolation
   ROPT   =    0.00000   0.00000
 Ionic relaxation
   EDIFFG = -.1E-02   stopping-criterion for IOM
   NSW    =    100    number of steps for IOM
   NBLOCK =      1;   KBLOCK =    100    inner block; outer block 
   IBRION =      2    ionic relax: 0-MD 1-quasi-New 2-CG
   NFREE  =      1    steps in history (QN), initial steepest desc. (CG)
   ISIF   =      2    stress and relaxation
   IWAVPR =     11    prediction:  0-non 1-charg 2-wave 3-comb
   ISYM   =      2    0-nonsym 1-usesym 2-fastsym
   LCORR  =      T    Harris-Foulkes like correction to forces

   POTIM  = 0.5000    time-step for ionic-motion
   TEIN   =    0.0    initial temperature
   TEBEG  =    0.0;   TEEND  =   0.0 temperature during run
   SMASS  =  -3.00    Nose mass-parameter (am)
   estimated Nose-frequenzy (Omega)   =  0.10E-29 period in steps =****** mass=  -0.434E-27a.u.
   SCALEE = 1.0000    scale energy and forces
   NPACO  =    256;   APACO  = 16.0  distance and # of slots for P.C.
   PSTRESS=    0.0 pullay stress

  Mass of Ions in am
   POMASS = 118.71 78.96
  Ionic Valenz
   ZVAL   =   4.00  6.00
  Atomic Wigner-Seitz radii
   RWIGS  =  -1.00 -1.00
  virtual crystal weights 
   VCA    =   1.00  1.00
   NELECT =      20.0000    total number of electrons
   NUPDOWN=      -1.0000    fix difference up-down

 DOS related values:
   EMIN   =  10.00;   EMAX   =-10.00  energy-range for DOS
   EFERMI =   0.00
   ISMEAR =     0;   SIGMA  =   0.10  broadening in eV -4-tet -1-fermi 0-gaus

 Electronic relaxation 2 (details)
   IALGO  =     38    algorithm
   LDIAG  =      T    sub-space diagonalisation (order eigenvalues)
   LSUBROT=      F    optimize rotation matrix (better conditioning)
   TURBO    =      0    0=normal 1=particle mesh
   IRESTART =      0    0=no restart 2=restart with 2 vectors
   NREBOOT  =      0    no. of reboots
   NMIN     =      0    reboot dimension
   EREF     =   0.00    reference energy to select bands
   IMIX   =      4    mixing-type and parameters
     AMIX     =   0.40;   BMIX     =  1.00
     AMIX_MAG =   1.60;   BMIX_MAG =  1.00
     AMIN     =   0.10
     WC   =   100.;   INIMIX=   1;  MIXPRE=   1;  MAXMIX= -45

 Intra band minimization:
   WEIMIN = 0.0010     energy-eigenvalue tresh-hold
   EBREAK =  0.18E-07  absolut break condition
   DEPER  =   0.30     relativ break condition  

   TIME   =   0.40     timestep for ELM

  volume/ion in A,a.u.               =      93.49       630.91
  Fermi-wavevector in a.u.,A,eV,Ry     =   0.616795  1.165573  5.176145  0.380436
  Thomas-Fermi vector in A             =   1.674651
 
 Write flags
   LWAVE        =      T    write WAVECAR
   LDOWNSAMPLE  =      F    k-point downsampling of WAVECAR
   LCHARG       =      T    write CHGCAR
   LVTOT        =      F    write LOCPOT, total local potential
   LVHAR        =      F    write LOCPOT, Hartree potential only
   LELF         =      F    write electronic localiz. function (ELF)
   LORBIT       =      0    0 simple, 1 ext, 2 COOP (PROOUT), +10 PAW based schemes


 Dipole corrections
   LMONO  =      F    monopole corrections only (constant potential shift)
   LDIPOL =      F    correct potential (dipole corrections)
   IDIPOL =      0    1-x, 2-y, 3-z, 4-all directions 
   EPSILON=  1.0000000 bulk dielectric constant

 Exchange correlation treatment:
   GGA     =    PE    GGA type
   LEXCH   =     8    internal setting for exchange type
   VOSKOWN=      0    Vosko Wilk Nusair interpolation
   LHFCALC =     F    Hartree Fock is set to
   LHFONE  =     F    Hartree Fock one center treatment
   AEXX    =    0.0000 exact exchange contribution

 Linear response parameters
   LEPSILON=     F    determine dielectric tensor
   LRPA    =     F    only Hartree local field effects (RPA)
   LNABLA  =     F    use nabla operator in PAW spheres
   LVEL    =     F    velocity operator in full k-point grid
   LINTERFAST=   F  fast interpolation
   KINTER  =     0    interpolate to denser k-point grid
   CSHIFT  =0.1000    complex shift for real part using Kramers Kronig
   OMEGAMAX=  -1.0    maximum frequency
   DEG_THRESHOLD= 0.2000000E-02 threshold for treating states as degnerate
   RTIME   =   -0.100 relaxation time in fs
  (WPLASMAI=    0.000 imaginary part of plasma frequency in eV, 0.658/RTIME)
   DFIELD  = 0.0000000 0.0000000 0.0000000 field for delta impulse in time
 
 Orbital magnetization related:
   ORBITALMAG=     F  switch on orbital magnetization
   LCHIMAG   =     F  perturbation theory with respect to B field
   DQ        =  0.001000  dq finite difference perturbation B field
   LLRAUG    =     F  two centre corrections for induced B field



--------------------------------------------------------------------------------------------------------


 conjugate gradient relaxation of ions
 charge density and potential will be updated during run
 non-spin polarized calculation
 Variant of blocked Davidson
 Davidson routine will perform the subspace rotation
 perform sub-space diagonalisation
    after iterative eigenvector-optimisation
 modified Broyden-mixing scheme, WC =      100.0
 initial mixing is a Kerker type mixing with AMIX =  0.4000 and BMIX =      1.0000
 Hartree-type preconditioning will be used
 using additional bands            4
 reciprocal scheme for non local part
 use partial core corrections
 calculate Harris-corrections to forces 
   (improved forces if not selfconsistent)
 use gradient corrections 
 use of overlap-Matrix (Vanderbilt PP)
 Gauss-broadening in eV      SIGMA  =   0.10


--------------------------------------------------------------------------------------------------------


  energy-cutoff  :      600.00
  volume of cell :      373.97
      direct lattice vectors                 reciprocal lattice vectors
     4.356062624  0.000000000  0.000000000     0.229565111  0.000000000  0.000000000
     0.000000000  4.292477857  0.000000000     0.000000000  0.232965675  0.000000000
     0.000000000  0.000000000 20.000000000     0.000000000  0.000000000  0.050000000

  length of vectors
     4.356062624  4.292477857 20.000000000     0.229565111  0.232965675  0.050000000


 
 k-points in units of 2pi/SCALE and weight: Automatic                               
   0.00000000  0.00000000  0.00000000       0.004
   0.01530434  0.00000000  0.00000000       0.009
   0.03060868  0.00000000  0.00000000       0.009
   0.04591302  0.00000000  0.00000000       0.009
   0.06121736  0.00000000  0.00000000       0.009
   0.07652170  0.00000000  0.00000000       0.009
   0.09182604  0.00000000  0.00000000       0.009
   0.10713039  0.00000000  0.00000000       0.009
   0.00000000  0.01553104  0.00000000       0.009
   0.01530434  0.01553104  0.00000000       0.018
   0.03060868  0.01553104  0.00000000       0.018
   0.04591302  0.01553104  0.00000000       0.018
   0.06121736  0.01553104  0.00000000       0.018
   0.07652170  0.01553104  0.00000000       0.018
   0.09182604  0.01553104  0.00000000       0.018
   0.10713039  0.01553104  0.00000000       0.018
   0.00000000  0.03106209  0.00000000       0.009
   0.01530434  0.03106209  0.00000000       0.018
   0.03060868  0.03106209  0.00000000       0.018
   0.04591302  0.03106209  0.00000000       0.018
   0.06121736  0.03106209  0.00000000       0.018
   0.07652170  0.03106209  0.00000000       0.018
   0.09182604  0.03106209  0.00000000       0.018
   0.10713039  0.03106209  0.00000000       0.018
   0.00000000  0.04659313  0.00000000       0.009
   0.01530434  0.04659313  0.00000000       0.018
   0.03060868  0.04659313  0.00000000       0.018
   0.04591302  0.04659313  0.00000000       0.018
   0.06121736  0.04659313  0.00000000       0.018
   0.07652170  0.04659313  0.00000000       0.018
   0.09182604  0.04659313  0.00000000       0.018
   0.10713039  0.04659313  0.00000000       0.018
   0.00000000  0.06212418  0.00000000       0.009
   0.01530434  0.06212418  0.00000000       0.018
   0.03060868  0.06212418  0.00000000       0.018
   0.04591302  0.06212418  0.00000000       0.018
   0.06121736  0.06212418  0.00000000       0.018
   0.07652170  0.06212418  0.00000000       0.018
   0.09182604  0.06212418  0.00000000       0.018
   0.10713039  0.06212418  0.00000000       0.018
   0.00000000  0.07765522  0.00000000       0.009
   0.01530434  0.07765522  0.00000000       0.018
   0.03060868  0.07765522  0.00000000       0.018
   0.04591302  0.07765522  0.00000000       0.018
   0.06121736  0.07765522  0.00000000       0.018
   0.07652170  0.07765522  0.00000000       0.018
   0.09182604  0.07765522  0.00000000       0.018
   0.10713039  0.07765522  0.00000000       0.018
   0.00000000  0.09318627  0.00000000       0.009
   0.01530434  0.09318627  0.00000000       0.018
   0.03060868  0.09318627  0.00000000       0.018
   0.04591302  0.09318627  0.00000000       0.018
   0.06121736  0.09318627  0.00000000       0.018
   0.07652170  0.09318627  0.00000000       0.018
   0.09182604  0.09318627  0.00000000       0.018
   0.10713039  0.09318627  0.00000000       0.018
   0.00000000  0.10871731  0.00000000       0.009
   0.01530434  0.10871731  0.00000000       0.018
   0.03060868  0.10871731  0.00000000       0.018
   0.04591302  0.10871731  0.00000000       0.018
   0.06121736  0.10871731  0.00000000       0.018
   0.07652170  0.10871731  0.00000000       0.018
   0.09182604  0.10871731  0.00000000       0.018
   0.10713039  0.10871731  0.00000000       0.018
 
 k-points in reciprocal lattice and weights: Automatic                               
   0.00000000  0.00000000  0.00000000       0.004
   0.06666667  0.00000000  0.00000000       0.009
   0.13333333  0.00000000  0.00000000       0.009
   0.20000000  0.00000000  0.00000000       0.009
   0.26666667  0.00000000  0.00000000       0.009
   0.33333333  0.00000000  0.00000000       0.009
   0.40000000  0.00000000  0.00000000       0.009
   0.46666667  0.00000000  0.00000000       0.009
   0.00000000  0.06666667  0.00000000       0.009
   0.06666667  0.06666667  0.00000000       0.018
   0.13333333  0.06666667  0.00000000       0.018
   0.20000000  0.06666667  0.00000000       0.018
   0.26666667  0.06666667  0.00000000       0.018
   0.33333333  0.06666667  0.00000000       0.018
   0.40000000  0.06666667  0.00000000       0.018
   0.46666667  0.06666667  0.00000000       0.018
   0.00000000  0.13333333  0.00000000       0.009
   0.06666667  0.13333333  0.00000000       0.018
   0.13333333  0.13333333  0.00000000       0.018
   0.20000000  0.13333333  0.00000000       0.018
   0.26666667  0.13333333  0.00000000       0.018
   0.33333333  0.13333333  0.00000000       0.018
   0.40000000  0.13333333  0.00000000       0.018
   0.46666667  0.13333333  0.00000000       0.018
   0.00000000  0.20000000  0.00000000       0.009
   0.06666667  0.20000000  0.00000000       0.018
   0.13333333  0.20000000  0.00000000       0.018
   0.20000000  0.20000000  0.00000000       0.018
   0.26666667  0.20000000  0.00000000       0.018
   0.33333333  0.20000000  0.00000000       0.018
   0.40000000  0.20000000  0.00000000       0.018
   0.46666667  0.20000000  0.00000000       0.018
   0.00000000  0.26666667  0.00000000       0.009
   0.06666667  0.26666667  0.00000000       0.018
   0.13333333  0.26666667  0.00000000       0.018
   0.20000000  0.26666667  0.00000000       0.018
   0.26666667  0.26666667  0.00000000       0.018
   0.33333333  0.26666667  0.00000000       0.018
   0.40000000  0.26666667  0.00000000       0.018
   0.46666667  0.26666667  0.00000000       0.018
   0.00000000  0.33333333  0.00000000       0.009
   0.06666667  0.33333333  0.00000000       0.018
   0.13333333  0.33333333  0.00000000       0.018
   0.20000000  0.33333333  0.00000000       0.018
   0.26666667  0.33333333  0.00000000       0.018
   0.33333333  0.33333333  0.00000000       0.018
   0.40000000  0.33333333  0.00000000       0.018
   0.46666667  0.33333333  0.00000000       0.018
   0.00000000  0.40000000  0.00000000       0.009
   0.06666667  0.40000000  0.00000000       0.018
   0.13333333  0.40000000  0.00000000       0.018
   0.20000000  0.40000000  0.00000000       0.018
   0.26666667  0.40000000  0.00000000       0.018
   0.33333333  0.40000000  0.00000000       0.018
   0.40000000  0.40000000  0.00000000       0.018
   0.46666667  0.40000000  0.00000000       0.018
   0.00000000  0.46666667  0.00000000       0.009
   0.06666667  0.46666667  0.00000000       0.018
   0.13333333  0.46666667  0.00000000       0.018
   0.20000000  0.46666667  0.00000000       0.018
   0.26666667  0.46666667  0.00000000       0.018
   0.33333333  0.46666667  0.00000000       0.018
   0.40000000  0.46666667  0.00000000       0.018
   0.46666667  0.46666667  0.00000000       0.018
 
 position of ions in fractional coordinates (direct lattice) 
   0.58124336  0.75000000  0.56874314
   0.08124336  0.25000000  0.43125686
   0.03286064  0.25000000  0.56707387
   0.53286061  0.75000000  0.43292613
 
 position of ions in cartesian coordinates  (Angst):
   2.53193247  3.21935839 11.37486283
   0.35390116  1.07311946  8.62513717
   0.14314302  1.07311946 11.34147733
   2.32117421  3.21935839  8.65852267
 


--------------------------------------------------------------------------------------------------------


 k-point  1 :   0.0000 0.0000 0.0000  plane waves:   12547
 k-point  2 :   0.0667 0.0000 0.0000  plane waves:   12525
 k-point  3 :   0.1333 0.0000 0.0000  plane waves:   12501
 k-point  4 :   0.2000 0.0000 0.0000  plane waves:   12475
 k-point  5 :   0.2667 0.0000 0.0000  plane waves:   12457
 k-point  6 :   0.3333 0.0000 0.0000  plane waves:   12492
 k-point  7 :   0.4000 0.0000 0.0000  plane waves:   12518
 k-point  8 :   0.4667 0.0000 0.0000  plane waves:   12502
 k-point  9 :   0.0000 0.0667 0.0000  plane waves:   12521
 k-point 10 :   0.0667 0.0667 0.0000  plane waves:   12505
 k-point 11 :   0.1333 0.0667 0.0000  plane waves:   12483
 k-point 12 :   0.2000 0.0667 0.0000  plane waves:   12489
 k-point 13 :   0.2667 0.0667 0.0000  plane waves:   12485
 k-point 14 :   0.3333 0.0667 0.0000  plane waves:   12495
 k-point 15 :   0.4000 0.0667 0.0000  plane waves:   12524
 k-point 16 :   0.4667 0.0667 0.0000  plane waves:   12499
 k-point 17 :   0.0000 0.1333 0.0000  plane waves:   12501
 k-point 18 :   0.0667 0.1333 0.0000  plane waves:   12504
 k-point 19 :   0.1333 0.1333 0.0000  plane waves:   12476
 k-point 20 :   0.2000 0.1333 0.0000  plane waves:   12473
 k-point 21 :   0.2667 0.1333 0.0000  plane waves:   12482
 k-point 22 :   0.3333 0.1333 0.0000  plane waves:   12491
 k-point 23 :   0.4000 0.1333 0.0000  plane waves:   12497
 k-point 24 :   0.4667 0.1333 0.0000  plane waves:   12497
 k-point 25 :   0.0000 0.2000 0.0000  plane waves:   12485
 k-point 26 :   0.0667 0.2000 0.0000  plane waves:   12490
 k-point 27 :   0.1333 0.2000 0.0000  plane waves:   12504
 k-point 28 :   0.2000 0.2000 0.0000  plane waves:   12472
 k-point 29 :   0.2667 0.2000 0.0000  plane waves:   12479
 k-point 30 :   0.3333 0.2000 0.0000  plane waves:   12482
 k-point 31 :   0.4000 0.2000 0.0000  plane waves:   12489
 k-point 32 :   0.4667 0.2000 0.0000  plane waves:   12505
 k-point 33 :   0.0000 0.2667 0.0000  plane waves:   12489
 k-point 34 :   0.0667 0.2667 0.0000  plane waves:   12483
 k-point 35 :   0.1333 0.2667 0.0000  plane waves:   12493
 k-point 36 :   0.2000 0.2667 0.0000  plane waves:   12477
 k-point 37 :   0.2667 0.2667 0.0000  plane waves:   12468
 k-point 38 :   0.3333 0.2667 0.0000  plane waves:   12483
 k-point 39 :   0.4000 0.2667 0.0000  plane waves:   12465
 k-point 40 :   0.4667 0.2667 0.0000  plane waves:   12474
 k-point 41 :   0.0000 0.3333 0.0000  plane waves:   12475
 k-point 42 :   0.0667 0.3333 0.0000  plane waves:   12473
 k-point 43 :   0.1333 0.3333 0.0000  plane waves:   12474
 k-point 44 :   0.2000 0.3333 0.0000  plane waves:   12479
 k-point 45 :   0.2667 0.3333 0.0000  plane waves:   12463
 k-point 46 :   0.3333 0.3333 0.0000  plane waves:   12463
 k-point 47 :   0.4000 0.3333 0.0000  plane waves:   12456
 k-point 48 :   0.4667 0.3333 0.0000  plane waves:   12458
 k-point 49 :   0.0000 0.4000 0.0000  plane waves:   12443
 k-point 50 :   0.0667 0.4000 0.0000  plane waves:   12455
 k-point 51 :   0.1333 0.4000 0.0000  plane waves:   12480
 k-point 52 :   0.2000 0.4000 0.0000  plane waves:   12476
 k-point 53 :   0.2667 0.4000 0.0000  plane waves:   12461
 k-point 54 :   0.3333 0.4000 0.0000  plane waves:   12472
 k-point 55 :   0.4000 0.4000 0.0000  plane waves:   12443
 k-point 56 :   0.4667 0.4000 0.0000  plane waves:   12457
 k-point 57 :   0.0000 0.4667 0.0000  plane waves:   12458
 k-point 58 :   0.0667 0.4667 0.0000  plane waves:   12477
 k-point 59 :   0.1333 0.4667 0.0000  plane waves:   12474
 k-point 60 :   0.2000 0.4667 0.0000  plane waves:   12466
 k-point 61 :   0.2667 0.4667 0.0000  plane waves:   12448
 k-point 62 :   0.3333 0.4667 0.0000  plane waves:   12439
 k-point 63 :   0.4000 0.4667 0.0000  plane waves:   12443
 k-point 64 :   0.4667 0.4667 0.0000  plane waves:   12450

 maximum and minimum number of plane-waves per node :       538      498

 maximum number of plane-waves:     12547
 maximum index in each direction: 
   IXMAX=    8   IYMAX=    8   IZMAX=   39
   IXMIN=   -9   IYMIN=   -9   IZMIN=  -39


 parallel 3D FFT for wavefunctions:
    minimum data exchange during FFTs selected (reduces bandwidth)
 parallel 3D FFT for charge:
    minimum data exchange during FFTs selected (reduces bandwidth)


 total amount of memory used by VASP MPI-rank0    51825. kBytes
=======================================================================

   base      :      30000. kBytes
   nonl-proj :       7049. kBytes
   fftplans  :       2678. kBytes
   grid      :       4349. kBytes
   one-center:          8. kBytes
   wavefun   :       7741. kBytes
 
     INWAV:  cpu time    0.0000: real time    0.0000
 Broyden mixing: mesh for mixing (old mesh)
   NGX = 17   NGY = 17   NGZ = 79
  (NGX  = 72   NGY  = 72   NGZ  =320)
  gives a total of  22831 points

 initial charge density was supplied:
 charge density of overlapping atoms calculated
 number of electron      20.0000000 magnetization 
 keeping initial charge density in first step


--------------------------------------------------------------------------------------------------------


 Maximum index for augmentation-charges         2234 (set IRDMAX)


--------------------------------------------------------------------------------------------------------


 First call to EWALD:  gamma=   0.246
 Maximum number of real-space cells 4x 4x 1
 Maximum number of reciprocal cells 2x 2x 7

    FEWALD:  cpu time    0.0011: real time    0.0011


--------------------------------------- Iteration      1(   1)  ---------------------------------------


    POTLOK:  cpu time    0.0555: real time    0.1334
    SETDIJ:  cpu time    0.0055: real time    0.0056
     EDDAV:  cpu time    1.3496: real time    1.3531
       DOS:  cpu time    0.0027: real time    0.0028
    --------------------------------------------
      LOOP:  cpu time    1.4134: real time    1.4949

 eigenvalue-minimisations  :  1792
 total energy-change (2. order) : 0.1439401E+03  (-0.6293667E+03)
 number of electron      20.0000000 magnetization 
 augmentation part       20.0000000 magnetization 

 Free energy of the ion-electron system (eV)
  ---------------------------------------------------
  alpha Z        PSCENC =         9.56158707
  Ewald energy   TEWEN  =      1162.41733686
  -Hartree energ DENC   =     -1764.43027597
  -exchange      EXHF   =         0.00000000
  -V(xc)+E(xc)   XCENC  =      -238.54629954
  PAW double counting   =       799.43158084     -524.17639913
  entropy T*S    EENTRO =        -0.01079307
  eigenvalues    EBANDS =        -2.73457549
  atomic energy  EATOM  =       702.42789710
  Solvation  Ediel_sol  =         0.00000000
  ---------------------------------------------------
  free energy    TOTEN  =       143.94005866 eV

  energy without entropy =      143.95085173  energy(sigma->0) =      143.94545520


--------------------------------------------------------------------------------------------------------




--------------------------------------- Iteration      1(   2)  ---------------------------------------


     EDDAV:  cpu time    2.0538: real time    2.0591
       DOS:  cpu time    0.0027: real time    0.0027
    --------------------------------------------
      LOOP:  cpu time    2.0565: real time    2.0618

 eigenvalue-minimisations  :  3020
 total energy-change (2. order) :-0.1394116E+03  (-0.1356643E+03)
 number of electron      20.0000000 magnetization 
 augmentation part       20.0000000 magnetization 

 Free energy of the ion-electron system (eV)
  ---------------------------------------------------
  alpha Z        PSCENC =         9.56158707
  Ewald energy   TEWEN  =      1162.41733686
  -Hartree energ DENC   =     -1764.43027597
  -exchange      EXHF   =         0.00000000
  -V(xc)+E(xc)   XCENC  =      -238.54629954
  PAW double counting   =       799.43158084     -524.17639913
  entropy T*S    EENTRO =        -0.00185237
  eigenvalues    EBANDS =      -142.15512291
  atomic energy  EATOM  =       702.42789710
  Solvation  Ediel_sol  =         0.00000000
  ---------------------------------------------------
  free energy    TOTEN  =         4.52845194 eV

  energy without entropy =        4.53030431  energy(sigma->0) =        4.52937813


--------------------------------------------------------------------------------------------------------




--------------------------------------- Iteration      1(   3)  ---------------------------------------


     EDDAV:  cpu time    1.5681: real time    1.5719
       DOS:  cpu time    0.0018: real time    0.0018
    --------------------------------------------
      LOOP:  cpu time    1.5699: real time    1.5737

 eigenvalue-minimisations  :  2260
 total energy-change (2. order) :-0.2051589E+02  (-0.2034217E+02)
 number of electron      20.0000000 magnetization 
 augmentation part       20.0000000 magnetization 

 Free energy of the ion-electron system (eV)
  ---------------------------------------------------
  alpha Z        PSCENC =         9.56158707
  Ewald energy   TEWEN  =      1162.41733686
  -Hartree energ DENC   =     -1764.43027597
  -exchange      EXHF   =         0.00000000
  -V(xc)+E(xc)   XCENC  =      -238.54629954
  PAW double counting   =       799.43158084     -524.17639913
  entropy T*S    EENTRO =        -0.00000000
  eigenvalues    EBANDS =      -162.67286811
  atomic energy  EATOM  =       702.42789710
  Solvation  Ediel_sol  =         0.00000000
  ---------------------------------------------------
  free energy    TOTEN  =       -15.98744088 eV

  energy without entropy =      -15.98744088  energy(sigma->0) =      -15.98744088


--------------------------------------------------------------------------------------------------------




--------------------------------------- Iteration      1(   4)  ---------------------------------------


     EDDAV:  cpu time    1.7203: real time    1.7248
       DOS:  cpu time    0.0018: real time    0.0018
    --------------------------------------------
      LOOP:  cpu time    1.7221: real time    1.7266

 eigenvalue-minimisations  :  2558
 total energy-change (2. order) :-0.7838916E+00  (-0.7813359E+00)
 number of electron      20.0000000 magnetization 
 augmentation part       20.0000000 magnetization 

 Free energy of the ion-electron system (eV)
  ---------------------------------------------------
  alpha Z        PSCENC =         9.56158707
  Ewald energy   TEWEN  =      1162.41733686
  -Hartree energ DENC   =     -1764.43027597
  -exchange      EXHF   =         0.00000000
  -V(xc)+E(xc)   XCENC  =      -238.54629954
  PAW double counting   =       799.43158084     -524.17639913
  entropy T*S    EENTRO =        -0.00000000
  eigenvalues    EBANDS =      -163.45675974
  atomic energy  EATOM  =       702.42789710
  Solvation  Ediel_sol  =         0.00000000
  ---------------------------------------------------
  free energy    TOTEN  =       -16.77133252 eV

  energy without entropy =      -16.77133252  energy(sigma->0) =      -16.77133252


--------------------------------------------------------------------------------------------------------




--------------------------------------- Iteration      1(   5)  ---------------------------------------


     EDDAV:  cpu time    1.6323: real time    1.6364
       DOS:  cpu time    0.0019: real time    0.0019
    CHARGE:  cpu time    0.1289: real time    0.1292
    MIXING:  cpu time    0.0055: real time    0.0055
    --------------------------------------------
      LOOP:  cpu time    1.7685: real time    1.7729

 eigenvalue-minimisations  :  2318
 total energy-change (2. order) :-0.1840995E-01  (-0.1839218E-01)
 number of electron      20.0000000 magnetization 
 augmentation part       -4.5245578 magnetization 

 Broyden mixing:
  rms(total) = 0.45421E+00    rms(broyden)= 0.45421E+00
  rms(prec ) = 0.49398E+00
  weight for this iteration     100.00

 Free energy of the ion-electron system (eV)
  ---------------------------------------------------
  alpha Z        PSCENC =         9.56158707
  Ewald energy   TEWEN  =      1162.41733686
  -Hartree energ DENC   =     -1764.43027597
  -exchange      EXHF   =         0.00000000
  -V(xc)+E(xc)   XCENC  =      -238.54629954
  PAW double counting   =       799.43158084     -524.17639913
  entropy T*S    EENTRO =        -0.00000000
  eigenvalues    EBANDS =      -163.47516969
  atomic energy  EATOM  =       702.42789710
  Solvation  Ediel_sol  =         0.00000000
  ---------------------------------------------------
  free energy    TOTEN  =       -16.78974247 eV

  energy without entropy =      -16.78974247  energy(sigma->0) =      -16.78974247


--------------------------------------------------------------------------------------------------------




--------------------------------------- Iteration      1(   6)  ---------------------------------------


    POTLOK:  cpu time    0.0414: real time    0.0415
    SETDIJ:  cpu time    0.0049: real time    0.0049
     EDDAV:  cpu time    1.5606: real time    1.5645
       DOS:  cpu time    0.0020: real time    0.0020
    CHARGE:  cpu time    0.1294: real time    0.1296
    MIXING:  cpu time    0.0013: real time    0.0014
    --------------------------------------------
      LOOP:  cpu time    1.7396: real time    1.7439

 eigenvalue-minimisations  :  2250
 total energy-change (2. order) : 0.4838268E+00  (-0.1216464E+00)
 number of electron      20.0000000 magnetization 
 augmentation part       -4.4921231 magnetization 

 Broyden mixing:
  rms(total) = 0.27896E+00    rms(broyden)= 0.27896E+00
  rms(prec ) = 0.28810E+00
  weight for this iteration     100.00

 eigenvalues of (default mixing * dielectric matrix)
  average eigenvalue GAMMA=   1.8271
  1.8271

 Free energy of the ion-electron system (eV)
  ---------------------------------------------------
  alpha Z        PSCENC =         9.56158707
  Ewald energy   TEWEN  =      1162.41733686
  -Hartree energ DENC   =     -1772.29010705
  -exchange      EXHF   =         0.00000000
  -V(xc)+E(xc)   XCENC  =      -238.06509860
  PAW double counting   =       925.77373357     -650.70361034
  entropy T*S    EENTRO =        -0.00000000
  eigenvalues    EBANDS =      -155.42765429
  atomic energy  EATOM  =       702.42789710
  Solvation  Ediel_sol  =         0.00000000
  ---------------------------------------------------
  free energy    TOTEN  =       -16.30591569 eV

  energy without entropy =      -16.30591569  energy(sigma->0) =      -16.30591569


--------------------------------------------------------------------------------------------------------




--------------------------------------- Iteration      1(   7)  ---------------------------------------


    POTLOK:  cpu time    0.0415: real time    0.0416
    SETDIJ:  cpu time    0.0048: real time    0.0049
     EDDAV:  cpu time    1.6112: real time    1.6152
       DOS:  cpu time    0.0019: real time    0.0019
    CHARGE:  cpu time    0.1298: real time    0.1301
    MIXING:  cpu time    0.0014: real time    0.0016
    --------------------------------------------
      LOOP:  cpu time    1.7907: real time    1.7953

 eigenvalue-minimisations  :  2344
 total energy-change (2. order) : 0.2849172E-01  (-0.3200353E-01)
 number of electron      20.0000000 magnetization 
 augmentation part       -4.4833995 magnetization 

 Broyden mixing:
  rms(total) = 0.10372E+00    rms(broyden)= 0.10372E+00
  rms(prec ) = 0.10919E+00
  weight for this iteration     100.00

 eigenvalues of (default mixing * dielectric matrix)
  average eigenvalue GAMMA=   1.7361
  1.3798  2.0925

 Free energy of the ion-electron system (eV)
  ---------------------------------------------------
  alpha Z        PSCENC =         9.56158707
  Ewald energy   TEWEN  =      1162.41733686
  -Hartree energ DENC   =     -1777.44209385
  -exchange      EXHF   =         0.00000000
  -V(xc)+E(xc)   XCENC  =      -237.73412877
  PAW double counting   =      1070.66808619     -795.74246361
  entropy T*S    EENTRO =        -0.00000000
  eigenvalues    EBANDS =      -150.43364495
  atomic energy  EATOM  =       702.42789710
  Solvation  Ediel_sol  =         0.00000000
  ---------------------------------------------------
  free energy    TOTEN  =       -16.27742397 eV

  energy without entropy =      -16.27742397  energy(sigma->0) =      -16.27742397


--------------------------------------------------------------------------------------------------------




--------------------------------------- Iteration      1(   8)  ---------------------------------------


    POTLOK:  cpu time    0.0417: real time    0.0419
    SETDIJ:  cpu time    0.0034: real time    0.0034
     EDDAV:  cpu time    1.6954: real time    1.6997
       DOS:  cpu time    0.0019: real time    0.0019
    CHARGE:  cpu time    0.1294: real time    0.1296
    MIXING:  cpu time    0.0015: real time    0.0015
    --------------------------------------------
      LOOP:  cpu time    1.8734: real time    1.8781

 eigenvalue-minimisations  :  2492
 total energy-change (2. order) : 0.9899144E-02  (-0.4025135E-02)
 number of electron      20.0000000 magnetization 
 augmentation part       -4.4876109 magnetization 

 Broyden mixing:
  rms(total) = 0.20544E-01    rms(broyden)= 0.20544E-01
  rms(prec ) = 0.27990E-01
  weight for this iteration     100.00

 eigenvalues of (default mixing * dielectric matrix)
  average eigenvalue GAMMA=   1.7158
  2.5372  1.3051  1.3051

 Free energy of the ion-electron system (eV)
  ---------------------------------------------------
  alpha Z        PSCENC =         9.56158707
  Ewald energy   TEWEN  =      1162.41733686
  -Hartree energ DENC   =     -1779.11653911
  -exchange      EXHF   =         0.00000000
  -V(xc)+E(xc)   XCENC  =      -237.65840172
  PAW double counting   =      1135.77223786     -860.88523586
  entropy T*S    EENTRO =        -0.00000000
  eigenvalues    EBANDS =      -148.78640703
  atomic energy  EATOM  =       702.42789710
  Solvation  Ediel_sol  =         0.00000000
  ---------------------------------------------------
  free energy    TOTEN  =       -16.26752483 eV

  energy without entropy =      -16.26752483  energy(sigma->0) =      -16.26752483


--------------------------------------------------------------------------------------------------------




--------------------------------------- Iteration      1(   9)  ---------------------------------------


    POTLOK:  cpu time    0.0416: real time    0.0418
    SETDIJ:  cpu time    0.0034: real time    0.0034
     EDDAV:  cpu time    1.6946: real time    1.6987
       DOS:  cpu time    0.0022: real time    0.0022
    CHARGE:  cpu time    0.1287: real time    0.1290
    MIXING:  cpu time    0.0015: real time    0.0015
    --------------------------------------------
      LOOP:  cpu time    1.8720: real time    1.8765

 eigenvalue-minimisations  :  2446
 total energy-change (2. order) : 0.3799069E-02  (-0.6910400E-03)
 number of electron      20.0000000 magnetization 
 augmentation part       -4.4856158 magnetization 

 Broyden mixing:
  rms(total) = 0.10099E-01    rms(broyden)= 0.10099E-01
  rms(prec ) = 0.15680E-01
  weight for this iteration     100.00

 eigenvalues of (default mixing * dielectric matrix)
  average eigenvalue GAMMA=   1.7051
  2.2160  2.2160  1.1941  1.1941

 Free energy of the ion-electron system (eV)
  ---------------------------------------------------
  alpha Z        PSCENC =         9.56158707
  Ewald energy   TEWEN  =      1162.41733686
  -Hartree energ DENC   =     -1781.13102778
  -exchange      EXHF   =         0.00000000
  -V(xc)+E(xc)   XCENC  =      -237.58390196
  PAW double counting   =      1154.32672964     -879.45221675
  entropy T*S    EENTRO =        -0.00000000
  eigenvalues    EBANDS =      -146.83012994
  atomic energy  EATOM  =       702.42789710
  Solvation  Ediel_sol  =         0.00000000
  ---------------------------------------------------
  free energy    TOTEN  =       -16.26372576 eV

  energy without entropy =      -16.26372576  energy(sigma->0) =      -16.26372576


--------------------------------------------------------------------------------------------------------




--------------------------------------- Iteration      1(  10)  ---------------------------------------


    POTLOK:  cpu time    0.0416: real time    0.0417
    SETDIJ:  cpu time    0.0048: real time    0.0048
     EDDAV:  cpu time    1.6548: real time    1.6589
       DOS:  cpu time    0.0020: real time    0.0020
    CHARGE:  cpu time    0.1294: real time    0.1297
    MIXING:  cpu time    0.0015: real time    0.0014
    --------------------------------------------
      LOOP:  cpu time    1.8340: real time    1.8385

 eigenvalue-minimisations  :  2440
 total energy-change (2. order) : 0.1254247E-02  (-0.1214278E-03)
 number of electron      20.0000000 magnetization 
 augmentation part       -4.4844085 magnetization 

 Broyden mixing:
  rms(total) = 0.51514E-02    rms(broyden)= 0.51514E-02
  rms(prec ) = 0.94550E-02
  weight for this iteration     100.00

 eigenvalues of (default mixing * dielectric matrix)
  average eigenvalue GAMMA=   1.8738
  3.3690  2.6002  1.2456  1.2456  0.9085

 Free energy of the ion-electron system (eV)
  ---------------------------------------------------
  alpha Z        PSCENC =         9.56158707
  Ewald energy   TEWEN  =      1162.41733686
  -Hartree energ DENC   =     -1782.37968011
  -exchange      EXHF   =         0.00000000
  -V(xc)+E(xc)   XCENC  =      -237.57370352
  PAW double counting   =      1143.69036333     -868.80540122
  entropy T*S    EENTRO =        -0.00000000
  eigenvalues    EBANDS =      -145.60087101
  atomic energy  EATOM  =       702.42789710
  Solvation  Ediel_sol  =         0.00000000
  ---------------------------------------------------
  free energy    TOTEN  =       -16.26247151 eV

  energy without entropy =      -16.26247151  energy(sigma->0) =      -16.26247151


--------------------------------------------------------------------------------------------------------




--------------------------------------- Iteration      1(  11)  ---------------------------------------


    POTLOK:  cpu time    0.0417: real time    0.0419
    SETDIJ:  cpu time    0.0034: real time    0.0034
     EDDAV:  cpu time    1.6304: real time    1.6353
       DOS:  cpu time    0.0020: real time    0.0020
    CHARGE:  cpu time    0.1269: real time    0.1274
    MIXING:  cpu time    0.0015: real time    0.0015
    --------------------------------------------
      LOOP:  cpu time    1.8059: real time    1.8113

 eigenvalue-minimisations  :  2404
 total energy-change (2. order) : 0.7471099E-03  (-0.1325261E-03)
 number of electron      20.0000000 magnetization 
 augmentation part       -4.4829740 magnetization 

 Broyden mixing:
  rms(total) = 0.33570E-02    rms(broyden)= 0.33570E-02
  rms(prec ) = 0.50388E-02
  weight for this iteration     100.00

 eigenvalues of (default mixing * dielectric matrix)
  average eigenvalue GAMMA=   1.8458
  3.4105  2.1952  2.1952  1.1966  1.1966  0.8807

 Free energy of the ion-electron system (eV)
  ---------------------------------------------------
  alpha Z        PSCENC =         9.56158707
  Ewald energy   TEWEN  =      1162.41733686
  -Hartree energ DENC   =     -1784.02770222
  -exchange      EXHF   =         0.00000000
  -V(xc)+E(xc)   XCENC  =      -237.54136879
  PAW double counting   =      1145.11997603     -870.23399420
  entropy T*S    EENTRO =        -0.00000000
  eigenvalues    EBANDS =      -143.98545624
  atomic energy  EATOM  =       702.42789710
  Solvation  Ediel_sol  =         0.00000000
  ---------------------------------------------------
  free energy    TOTEN  =       -16.26172440 eV

  energy without entropy =      -16.26172440  energy(sigma->0) =      -16.26172440


--------------------------------------------------------------------------------------------------------




--------------------------------------- Iteration      1(  12)  ---------------------------------------


    POTLOK:  cpu time    0.0416: real time    0.0419
    SETDIJ:  cpu time    0.0035: real time    0.0035
     EDDAV:  cpu time    1.4373: real time    1.4435
       DOS:  cpu time    0.0019: real time    0.0019
    CHARGE:  cpu time    0.1261: real time    0.1264
    MIXING:  cpu time    0.0016: real time    0.0016
    --------------------------------------------
      LOOP:  cpu time    1.6121: real time    1.6188

 eigenvalue-minimisations  :  2014
 total energy-change (2. order) :-0.8347981E-03  (-0.3234505E-04)
 number of electron      20.0000000 magnetization 
 augmentation part       -4.4823276 magnetization 

 Broyden mixing:
  rms(total) = 0.19326E-02    rms(broyden)= 0.19326E-02
  rms(prec ) = 0.28990E-02
  weight for this iteration     100.00

 eigenvalues of (default mixing * dielectric matrix)
  average eigenvalue GAMMA=   2.0688
  4.5866  3.0967  2.5025  1.2123  1.2123  1.0319  0.8393

 Free energy of the ion-electron system (eV)
  ---------------------------------------------------
  alpha Z        PSCENC =         9.56158707
  Ewald energy   TEWEN  =      1162.41733686
  -Hartree energ DENC   =     -1784.65492202
  -exchange      EXHF   =         0.00000000
  -V(xc)+E(xc)   XCENC  =      -237.53183180
  PAW double counting   =      1147.03067742     -872.14761892
  entropy T*S    EENTRO =        -0.00000000
  eigenvalues    EBANDS =      -143.36568491
  atomic energy  EATOM  =       702.42789710
  Solvation  Ediel_sol  =         0.00000000
  ---------------------------------------------------
  free energy    TOTEN  =       -16.26255920 eV

  energy without entropy =      -16.26255920  energy(sigma->0) =      -16.26255920


--------------------------------------------------------------------------------------------------------




--------------------------------------- Iteration      1(  13)  ---------------------------------------


    POTLOK:  cpu time    0.0417: real time    0.0421
    SETDIJ:  cpu time    0.0036: real time    0.0036
     EDDAV:  cpu time    1.4803: real time    1.4865
       DOS:  cpu time    0.0019: real time    0.0019
    CHARGE:  cpu time    0.1272: real time    0.1275
    MIXING:  cpu time    0.0015: real time    0.0015
    --------------------------------------------
      LOOP:  cpu time    1.6563: real time    1.6631

 eigenvalue-minimisations  :  2092
 total energy-change (2. order) :-0.4277459E-03  (-0.8412350E-05)
 number of electron      20.0000000 magnetization 
 augmentation part       -4.4821373 magnetization 

 Broyden mixing:
  rms(total) = 0.12228E-02    rms(broyden)= 0.12228E-02
  rms(prec ) = 0.15850E-02
  weight for this iteration     100.00

 eigenvalues of (default mixing * dielectric matrix)
  average eigenvalue GAMMA=   2.2268
  5.5649  3.3045  2.4708  2.1813  1.1647  1.1647  1.0530  0.9108

 Free energy of the ion-electron system (eV)
  ---------------------------------------------------
  alpha Z        PSCENC =         9.56158707
  Ewald energy   TEWEN  =      1162.41733686
  -Hartree energ DENC   =     -1785.06301957
  -exchange      EXHF   =         0.00000000
  -V(xc)+E(xc)   XCENC  =      -237.53074804
  PAW double counting   =      1145.82109346     -870.93676110
  entropy T*S    EENTRO =        -0.00000000
  eigenvalues    EBANDS =      -142.96037272
  atomic energy  EATOM  =       702.42789710
  Solvation  Ediel_sol  =         0.00000000
  ---------------------------------------------------
  free energy    TOTEN  =       -16.26298694 eV

  energy without entropy =      -16.26298694  energy(sigma->0) =      -16.26298694


--------------------------------------------------------------------------------------------------------




--------------------------------------- Iteration      1(  14)  ---------------------------------------


    POTLOK:  cpu time    0.0435: real time    0.0437
    SETDIJ:  cpu time    0.0035: real time    0.0035
     EDDAV:  cpu time    1.5533: real time    1.5804
       DOS:  cpu time    0.0020: real time    0.0020
    CHARGE:  cpu time    0.1260: real time    0.1262
    MIXING:  cpu time    0.0016: real time    0.0016
    --------------------------------------------
      LOOP:  cpu time    1.7297: real time    1.7574

 eigenvalue-minimisations  :  2212
 total energy-change (2. order) :-0.2628604E-03  (-0.4393269E-05)
 number of electron      20.0000000 magnetization 
 augmentation part       -4.4821185 magnetization 

 Broyden mixing:
  rms(total) = 0.41153E-03    rms(broyden)= 0.41153E-03
  rms(prec ) = 0.63098E-03
  weight for this iteration     100.00

 eigenvalues of (default mixing * dielectric matrix)
  average eigenvalue GAMMA=   2.2410
  6.7255  3.0704  2.5308  2.5308  1.1907  1.1907  1.0480  0.9409  0.9409

 Free energy of the ion-electron system (eV)
  ---------------------------------------------------
  alpha Z        PSCENC =         9.56158707
  Ewald energy   TEWEN  =      1162.41733686
  -Hartree energ DENC   =     -1785.27043040
  -exchange      EXHF   =         0.00000000
  -V(xc)+E(xc)   XCENC  =      -237.53064239
  PAW double counting   =      1146.08950027     -871.20455422
  entropy T*S    EENTRO =        -0.00000000
  eigenvalues    EBANDS =      -142.75394409
  atomic energy  EATOM  =       702.42789710
  Solvation  Ediel_sol  =         0.00000000
  ---------------------------------------------------
  free energy    TOTEN  =       -16.26324980 eV

  energy without entropy =      -16.26324980  energy(sigma->0) =      -16.26324980


--------------------------------------------------------------------------------------------------------




--------------------------------------- Iteration      1(  15)  ---------------------------------------


    POTLOK:  cpu time    0.0422: real time    0.0423
    SETDIJ:  cpu time    0.0035: real time    0.0036
     EDDAV:  cpu time    1.5306: real time    1.5342
       DOS:  cpu time    0.0019: real time    0.0019
    CHARGE:  cpu time    0.1274: real time    0.1276
    MIXING:  cpu time    0.0017: real time    0.0017
    --------------------------------------------
      LOOP:  cpu time    1.7073: real time    1.7113

 eigenvalue-minimisations  :  2142
 total energy-change (2. order) :-0.5714050E-04  (-0.2097416E-06)
 number of electron      20.0000000 magnetization 
 augmentation part       -4.4821359 magnetization 

 Broyden mixing:
  rms(total) = 0.35720E-03    rms(broyden)= 0.35720E-03
  rms(prec ) = 0.52437E-03
  weight for this iteration     100.00

 eigenvalues of (default mixing * dielectric matrix)
  average eigenvalue GAMMA=   2.3586
  6.5303  4.2911  2.7096  2.7096  1.9819  1.1431  1.1431  1.2079  0.9347  0.9347

 Free energy of the ion-electron system (eV)
  ---------------------------------------------------
  alpha Z        PSCENC =         9.56158707
  Ewald energy   TEWEN  =      1162.41733686
  -Hartree energ DENC   =     -1785.28716741
  -exchange      EXHF   =         0.00000000
  -V(xc)+E(xc)   XCENC  =      -237.53097329
  PAW double counting   =      1145.91627996     -871.03120826
  entropy T*S    EENTRO =        -0.00000000
  eigenvalues    EBANDS =      -142.73705897
  atomic energy  EATOM  =       702.42789710
  Solvation  Ediel_sol  =         0.00000000
  ---------------------------------------------------
  free energy    TOTEN  =       -16.26330694 eV

  energy without entropy =      -16.26330694  energy(sigma->0) =      -16.26330694


--------------------------------------------------------------------------------------------------------




--------------------------------------- Iteration      1(  16)  ---------------------------------------


    POTLOK:  cpu time    0.0424: real time    0.0426
    SETDIJ:  cpu time    0.0038: real time    0.0046
     EDDAV:  cpu time    1.4198: real time    1.4231
       DOS:  cpu time    0.0020: real time    0.0020
    CHARGE:  cpu time    0.1275: real time    0.1278
    MIXING:  cpu time    0.0018: real time    0.0018
    --------------------------------------------
      LOOP:  cpu time    1.5972: real time    1.6018

 eigenvalue-minimisations  :  1998
 total energy-change (2. order) :-0.4697899E-04  (-0.8455268E-06)
 number of electron      20.0000000 magnetization 
 augmentation part       -4.4821461 magnetization 

 Broyden mixing:
  rms(total) = 0.12878E-03    rms(broyden)= 0.12878E-03
  rms(prec ) = 0.22892E-03
  weight for this iteration     100.00

 eigenvalues of (default mixing * dielectric matrix)
  average eigenvalue GAMMA=   2.2845
  6.8023  4.5140  2.6333  2.6333  2.3014  1.1595  1.1595  1.1840  0.9361  0.9361
  0.8700

 Free energy of the ion-electron system (eV)
  ---------------------------------------------------
  alpha Z        PSCENC =         9.56158707
  Ewald energy   TEWEN  =      1162.41733686
  -Hartree energ DENC   =     -1785.34049478
  -exchange      EXHF   =         0.00000000
  -V(xc)+E(xc)   XCENC  =      -237.53105464
  PAW double counting   =      1145.75706449     -870.87200931
  entropy T*S    EENTRO =        -0.00000000
  eigenvalues    EBANDS =      -142.68368070
  atomic energy  EATOM  =       702.42789710
  Solvation  Ediel_sol  =         0.00000000
  ---------------------------------------------------
  free energy    TOTEN  =       -16.26335392 eV

  energy without entropy =      -16.26335392  energy(sigma->0) =      -16.26335392


--------------------------------------------------------------------------------------------------------




--------------------------------------- Iteration      1(  17)  ---------------------------------------


    POTLOK:  cpu time    0.0416: real time    0.0418
    SETDIJ:  cpu time    0.0034: real time    0.0034
     EDDAV:  cpu time    1.3897: real time    1.4013
       DOS:  cpu time    0.0019: real time    0.0019
    CHARGE:  cpu time    0.1258: real time    0.1261
    MIXING:  cpu time    0.0018: real time    0.0018
    --------------------------------------------
      LOOP:  cpu time    1.5643: real time    1.5763

 eigenvalue-minimisations  :  1926
 total energy-change (2. order) :-0.2389776E-04  (-0.1372490E-06)
 number of electron      20.0000000 magnetization 
 augmentation part       -4.4821259 magnetization 

 Broyden mixing:
  rms(total) = 0.14197E-03    rms(broyden)= 0.14197E-03
  rms(prec ) = 0.19809E-03
  weight for this iteration     100.00

 eigenvalues of (default mixing * dielectric matrix)
  average eigenvalue GAMMA=   2.3944
  6.9276  5.2270  2.9435  2.9435  2.2562  2.0819  1.1574  1.1574  0.9251  0.9548
  1.0790  1.0790

 Free energy of the ion-electron system (eV)
  ---------------------------------------------------
  alpha Z        PSCENC =         9.56158707
  Ewald energy   TEWEN  =      1162.41733686
  -Hartree energ DENC   =     -1785.35615939
  -exchange      EXHF   =         0.00000000
  -V(xc)+E(xc)   XCENC  =      -237.53089595
  PAW double counting   =      1145.82730798     -870.94237830
  entropy T*S    EENTRO =        -0.00000000
  eigenvalues    EBANDS =      -142.66807318
  atomic energy  EATOM  =       702.42789710
  Solvation  Ediel_sol  =         0.00000000
  ---------------------------------------------------
  free energy    TOTEN  =       -16.26337782 eV

  energy without entropy =      -16.26337782  energy(sigma->0) =      -16.26337782


--------------------------------------------------------------------------------------------------------




--------------------------------------- Iteration      1(  18)  ---------------------------------------


    POTLOK:  cpu time    0.0413: real time    0.0415
    SETDIJ:  cpu time    0.0035: real time    0.0034
     EDDAV:  cpu time    1.4495: real time    1.4528
       DOS:  cpu time    0.0019: real time    0.0019
    CHARGE:  cpu time    0.1260: real time    0.1262
    MIXING:  cpu time    0.0019: real time    0.0019
    --------------------------------------------
      LOOP:  cpu time    1.6241: real time    1.6278

 eigenvalue-minimisations  :  2056
 total energy-change (2. order) :-0.3824485E-04  (-0.3967642E-06)
 number of electron      20.0000000 magnetization 
 augmentation part       -4.4821188 magnetization 

 Broyden mixing:
  rms(total) = 0.64009E-04    rms(broyden)= 0.64009E-04
  rms(prec ) = 0.78014E-04
  weight for this iteration     100.00

 eigenvalues of (default mixing * dielectric matrix)
  average eigenvalue GAMMA=   2.3423
  7.0761  5.4527  2.9925  2.8874  2.4165  2.1348  1.1599  1.1599  1.2335  1.0819
  0.8906  0.9819  0.9819

 Free energy of the ion-electron system (eV)
  ---------------------------------------------------
  alpha Z        PSCENC =         9.56158707
  Ewald energy   TEWEN  =      1162.41733686
  -Hartree energ DENC   =     -1785.37769853
  -exchange      EXHF   =         0.00000000
  -V(xc)+E(xc)   XCENC  =      -237.53093248
  PAW double counting   =      1145.80751447     -870.92253511
  entropy T*S    EENTRO =        -0.00000000
  eigenvalues    EBANDS =      -142.64658544
  atomic energy  EATOM  =       702.42789710
  Solvation  Ediel_sol  =         0.00000000
  ---------------------------------------------------
  free energy    TOTEN  =       -16.26341607 eV

  energy without entropy =      -16.26341607  energy(sigma->0) =      -16.26341607


--------------------------------------------------------------------------------------------------------




--------------------------------------- Iteration      1(  19)  ---------------------------------------


    POTLOK:  cpu time    0.0428: real time    0.0429
    SETDIJ:  cpu time    0.0036: real time    0.0036
     EDDAV:  cpu time    1.3612: real time    1.3644
       DOS:  cpu time    0.0019: real time    0.0019
    CHARGE:  cpu time    0.1260: real time    0.1262
    MIXING:  cpu time    0.0019: real time    0.0019
    --------------------------------------------
      LOOP:  cpu time    1.5373: real time    1.5410

 eigenvalue-minimisations  :  1892
 total energy-change (2. order) :-0.5512129E-05  (-0.1450155E-07)
 number of electron      20.0000000 magnetization 
 augmentation part       -4.4821246 magnetization 

 Broyden mixing:
  rms(total) = 0.38033E-04    rms(broyden)= 0.38033E-04
  rms(prec ) = 0.46655E-04
  weight for this iteration     100.00

 eigenvalues of (default mixing * dielectric matrix)
  average eigenvalue GAMMA=   2.5675
  7.4535  7.4535  3.8133  3.0552  2.3881  2.3881  1.9821  1.1591  1.1591  0.9197
  0.9609  1.0767  1.0767  1.0585

 Free energy of the ion-electron system (eV)
  ---------------------------------------------------
  alpha Z        PSCENC =         9.56158707
  Ewald energy   TEWEN  =      1162.41733686
  -Hartree energ DENC   =     -1785.37836038
  -exchange      EXHF   =         0.00000000
  -V(xc)+E(xc)   XCENC  =      -237.53094319
  PAW double counting   =      1145.84641485     -870.96145288
  entropy T*S    EENTRO =        -0.00000000
  eigenvalues    EBANDS =      -142.64590100
  atomic energy  EATOM  =       702.42789710
  Solvation  Ediel_sol  =         0.00000000
  ---------------------------------------------------
  free energy    TOTEN  =       -16.26342158 eV

  energy without entropy =      -16.26342158  energy(sigma->0) =      -16.26342158


--------------------------------------------------------------------------------------------------------




--------------------------------------- Iteration      1(  20)  ---------------------------------------


    POTLOK:  cpu time    0.0415: real time    0.0417
    SETDIJ:  cpu time    0.0034: real time    0.0034
     EDDAV:  cpu time    1.1863: real time    1.1892
       DOS:  cpu time    0.0019: real time    0.0019
    CHARGE:  cpu time    0.1271: real time    0.1273
    MIXING:  cpu time    0.0021: real time    0.0021
    --------------------------------------------
      LOOP:  cpu time    1.3623: real time    1.3656

 eigenvalue-minimisations  :  1538
 total energy-change (2. order) :-0.6653130E-05  (-0.3556283E-07)
 number of electron      20.0000000 magnetization 
 augmentation part       -4.4821261 magnetization 

 Broyden mixing:
  rms(total) = 0.20041E-04    rms(broyden)= 0.20041E-04
  rms(prec ) = 0.22100E-04
  weight for this iteration     100.00

 eigenvalues of (default mixing * dielectric matrix)
  average eigenvalue GAMMA=   2.5728
  7.8179  7.8179  4.0589  2.9852  2.3560  2.3560  2.2454  1.5812  1.1553  1.1553
  0.9101  1.0214  1.0214  1.0549  1.0549

 Free energy of the ion-electron system (eV)
  ---------------------------------------------------
  alpha Z        PSCENC =         9.56158707
  Ewald energy   TEWEN  =      1162.41733686
  -Hartree energ DENC   =     -1785.38240449
  -exchange      EXHF   =         0.00000000
  -V(xc)+E(xc)   XCENC  =      -237.53093907
  PAW double counting   =      1145.83452982     -870.94954744
  entropy T*S    EENTRO =        -0.00000000
  eigenvalues    EBANDS =      -142.64188807
  atomic energy  EATOM  =       702.42789710
  Solvation  Ediel_sol  =         0.00000000
  ---------------------------------------------------
  free energy    TOTEN  =       -16.26342823 eV

  energy without entropy =      -16.26342823  energy(sigma->0) =      -16.26342823


--------------------------------------------------------------------------------------------------------




--------------------------------------- Iteration      1(  21)  ---------------------------------------


    POTLOK:  cpu time    0.0417: real time    0.0420
    SETDIJ:  cpu time    0.0034: real time    0.0034
     EDDAV:  cpu time    1.3115: real time    1.3148
       DOS:  cpu time    0.0019: real time    0.0020
    --------------------------------------------
      LOOP:  cpu time    1.3586: real time    1.3622

 eigenvalue-minimisations  :  1796
 total energy-change (2. order) :-0.8690554E-06  (-0.4040034E-08)
 number of electron      20.0000000 magnetization 
 augmentation part       -4.4821261 magnetization 

 Free energy of the ion-electron system (eV)
  ---------------------------------------------------
  alpha Z        PSCENC =         9.56158707
  Ewald energy   TEWEN  =      1162.41733686
  -Hartree energ DENC   =     -1785.38390621
  -exchange      EXHF   =         0.00000000
  -V(xc)+E(xc)   XCENC  =      -237.53091703
  PAW double counting   =      1145.83020248     -870.94521883
  entropy T*S    EENTRO =        -0.00000000
  eigenvalues    EBANDS =      -142.64041054
  atomic energy  EATOM  =       702.42789710
  Solvation  Ediel_sol  =         0.00000000
  ---------------------------------------------------
  free energy    TOTEN  =       -16.26342910 eV

  energy without entropy =      -16.26342910  energy(sigma->0) =      -16.26342910


--------------------------------------------------------------------------------------------------------




 average (electrostatic) potential at core
  the test charge radii are     1.4072  1.0808
  (the norm of the test charge is              1.0000)
       1 -51.2284       2 -51.2284       3 -59.9316       4 -59.9316
 
 
 
 E-fermi :  -1.4724     XC(G=0):  -3.3481     alpha+bet : -2.6907


 k-point     1 :       0.0000    0.0000    0.0000
  band No.  band energies     occupation 
      1     -15.3281      2.00000
      2     -14.3249      2.00000
      3      -8.2261      2.00000
      4      -7.2448      2.00000
      5      -5.4166      2.00000
      6      -5.0571      2.00000
      7      -5.0441      2.00000
      8      -3.8674      2.00000
      9      -3.8148      2.00000
     10      -2.5898      2.00000
     11      -0.4587      0.00000
     12       1.3622      0.00000
     13       1.8229      0.00000
     14       2.0272      0.00000

 k-point     2 :       0.0667    0.0000    0.0000
  band No.  band energies     occupation 
      1     -15.3096      2.00000
      2     -14.3222      2.00000
      3      -8.2970      2.00000
      4      -7.3264      2.00000
      5      -5.4207      2.00000
      6      -5.0260      2.00000
      7      -4.9749      2.00000
      8      -3.8458      2.00000
      9      -3.7036      2.00000
     10      -2.6068      2.00000
     11      -0.4477      0.00000
     12       1.4167      0.00000
     13       1.7183      0.00000
     14       1.9378      0.00000

 k-point     3 :       0.1333    0.0000    0.0000
  band No.  band energies     occupation 
      1     -15.2548      2.00000
[...]
      3      -8.8292      2.00000
      4      -8.4737      2.00000
      5      -6.1781      2.00000
      6      -4.9330      2.00000
      7      -4.8274      2.00000
      8      -3.8404      2.00000
      9      -3.8063      2.00000
     10      -2.6940      2.00000
     11      -0.1918      0.00000
     12       0.7480      0.00000
     13       1.1090      0.00000
     14       1.5601      0.00000

 k-point    46 :       0.3333    0.3333    0.0000
  band No.  band energies     occupation 
      1     -14.5688      2.00000
      2     -14.2589      2.00000
      3      -8.7121      2.00000
      4      -8.4640      2.00000
      5      -6.3872      2.00000
      6      -5.1559      2.00000
      7      -5.0075      2.00000
      8      -4.0372      2.00000
      9      -4.0115      2.00000
     10      -3.0691      2.00000
     11       0.2078      0.00000
     12       1.1742      0.00000
     13       1.5058      0.00000
     14       1.8110      0.00000

 k-point    47 :       0.4000    0.3333    0.0000
  band No.  band energies     occupation 
      1     -14.4729      2.00000
      2     -14.2776      2.00000
      3      -8.6184      2.00000
      4      -8.4773      2.00000
      5      -6.4148      2.00000
      6      -5.5649      2.00000
      7      -5.0055      2.00000
      8      -4.3193      2.00000
      9      -3.9666      2.00000
     10      -3.3765      2.00000
     11       0.5639      0.00000
     12       1.3640      0.00000
     13       1.6478      0.00000
     14       2.3542      0.00000

 k-point    48 :       0.4667    0.3333    0.0000
  band No.  band energies     occupation 
      1     -14.3871      2.00000
      2     -14.3203      2.00000
      3      -8.5538      2.00000
      4      -8.5088      2.00000
      5      -6.2617      2.00000
      6      -5.9610      2.00000
      7      -4.8677      2.00000
      8      -4.6214      2.00000
      9      -3.8151      2.00000
     10      -3.6167      2.00000
     11       0.8756      0.00000
     12       1.1462      0.00000
     13       2.0697      0.00000
     14       2.3627      0.00000

 k-point    49 :       0.0000    0.4000    0.0000
  band No.  band energies     occupation 
      1     -14.7235      2.00000
      2     -14.3611      2.00000
      3      -9.2300      2.00000
      4      -8.8715      2.00000
      5      -4.7715      2.00000
      6      -4.1882      2.00000
      7      -4.0291      2.00000
      8      -3.5060      2.00000
      9      -2.7957      2.00000
     10      -2.0064      2.00000
     11      -0.9924      0.00000
     12      -0.0563      0.00000
     13       0.0903      0.00000
     14       0.3411      0.00000

 k-point    50 :       0.0667    0.4000    0.0000
  band No.  band energies     occupation 
      1     -14.7108      2.00000
      2     -14.3548      2.00000
      3      -9.2021      2.00000
      4      -8.8517      2.00000
      5      -4.7646      2.00000
      6      -4.5524      2.00000
      7      -3.9216      2.00000
      8      -3.7029      2.00000
      9      -2.6018      2.00000
     10      -2.3055      2.00000
     11      -0.7375      0.00000
     12      -0.3631      0.00000
     13       0.2499      0.00000
     14       0.3692      0.00000

 k-point    51 :       0.1333    0.4000    0.0000
  band No.  band energies     occupation 
      1     -14.6739      2.00000
      2     -14.3374      2.00000
      3      -9.1199      2.00000
      4      -8.7945      2.00000
      5      -5.0984      2.00000
      6      -4.7557      2.00000
      7      -4.1258      2.00000
      8      -3.8985      2.00000
      9      -2.9011      2.00000
     10      -2.4343      2.00000
     11      -0.6123      0.00000
     12      -0.1283      0.00000
     13       0.4911      0.00000
     14       0.8169      0.00000

 k-point    52 :       0.2000    0.4000    0.0000
  band No.  band energies     occupation 
      1     -14.6165      2.00000
      2     -14.3130      2.00000
      3      -8.9882      2.00000
      4      -8.7061      2.00000
      5      -5.6279      2.00000
      6      -4.8130      2.00000
      7      -4.5472      2.00000
      8      -3.9408      2.00000
      9      -3.4887      2.00000
     10      -2.6869      2.00000
     11      -0.3174      0.00000
     12       0.6125      0.00000
     13       0.7201      0.00000
     14       1.2403      0.00000

 k-point    53 :       0.2667    0.4000    0.0000
  band No.  band energies     occupation 
      1     -14.5449      2.00000
      2     -14.2883      2.00000
      3      -8.8177      2.00000
      4      -8.5981      2.00000
      5      -6.0767      2.00000
      6      -5.1124      2.00000
      7      -4.8082      2.00000
      8      -4.0723      2.00000
      9      -3.8749      2.00000
     10      -3.0837      2.00000
     11       0.1594      0.00000
     12       1.1034      0.00000
     13       1.2067      0.00000
     14       1.6213      0.00000

 k-point    54 :       0.3333    0.4000    0.0000
  band No.  band energies     occupation 
      1     -14.4671      2.00000
      2     -14.2712      2.00000
      3      -8.6294      2.00000
      4      -8.4870      2.00000
      5      -6.4035      2.00000
      6      -5.5132      2.00000
      7      -5.0596      2.00000
      8      -4.3344      2.00000
      9      -3.9714      2.00000
     10      -3.3781      2.00000
     11       0.5560      0.00000
     12       1.3593      0.00000
     13       1.6315      0.00000
     14       2.3042      0.00000

 k-point    55 :       0.4000    0.4000    0.0000
  band No.  band energies     occupation 
      1     -14.3927      2.00000
      2     -14.2694      2.00000
      3      -8.4607      2.00000
      4      -8.3937      2.00000
      5      -6.5667      2.00000
      6      -5.9333      2.00000
      7      -5.1996      2.00000
      8      -4.6717      2.00000
      9      -3.9148      2.00000
     10      -3.5557      2.00000
     11       0.8653      0.00000
     12       1.3646      0.00000
     13       2.1582      0.00000
     14       2.7980      0.00000

 k-point    56 :       0.4667    0.4000    0.0000
  band No.  band energies     occupation 
      1     -14.3309      2.00000
      2     -14.2888      2.00000
      3      -8.3581      2.00000
      4      -8.3418      2.00000
      5      -6.5305      2.00000
      6      -6.2999      2.00000
      7      -5.1640      2.00000
      8      -4.9730      2.00000
      9      -3.8085      2.00000
     10      -3.6879      2.00000
     11       1.1095      0.00000
     12       1.2795      0.00000
     13       2.5377      0.00000
     14       2.7623      0.00000

 k-point    57 :       0.0000    0.4667    0.0000
  band No.  band energies     occupation 
      1     -14.5783      2.00000
      2     -14.4536      2.00000
      3      -9.2163      2.00000
      4      -9.0930      2.00000
      5      -4.5230      2.00000
      6      -4.2956      2.00000
      7      -3.8132      2.00000
      8      -3.6132      2.00000
      9      -2.5086      2.00000
     10      -2.1511      2.00000
     11      -0.8759      0.00000
     12      -0.4254      0.00000
     13      -0.0680      0.00000
     14       0.1329      0.00000

 k-point    58 :       0.0667    0.4667    0.0000
  band No.  band energies     occupation 
      1     -14.5677      2.00000
      2     -14.4453      2.00000
      3      -9.1876      2.00000
      4      -9.0671      2.00000
      5      -4.5345      2.00000
      6      -4.4008      2.00000
      7      -3.9809      2.00000
      8      -3.8332      2.00000
      9      -2.4196      2.00000
     10      -2.3170      2.00000
     11      -0.7821      0.00000
     12      -0.6773      0.00000
     13       0.3069      0.00000
     14       0.6087      0.00000

 k-point    59 :       0.1333    0.4667    0.0000
  band No.  band energies     occupation 
      1     -14.5374      2.00000
      2     -14.4217      2.00000
      3      -9.1027      2.00000
      4      -8.9909      2.00000
      5      -4.8160      2.00000
      6      -4.6361      2.00000
      7      -4.2235      2.00000
      8      -4.1069      2.00000
      9      -2.8104      2.00000
     10      -2.5959      2.00000
     11      -0.5250      0.00000
     12      -0.2797      0.00000
     13       0.7922      0.00000
     14       0.9070      0.00000

 k-point    60 :       0.2000    0.4667    0.0000
  band No.  band energies     occupation 
      1     -14.4911      2.00000
      2     -14.3869      2.00000
      3      -8.9652      2.00000
      4      -8.8684      2.00000
      5      -5.3429      2.00000
      6      -5.0159      2.00000
      7      -4.4153      2.00000
      8      -4.1794      2.00000
      9      -3.3496      2.00000
     10      -3.0453      2.00000
     11       0.0138      0.00000
     12       0.3802      0.00000
     13       1.0285      0.00000
     14       1.2562      0.00000

 k-point    61 :       0.2667    0.4667    0.0000
  band No.  band energies     occupation 
      1     -14.4352      2.00000
      2     -14.3472      2.00000
      3      -8.7829      2.00000
      4      -8.7084      2.00000
      5      -5.8316      2.00000
      6      -5.4865      2.00000
      7      -4.6089      2.00000
      8      -4.3455      2.00000
      9      -3.7073      2.00000
     10      -3.4306      2.00000
     11       0.5231      0.00000
     12       0.8808      0.00000
     13       1.4579      0.00000
     14       1.7116      0.00000

 k-point    62 :       0.3333    0.4667    0.0000
  band No.  band energies     occupation 
      1     -14.3777      2.00000
      2     -14.3106      2.00000
      3      -8.5722      2.00000
      4      -8.5264      2.00000
      5      -6.2334      2.00000
      6      -5.9164      2.00000
      7      -4.9188      2.00000
      8      -4.6562      2.00000
      9      -3.8163      2.00000
     10      -3.6166      2.00000
     11       0.8651      0.00000
     12       1.1372      0.00000
     13       2.0378      0.00000
     14       2.3171      0.00000

 k-point    63 :       0.4000    0.4667    0.0000
  band No.  band energies     occupation 
      1     -14.3274      2.00000
      2     -14.2852      2.00000
      3      -8.3677      2.00000
      4      -8.3509      2.00000
      5      -6.5139      2.00000
      6      -6.2779      2.00000
      7      -5.1869      2.00000
      8      -4.9901      2.00000
      9      -3.8069      2.00000
     10      -3.6860      2.00000
     11       1.1056      0.00000
     12       1.2758      0.00000
     13       2.5348      0.00000
     14       2.7672      0.00000

 k-point    64 :       0.4667    0.4667    0.0000
  band No.  band energies     occupation 
      1     -14.2925      2.00000
      2     -14.2781      2.00000
      3      -8.2331      2.00000
      4      -8.2318      2.00000
      5      -6.6272      2.00000
      6      -6.5368      2.00000
      7      -5.2991      2.00000
      8      -5.2258      2.00000
      9      -3.7671      2.00000
     10      -3.7263      2.00000
     11       1.2648      0.00000
     12       1.3228      0.00000
     13       2.7017      0.00000
     14       2.7832      0.00000


--------------------------------------------------------------------------------------------------------


 soft charge-density along one line, spin component           1
         0         1         2         3         4         5         6         7         8         9
 total charge-density along one line
 
 pseudopotential strength for first ion, spin component:           1
 30.075 -23.429  -0.000  -0.089   0.031  -0.000  -0.140   0.048
-23.429  28.113   0.000   0.050  -0.017   0.000   0.082  -0.028
 -0.000   0.000   6.330  -0.000  -0.000   9.792  -0.000  -0.000
 -0.089   0.050  -0.000   6.327   0.001  -0.000   9.789   0.002
  0.031  -0.017  -0.000   0.001   6.329  -0.000   0.002   9.792
 -0.000   0.000   9.792  -0.000  -0.000  15.220  -0.000  -0.000
 -0.140   0.082  -0.000   9.789   0.002  -0.000  15.214   0.003
  0.048  -0.028  -0.000   0.002   9.792  -0.000   0.003  15.219
 -0.000   0.000   0.006  -0.000  -0.000   0.010  -0.000  -0.000
 -0.000   0.000  -0.020  -0.000  -0.000  -0.031  -0.000  -0.000
 -0.002   0.003   0.000  -0.023  -0.004   0.000  -0.035  -0.006
  0.003  -0.001  -0.000   0.007  -0.020  -0.000   0.011  -0.031
 -0.000   0.000  -0.000  -0.000   0.007  -0.000  -0.000   0.011
 total augmentation occupancy for first ion, spin component:           1
  2.026  -0.015   0.000   0.237  -0.077   0.000  -0.042   0.014   0.000   0.000   0.024   0.002   0.000
 -0.015   0.009  -0.000  -0.073   0.024   0.000   0.018  -0.006   0.000   0.000  -0.002   0.001  -0.000
  0.000  -0.000   1.507   0.000  -0.000  -0.406   0.000  -0.000   0.109  -0.042   0.000   0.000   0.000
  0.237  -0.073  -0.000   1.839  -0.000   0.000  -0.486  -0.012   0.000   0.000  -0.268  -0.016  -0.000
 -0.077   0.024  -0.000  -0.000   1.494  -0.000  -0.013  -0.397   0.000  -0.000  -0.070  -0.044  -0.005
  0.000   0.000  -0.406   0.000   0.000   0.118   0.000   0.000  -0.029   0.012   0.000   0.000   0.000
 -0.042   0.018   0.000  -0.486  -0.013   0.000   0.140   0.006   0.000  -0.000   0.074   0.004   0.000
  0.014  -0.006   0.000  -0.012  -0.397   0.000   0.006   0.114   0.000   0.000   0.018   0.012   0.002
  0.000   0.000   0.109   0.000   0.000  -0.029   0.000   0.000   0.078   0.000  -0.000   0.000  -0.000
 -0.000   0.000  -0.042   0.000   0.000   0.012   0.000  -0.000   0.000   0.021   0.000   0.000   0.000
  0.024  -0.002  -0.000  -0.268  -0.070   0.000   0.074   0.018   0.000   0.000   0.078   0.005   0.001
  0.002   0.001   0.000  -0.016  -0.044   0.000   0.004   0.012   0.000  -0.000   0.005   0.022   0.000
  0.000  -0.000   0.000  -0.000  -0.005   0.000   0.000   0.002   0.000  -0.000   0.001   0.000   0.017


------------------------ aborting loop because EDIFF is reached ----------------------------------------


    CHARGE:  cpu time    0.1274: real time    0.1275
    FORLOC:  cpu time    0.0019: real time    0.0019
    FORNL :  cpu time    0.1917: real time    0.1920
    STRESS:  cpu time    0.3991: real time    0.4000
    FORCOR:  cpu time    0.0434: real time    0.0435
    FORHAR:  cpu time    0.0116: real time    0.0117
    MIXING:  cpu time    0.0011: real time    0.0011
    OFIELD:  cpu time    0.0000: real time    0.0000

  FORCE on cell =-STRESS in cart. coord.  units (eV):
  Direction    XX          YY          ZZ          XY          YZ          ZX
  --------------------------------------------------------------------------------------
  Alpha Z     9.56159     9.56159     9.56159
  Ewald    1616.47901  1619.99231 -2075.33826    -0.00000     0.00000     0.00000
  Hartree  1736.62409  1737.86028 -1690.22277    -0.00000    -0.00000     0.00000
  E(xc)     -77.68372   -77.69262   -78.91679    -0.00000     0.00000     0.00000
  Local   -3605.85196 -3610.14900  3510.69611    -0.00000     0.00000     0.00000
  n-local   162.56764   162.71524   167.25029    -0.45075    -0.00000     0.00000
  augment   -31.87570   -31.82811   -32.80385     0.00000     0.00000     0.00000
  Kinetic   190.32420   189.66464   189.77008     5.62100    -0.00000    -0.00000
  Fock        0.00000     0.00000     0.00000     0.00000     0.00000     0.00000
  -------------------------------------------------------------------------------------
  Total       0.14515     0.12432    -0.00361     0.00000     0.00000     0.00000
  in kB       0.62188     0.53264    -0.01548     0.00000     0.00000     0.00000
  external pressure =        0.38 kB  Pullay stress =        0.00 kB


 VOLUME and BASIS-vectors are now :
 -----------------------------------------------------------------------------
  energy-cutoff  :      600.00
  volume of cell :      373.97
      direct lattice vectors                 reciprocal lattice vectors
     4.356062624  0.000000000  0.000000000     0.229565111  0.000000000  0.000000000
     0.000000000  4.292477857  0.000000000     0.000000000  0.232965675  0.000000000
     0.000000000  0.000000000 20.000000000     0.000000000  0.000000000  0.050000000

  length of vectors
     4.356062624  4.292477857 20.000000000     0.229565111  0.232965675  0.050000000


 FORCES acting on ions
    electron-ion (+dipol)            ewald-force                    non-local-force                 convergence-correction
 -----------------------------------------------------------------------------------------------
   0.367E+01 -.303E-12 -.145E+03   -.498E+01 -.469E-15 0.149E+03   0.132E+01 0.000E+00 -.380E+01   -.103E-03 0.105E-13 -.134E-02
   0.367E+01 -.521E-13 0.145E+03   -.498E+01 0.213E-15 -.149E+03   0.132E+01 0.000E+00 0.380E+01   -.103E-03 0.940E-14 0.134E-02
   -.460E+01 -.534E-13 -.208E+03   0.498E+01 0.998E-16 0.210E+03   -.386E+00 0.000E+00 -.204E+01   0.197E-02 -.223E-13 -.356E-02
   -.460E+01 0.199E-12 0.208E+03   0.498E+01 -.202E-15 -.210E+03   -.386E+00 0.000E+00 0.204E+01   0.197E-02 -.444E-13 0.356E-02
 -----------------------------------------------------------------------------------------------
   -.186E+01 -.209E-12 -.538E-07   -.888E-15 -.358E-15 0.284E-13   0.186E+01 0.000E+00 0.000E+00   0.374E-02 -.469E-13 -.176E-09
 
 
 POSITION                                       TOTAL-FORCE (eV/Angst)
 -----------------------------------------------------------------------------------
      2.51843      3.21936     11.37377         0.000658      0.000000     -0.000439
      0.34040      1.07312      8.62623         0.000658      0.000000      0.000439
      0.15664      1.07312     11.34463        -0.000658     -0.000000     -0.000248
      2.33467      3.21936      8.65537        -0.000658     -0.000000      0.000248
 -----------------------------------------------------------------------------------
    total drift:                                0.000001     -0.000000     -0.000000


--------------------------------------------------------------------------------------------------------



  FREE ENERGIE OF THE ION-ELECTRON SYSTEM (eV)
  ---------------------------------------------------
  free  energy   TOTEN  =       -16.26395203 eV

  energy  without entropy=      -16.26395203  energy(sigma->0) =      -16.26395203
 
 d Force = 0.1595389E-05[ 0.961E-06, 0.223E-05]  d Energy = 0.1656440E-05-0.611E-07
 d Force = 0.8390530E-01[ 0.839E-01, 0.839E-01]  d Ewald  = 0.8390530E-01-0.200E-09


--------------------------------------------------------------------------------------------------------


    POTLOK:  cpu time    0.0456: real time    0.0457


--------------------------------------------------------------------------------------------------------




--------------------------------------------------------------------------------------------------------


  
 reached required accuracy - stopping structural energy minimisation
 writing wavefunctions
     LOOP+:  cpu time    6.1323: real time    6.4517
    4ORBIT:  cpu time    0.0000: real time    0.0000

 total amount of memory used by VASP MPI-rank0    51825. kBytes
=======================================================================

   base      :      30000. kBytes
   nonl-proj :       7049. kBytes
   fftplans  :       2678. kBytes
   grid      :       4349. kBytes
   one-center:          8. kBytes
   wavefun   :       7741. kBytes
 
  
  
 General timing and accounting informations for this job:
 ========================================================
  
                  Total CPU time used (sec):      120.059
                            User time (sec):      119.347
                          System time (sec):        0.711
                         Elapsed time (sec):      129.058
  
                   Maximum memory used (kb):      205196.
                   Average memory used (kb):           0.
  
                          Minor page faults:       101283
                          Major page faults:           27
                 Voluntary context switches:         6944
