Pristine 2H-MoS2 plus 0% Hydrogen

1540 	 atoms 
2  atom types
0.0      119.33182890193143  xlo xhi
0.0      106.02322870915638  ylo yhi
0.0      23.187507035345014  zlo zhi


Atoms 

     1   2  -0.0      10.913374398048958      11.597668613265192       10.00367304007675
     2   2  -0.0      10.918054535735472      11.593735253236169      13.187507035345014
     3   1   0.0      12.756517949163602      11.594721089593868      11.592205356805177
     4   1   0.0      9.9999999999999929      10.000000000000004       11.59565347809222
     5   2  -0.0      13.691012594913744      10.009229119180496                      10
     6   2  -0.0      13.683661279422495      10.004784548219462      13.184090000135628
     7   1   0.0      12.756517949163602      14.780766597340403      11.592205356805177
     8   2  -0.0      13.691012594913744      13.195274626927031                      10
     9   2  -0.0      13.683661279422495      13.190830055965996      13.184090000135628
    10   2  -0.0      13.691012594913744      16.381320134673558                      10
    11   2  -0.0      13.683661279422495      16.376875563712524      13.184090000135628
    12   2  -0.0      16.431809337045152      11.597668613265192       10.00367304007675
    13   2  -0.0      16.436489474731665      11.593735253236169      13.187507035345014
    14   1   0.0      18.274952888159795      11.594721089593868      11.592205356805177
    15   1   0.0      15.518434938996187      10.000000000000004       11.59565347809222
    16   2  -0.0      19.209447533909938      10.009229119180496                      10
    17   2  -0.0      19.202096218418689      10.004784548219462      13.184090000135628
    18   2  -0.0      16.431809337045152      14.783714121011727       10.00367304007675
    19   2  -0.0      16.436489474731665      14.779780760982703      13.187507035345014
    20   1   0.0      18.274952888159795      14.780766597340403      11.592205356805177
    21   1   0.0      15.518434938996187      13.186045507746542       11.59565347809222
    22   2  -0.0      19.209447533909938      13.195274626927031                      10
    23   2  -0.0      19.202096218418689      13.190830055965996      13.184090000135628
    24   2  -0.0      16.431809337045152      17.969759628758254       10.00367304007675
    25   2  -0.0      16.436489474731665      17.965826268729231      13.187507035345014
    26   1   0.0      18.274952888159795       17.96681210508693      11.592205356805177
    27   1   0.0      15.518434938996187      16.372091015493069       11.59565347809222
    28   2  -0.0      19.209447533909938      16.381320134673558                      10
    29   2  -0.0      19.202096218418689      16.376875563712524      13.184090000135628
    30   2  -0.0      16.431809337045152      21.155805136504789       10.00367304007675
    31   2  -0.0      16.436489474731665      21.151871776475765      13.187507035345014
    32   1   0.0      18.274952888159795      21.152857612833465      11.592205356805177
    33   1   0.0      15.518434938996187      19.558136523239604       11.59565347809222
    34   2  -0.0      19.209447533909938      19.567365642420093                      10
    35   2  -0.0      19.202096218418689      19.562921071459058      13.184090000135628
    36   1   0.0      18.274952888159795      24.338903120579999      11.592205356805177
    37   2  -0.0      19.209447533909938      22.753411150166627                      10
    38   2  -0.0      19.202096218418689      22.748966579205593      13.184090000135628
    39   2  -0.0      19.209447533909938      25.939456657913155                      10
    40   2  -0.0      19.202096218418689      25.935012086952121      13.184090000135628
    41   2  -0.0      21.950244276041346      11.597668613265192       10.00367304007675
    42   2  -0.0      21.954924413727859      11.593735253236169      13.187507035345014
    43   1   0.0      23.793387827155989      11.594721089593868      11.592205356805177
    44   1   0.0       21.03686987799238      10.000000000000004       11.59565347809222
    45   2  -0.0      24.727882472906131      10.009229119180496                      10
    46   2  -0.0      24.720531157414882      10.004784548219462      13.184090000135628
    47   2  -0.0      21.950244276041346      14.783714121011727       10.00367304007675
    48   2  -0.0      21.954924413727859      14.779780760982703      13.187507035345014
    49   1   0.0      23.793387827155989      14.780766597340403      11.592205356805177
    50   1   0.0       21.03686987799238      13.186045507746542       11.59565347809222
    51   2  -0.0      24.727882472906131      13.195274626927031                      10
    52   2  -0.0      24.720531157414882      13.190830055965996      13.184090000135628
    53   2  -0.0      21.950244276041346      17.969759628758254       10.00367304007675
    54   2  -0.0      21.954924413727859      17.965826268729231      13.187507035345014
    55   1   0.0      23.793387827155989       17.96681210508693      11.592205356805177
    56   1   0.0       21.03686987799238      16.372091015493069       11.59565347809222
    57   2  -0.0      24.727882472906131      16.381320134673558                      10
    58   2  -0.0      24.720531157414882      16.376875563712524      13.184090000135628
    59   2  -0.0      21.950244276041346      21.155805136504789       10.00367304007675
    60   2  -0.0      21.954924413727859      21.151871776475765      13.187507035345014
    61   1   0.0      23.793387827155989      21.152857612833465      11.592205356805177
    62   1   0.0       21.03686987799238      19.558136523239604       11.59565347809222
    63   2  -0.0      24.727882472906131      19.567365642420093                      10
    64   2  -0.0      24.720531157414882      19.562921071459058      13.184090000135628
    65   2  -0.0      21.950244276041346      24.341850644251323       10.00367304007675
    66   2  -0.0      21.954924413727859        24.3379172842223      13.187507035345014
    67   1   0.0      23.793387827155989      24.338903120579999      11.592205356805177
    68   1   0.0       21.03686987799238      22.744182030986138       11.59565347809222
    69   2  -0.0      24.727882472906131      22.753411150166627                      10
    70   2  -0.0      24.720531157414882      22.748966579205593      13.184090000135628
    71   2  -0.0      21.950244276041346      27.527896151997851       10.00367304007675
    72   2  -0.0      21.954924413727859      27.523962791968827      13.187507035345014
    73   1   0.0      23.793387827155989      27.524948628326527      11.592205356805177
    74   1   0.0       21.03686987799238      25.930227538732666       11.59565347809222
    75   2  -0.0      24.727882472906131      25.939456657913155                      10
    76   2  -0.0      24.720531157414882      25.935012086952121      13.184090000135628
    77   2  -0.0      21.950244276041346      30.713941659744386       10.00367304007675
    78   2  -0.0      21.954924413727859      30.710008299715362      13.187507035345014
    79   1   0.0      23.793387827155989      30.710994136073062      11.592205356805177
    80   1   0.0       21.03686987799238      29.116273046479201       11.59565347809222
    81   2  -0.0      24.727882472906131       29.12550216565969                      10
    82   2  -0.0      24.720531157414882      29.121057594698655      13.184090000135628
    83   1   0.0      23.793387827155989      33.897039643819596      11.592205356805177
    84   2  -0.0      24.727882472906131      32.311547673406224                      10
    85   2  -0.0      24.720531157414882       32.30710310244519      13.184090000135628
    86   2  -0.0      24.727882472906131      35.497593181152752                      10
    87   2  -0.0      24.720531157414882      35.493148610191717      13.184090000135628
    88   2  -0.0      27.468679215037533      11.597668613265192       10.00367304007675
    89   2  -0.0      27.473359352724046      11.593735253236169      13.187507035345014
    90   1   0.0      29.311822766152176      11.594721089593868      11.592205356805177
    91   1   0.0      26.555304816988567      10.000000000000004       11.59565347809222
    92   2  -0.0      30.246317411902311      10.009229119180496                      10
    93   2  -0.0      30.238966096411076      10.004784548219462      13.184090000135628
    94   2  -0.0      27.468679215037533      14.783714121011727       10.00367304007675
    95   2  -0.0      27.473359352724046      14.779780760982703      13.187507035345014
    96   1   0.0      29.311822766152176      14.780766597340403      11.592205356805177
    97   1   0.0      26.555304816988567      13.186045507746542       11.59565347809222
    98   2  -0.0      30.246317411902311      13.195274626927031                      10
    99   2  -0.0      30.238966096411076      13.190830055965996      13.184090000135628
   100   2  -0.0      27.468679215037533      17.969759628758254       10.00367304007675
   101   2  -0.0      27.473359352724046      17.965826268729231      13.187507035345014
   102   1   0.0      29.311822766152176       17.96681210508693      11.592205356805177
   103   1   0.0      26.555304816988567      16.372091015493069       11.59565347809222
   104   2  -0.0      30.246317411902311      16.381320134673558                      10
   105   2  -0.0      30.238966096411076      16.376875563712524      13.184090000135628
   106   2  -0.0      27.468679215037533      21.155805136504789       10.00367304007675
   107   2  -0.0      27.473359352724046      21.151871776475765      13.187507035345014
   108   1   0.0      29.311822766152176      21.152857612833465      11.592205356805177
   109   1   0.0      26.555304816988567      19.558136523239604       11.59565347809222
   110   2  -0.0      30.246317411902311      19.567365642420093                      10
   111   2  -0.0      30.238966096411076      19.562921071459058      13.184090000135628
   112   2  -0.0      27.468679215037533      24.341850644251323       10.00367304007675
   113   2  -0.0      27.473359352724046        24.3379172842223      13.187507035345014
   114   1   0.0      29.311822766152176      24.338903120579999      11.592205356805177
   115   1   0.0      26.555304816988567      22.744182030986138       11.59565347809222
   116   2  -0.0      30.246317411902311      22.753411150166627                      10
   117   2  -0.0      30.238966096411076      22.748966579205593      13.184090000135628
   118   2  -0.0      27.468679215037533      27.527896151997851       10.00367304007675
   119   2  -0.0      27.473359352724046      27.523962791968827      13.187507035345014
   120   1   0.0      29.311822766152176      27.524948628326527      11.592205356805177
   121   1   0.0      26.555304816988567      25.930227538732666       11.59565347809222
   122   2  -0.0      30.246317411902311      25.939456657913155                      10
   123   2  -0.0      30.238966096411076      25.935012086952121      13.184090000135628
   124   2  -0.0      27.468679215037533      30.713941659744386       10.00367304007675
   125   2  -0.0      27.473359352724046      30.710008299715362      13.187507035345014
   126   1   0.0      29.311822766152176      30.710994136073062      11.592205356805177
   127   1   0.0      26.555304816988567      29.116273046479201       11.59565347809222
   128   2  -0.0      30.246317411902311       29.12550216565969                      10
   129   2  -0.0      30.238966096411076      29.121057594698655      13.184090000135628
   130   2  -0.0      27.468679215037533       33.89998716749092       10.00367304007675
   131   2  -0.0      27.473359352724046      33.896053807461897      13.187507035345014
   132   1   0.0      29.311822766152176      33.897039643819596      11.592205356805177
   133   1   0.0      26.555304816988567      32.302318554225735       11.59565347809222
   134   2  -0.0      30.246317411902311      32.311547673406224                      10
   135   2  -0.0      30.238966096411076       32.30710310244519      13.184090000135628
   136   2  -0.0      27.468679215037533      37.086032675237448       10.00367304007675
   137   2  -0.0      27.473359352724046      37.082099315208424      13.187507035345014
   138   1   0.0      29.311822766152176      37.083085151566124      11.592205356805177
   139   1   0.0      26.555304816988567      35.488364061972263       11.59565347809222
   140   2  -0.0      30.246317411902311      35.497593181152752                      10
   141   2  -0.0      30.238966096411076      35.493148610191717      13.184090000135628
   142   2  -0.0      27.468679215037533      40.272078182983982       10.00367304007675
   143   2  -0.0      27.473359352724046      40.268144822954959      13.187507035345014
   144   1   0.0      29.311822766152176      40.269130659312658      11.592205356805177
   145   1   0.0      26.555304816988567      38.674409569718797       11.59565347809222
   146   2  -0.0      30.246317411902311      38.683638688899286                      10
   147   2  -0.0      30.238966096411076      38.679194117938252      13.184090000135628
   148   1   0.0      29.311822766152176      43.455176167059193      11.592205356805177
   149   2  -0.0      30.246317411902311      41.869684196645821                      10
   150   2  -0.0      30.238966096411076      41.865239625684787      13.184090000135628
   151   2  -0.0      30.246317411902311      45.055729704392348                      10
   152   2  -0.0      30.238966096411076      45.051285133431321      13.184090000135628
   153   2  -0.0      32.987114154033719      11.597668613265192       10.00367304007675
   154   2  -0.0       32.99179429172024      11.593735253236169      13.187507035345014
   155   1   0.0      34.830257705148369      11.594721089593868      11.592205356805177
   156   1   0.0      32.073739755984747      10.000000000000004       11.59565347809222
   157   2  -0.0      35.764752350898505      10.009229119180496                      10
   158   2  -0.0      35.757401035407256      10.004784548219462      13.184090000135628
   159   2  -0.0      32.987114154033719      14.783714121011727       10.00367304007675
   160   2  -0.0       32.99179429172024      14.779780760982703      13.187507035345014
   161   1   0.0      34.830257705148369      14.780766597340403      11.592205356805177
   162   1   0.0      32.073739755984747      13.186045507746542       11.59565347809222
   163   2  -0.0      35.764752350898505      13.195274626927031                      10
   164   2  -0.0      35.757401035407256      13.190830055965996      13.184090000135628
   165   2  -0.0      32.987114154033719      17.969759628758254       10.00367304007675
   166   2  -0.0       32.99179429172024      17.965826268729231      13.187507035345014
   167   1   0.0      34.830257705148369       17.96681210508693      11.592205356805177
   168   1   0.0      32.073739755984747      16.372091015493069       11.59565347809222
   169   2  -0.0      35.764752350898505      16.381320134673558                      10
   170   2  -0.0      35.757401035407256      16.376875563712524      13.184090000135628
   171   2  -0.0      32.987114154033719      21.155805136504789       10.00367304007675
   172   2  -0.0       32.99179429172024      21.151871776475765      13.187507035345014
   173   1   0.0      34.830257705148369      21.152857612833465      11.592205356805177
   174   1   0.0      32.073739755984747      19.558136523239604       11.59565347809222
   175   2  -0.0      35.764752350898505      19.567365642420093                      10
   176   2  -0.0      35.757401035407256      19.562921071459058      13.184090000135628
   177   2  -0.0      32.987114154033719      24.341850644251323       10.00367304007675
   178   2  -0.0       32.99179429172024        24.3379172842223      13.187507035345014
   179   1   0.0      34.830257705148369      24.338903120579999      11.592205356805177
   180   1   0.0      32.073739755984747      22.744182030986138       11.59565347809222
   181   2  -0.0      35.764752350898505      22.753411150166627                      10
   182   2  -0.0      35.757401035407256      22.748966579205593      13.184090000135628
   183   2  -0.0      32.987114154033719      27.527896151997851       10.00367304007675
   184   2  -0.0       32.99179429172024      27.523962791968827      13.187507035345014
   185   1   0.0      34.830257705148369      27.524948628326527      11.592205356805177
   186   1   0.0      32.073739755984747      25.930227538732666       11.59565347809222
   187   2  -0.0      35.764752350898505      25.939456657913155                      10
   188   2  -0.0      35.757401035407256      25.935012086952121      13.184090000135628
   189   2  -0.0      32.987114154033719      30.713941659744386       10.00367304007675
   190   2  -0.0       32.99179429172024      30.710008299715362      13.187507035345014
   191   1   0.0      34.830257705148369      30.710994136073062      11.592205356805177
   192   1   0.0      32.073739755984747      29.116273046479201       11.59565347809222
   193   2  -0.0      35.764752350898505       29.12550216565969                      10
   194   2  -0.0      35.757401035407256      29.121057594698655      13.184090000135628
   195   2  -0.0      32.987114154033719       33.89998716749092       10.00367304007675
   196   2  -0.0       32.99179429172024      33.896053807461897      13.187507035345014
   197   1   0.0      34.830257705148369      33.897039643819596      11.592205356805177
   198   1   0.0      32.073739755984747      32.302318554225735       11.59565347809222
   199   2  -0.0      35.764752350898505      32.311547673406224                      10
   200   2  -0.0      35.757401035407256       32.30710310244519      13.184090000135628
   201   2  -0.0      32.987114154033719      37.086032675237448       10.00367304007675
   202   2  -0.0       32.99179429172024      37.082099315208424      13.187507035345014
   203   1   0.0      34.830257705148369      37.083085151566124      11.592205356805177
   204   1   0.0      32.073739755984747      35.488364061972263       11.59565347809222
   205   2  -0.0      35.764752350898505      35.497593181152752                      10
   206   2  -0.0      35.757401035407256      35.493148610191717      13.184090000135628
   207   2  -0.0      32.987114154033719      40.272078182983982       10.00367304007675
   208   2  -0.0       32.99179429172024      40.268144822954959      13.187507035345014
   209   1   0.0      34.830257705148369      40.269130659312658      11.592205356805177
   210   1   0.0      32.073739755984747      38.674409569718797       11.59565347809222
   211   2  -0.0      35.764752350898505      38.683638688899286                      10
   212   2  -0.0      35.757401035407256      38.679194117938252      13.184090000135628
   213   2  -0.0      32.987114154033719      43.458123690730517       10.00367304007675
   214   2  -0.0       32.99179429172024      43.454190330701493      13.187507035345014
   215   1   0.0      34.830257705148369      43.455176167059193      11.592205356805177
   216   1   0.0      32.073739755984747      41.860455077465332       11.59565347809222
   217   2  -0.0      35.764752350898505      41.869684196645821                      10
   218   2  -0.0      35.757401035407256      41.865239625684787      13.184090000135628
   219   2  -0.0      32.987114154033719      46.644169198477044       10.00367304007675
   220   2  -0.0       32.99179429172024      46.640235838448021      13.187507035345014
   221   1   0.0      34.830257705148369       46.64122167480572      11.592205356805177
   222   1   0.0      32.073739755984747      45.046500585211859       11.59565347809222
   223   2  -0.0      35.764752350898505      45.055729704392348                      10
   224   2  -0.0      35.757401035407256      45.051285133431321      13.184090000135628
   225   2  -0.0      32.987114154033719      49.830214706223586       10.00367304007675
   226   2  -0.0       32.99179429172024      49.826281346194563      13.187507035345014
   227   1   0.0      34.830257705148369      49.827267182552262      11.592205356805177
   228   1   0.0      32.073739755984747      48.232546092958401       11.59565347809222
   229   2  -0.0      35.764752350898505       48.24177521213889                      10
   230   2  -0.0      35.757401035407256      48.237330641177863      13.184090000135628
   231   1   0.0      34.830257705148369       53.01331269029879      11.592205356805177
   232   2  -0.0      35.764752350898505      51.427820719885418                      10
   233   2  -0.0      35.757401035407256       51.42337614892439      13.184090000135628
   234   2  -0.0      35.764752350898505      54.613866227631945                      10
   235   2  -0.0      35.757401035407256      54.609421656670918      13.184090000135628
   236   2  -0.0      38.505549093029913      11.597668613265192       10.00367304007675
   237   2  -0.0      38.510229230716433      11.593735253236169      13.187507035345014
   238   1   0.0      40.348692644144563      11.594721089593868      11.592205356805177
   239   1   0.0       37.59217469498094      10.000000000000004       11.59565347809222
   240   2  -0.0      41.283187289894698      10.009229119180496                      10
   241   2  -0.0      41.275835974403449      10.004784548219462      13.184090000135628
   242   2  -0.0      38.505549093029913      14.783714121011727       10.00367304007675
   243   2  -0.0      38.510229230716433      14.779780760982703      13.187507035345014
   244   1   0.0      40.348692644144563      14.780766597340403      11.592205356805177
   245   1   0.0       37.59217469498094      13.186045507746542       11.59565347809222
   246   2  -0.0      41.283187289894698      13.195274626927031                      10
   247   2  -0.0      41.275835974403449      13.190830055965996      13.184090000135628
   248   2  -0.0      38.505549093029913      17.969759628758254       10.00367304007675
   249   2  -0.0      38.510229230716433      17.965826268729231      13.187507035345014
   250   1   0.0      40.348692644144563       17.96681210508693      11.592205356805177
   251   1   0.0       37.59217469498094      16.372091015493069       11.59565347809222
   252   2  -0.0      41.283187289894698      16.381320134673558                      10
   253   2  -0.0      41.275835974403449      16.376875563712524      13.184090000135628
   254   2  -0.0      38.505549093029913      21.155805136504789       10.00367304007675
   255   2  -0.0      38.510229230716433      21.151871776475765      13.187507035345014
   256   1   0.0      40.348692644144563      21.152857612833465      11.592205356805177
   257   1   0.0       37.59217469498094      19.558136523239604       11.59565347809222
   258   2  -0.0      41.283187289894698      19.567365642420093                      10
   259   2  -0.0      41.275835974403449      19.562921071459058      13.184090000135628
   260   2  -0.0      38.505549093029913      24.341850644251323       10.00367304007675
   261   2  -0.0      38.510229230716433        24.3379172842223      13.187507035345014
   262   1   0.0      40.348692644144563      24.338903120579999      11.592205356805177
   263   1   0.0       37.59217469498094      22.744182030986138       11.59565347809222
   264   2  -0.0      41.283187289894698      22.753411150166627                      10
   265   2  -0.0      41.275835974403449      22.748966579205593      13.184090000135628
   266   2  -0.0      38.505549093029913      27.527896151997851       10.00367304007675
   267   2  -0.0      38.510229230716433      27.523962791968827      13.187507035345014
   268   1   0.0      40.348692644144563      27.524948628326527      11.592205356805177
   269   1   0.0       37.59217469498094      25.930227538732666       11.59565347809222
   270   2  -0.0      41.283187289894698      25.939456657913155                      10
   271   2  -0.0      41.275835974403449      25.935012086952121      13.184090000135628
   272   2  -0.0      38.505549093029913      30.713941659744386       10.00367304007675
   273   2  -0.0      38.510229230716433      30.710008299715362      13.187507035345014
   274   1   0.0      40.348692644144563      30.710994136073062      11.592205356805177
   275   1   0.0       37.59217469498094      29.116273046479201       11.59565347809222
   276   2  -0.0      41.283187289894698       29.12550216565969                      10
   277   2  -0.0      41.275835974403449      29.121057594698655      13.184090000135628
   278   2  -0.0      38.505549093029913       33.89998716749092       10.00367304007675
   279   2  -0.0      38.510229230716433      33.896053807461897      13.187507035345014
   280   1   0.0      40.348692644144563      33.897039643819596      11.592205356805177
   281   1   0.0       37.59217469498094      32.302318554225735       11.59565347809222
   282   2  -0.0      41.283187289894698      32.311547673406224                      10
   283   2  -0.0      41.275835974403449       32.30710310244519      13.184090000135628
   284   2  -0.0      38.505549093029913      37.086032675237448       10.00367304007675
   285   2  -0.0      38.510229230716433      37.082099315208424      13.187507035345014
   286   1   0.0      40.348692644144563      37.083085151566124      11.592205356805177
   287   1   0.0       37.59217469498094      35.488364061972263       11.59565347809222
   288   2  -0.0      41.283187289894698      35.497593181152752                      10
   289   2  -0.0      41.275835974403449      35.493148610191717      13.184090000135628
   290   2  -0.0      38.505549093029913      40.272078182983982       10.00367304007675
   291   2  -0.0      38.510229230716433      40.268144822954959      13.187507035345014
   292   1   0.0      40.348692644144563      40.269130659312658      11.592205356805177
   293   1   0.0       37.59217469498094      38.674409569718797       11.59565347809222
   294   2  -0.0      41.283187289894698      38.683638688899286                      10
   295   2  -0.0      41.275835974403449      38.679194117938252      13.184090000135628
   296   2  -0.0      38.505549093029913      43.458123690730517       10.00367304007675
   297   2  -0.0      38.510229230716433      43.454190330701493      13.187507035345014
   298   1   0.0      40.348692644144563      43.455176167059193      11.592205356805177
   299   1   0.0       37.59217469498094      41.860455077465332       11.59565347809222
   300   2  -0.0      41.283187289894698      41.869684196645821                      10
   301   2  -0.0      41.275835974403449      41.865239625684787      13.184090000135628
   302   2  -0.0      38.505549093029913      46.644169198477044       10.00367304007675
   303   2  -0.0      38.510229230716433      46.640235838448021      13.187507035345014
   304   1   0.0      40.348692644144563       46.64122167480572      11.592205356805177
   305   1   0.0       37.59217469498094      45.046500585211859       11.59565347809222
   306   2  -0.0      41.283187289894698      45.055729704392348                      10
   307   2  -0.0      41.275835974403449      45.051285133431321      13.184090000135628
   308   2  -0.0      38.505549093029913      49.830214706223586       10.00367304007675
   309   2  -0.0      38.510229230716433      49.826281346194563      13.187507035345014
   310   1   0.0      40.348692644144563      49.827267182552262      11.592205356805177
   311   1   0.0       37.59217469498094      48.232546092958401       11.59565347809222
   312   2  -0.0      41.283187289894698       48.24177521213889                      10
   313   2  -0.0      41.275835974403449      48.237330641177863      13.184090000135628
   314   2  -0.0      38.505549093029913      53.016260213970114       10.00367304007675
   315   2  -0.0      38.510229230716433       53.01232685394109      13.187507035345014
   316   1   0.0      40.348692644144563       53.01331269029879      11.592205356805177
   317   1   0.0       37.59217469498094      51.418591600704929       11.59565347809222
   318   2  -0.0      41.283187289894698      51.427820719885418                      10
   319   2  -0.0      41.275835974403449       51.42337614892439      13.184090000135628
   320   2  -0.0      38.505549093029913      56.202305721716641       10.00367304007675
   321   2  -0.0      38.510229230716433      56.198372361687618      13.187507035345014
   322   1   0.0      40.348692644144563      56.199358198045317      11.592205356805177
   323   1   0.0       37.59217469498094      54.604637108451456       11.59565347809222
   324   2  -0.0      41.283187289894698      54.613866227631945                      10
   325   2  -0.0      41.275835974403449      54.609421656670918      13.184090000135628
   326   2  -0.0      38.505549093029913      59.388351229463183       10.00367304007675
   327   2  -0.0      38.510229230716433      59.384417869434159      13.187507035345014
   328   1   0.0      40.348692644144563      59.385403705791859      11.592205356805177
   329   1   0.0       37.59217469498094      57.790682616197998       11.59565347809222
   330   2  -0.0      41.283187289894698      57.799911735378487                      10
   331   2  -0.0      41.275835974403449       57.79546716441746      13.184090000135628
   332   1   0.0      40.348692644144563      62.571449213538386      11.592205356805177
   333   2  -0.0      41.283187289894698      60.985957243125014                      10
   334   2  -0.0      41.275835974403449      60.981512672163987      13.184090000135628
   335   2  -0.0      41.283187289894698      64.172002750871542                      10