Si_2x2x2                                
           1
    10.937455    0.000000    0.000000
     0.000000   10.937455    0.000000
     0.000000    0.000000   10.937455
   Si
  64
Direct configuration=     1
   0.24495962  0.28500236  0.98326263
   0.21239277  0.21575545  0.43420120
   0.22358162  0.68109765  0.87392398
   0.22894914  0.71278532  0.48445622
   0.80702779  0.25487246  0.04922878
   0.76888611  0.25506702  0.46659909
   0.67918741  0.80927869  0.02627633
   0.77560510  0.76129784  0.46830261
   0.46887717  0.94883676  0.25812518
   0.21457707  0.94323962  0.77427164
   0.23498739  0.52929763  0.26943597
   0.22076120  0.44573120  0.66785056
   0.61520047  0.89428939  0.55700623
   0.86547035  0.12857752  0.90585550
   0.75686238  0.55738119  0.20413838
   0.74773403  0.49915550  0.75194595
   0.00308187  0.28204775  0.20911008
   0.95506847  0.18840103  0.71551796
   0.12226797  0.79069752  0.09634629
   0.92030560  0.80405660  0.72005950
   0.42453255  0.16390834  0.24813579
   0.50715190  0.20649238  0.78045164
   0.40660444  0.71191639  0.28784386
   0.41248453  0.68167537  0.80403389
   0.00158123  0.03558887  0.10557934
   0.04168871  0.03859578  0.54955731
   0.96640001  0.53387055  0.90719812
   0.03192917  0.51992159  0.49724952
   0.51692362  0.98797045  0.02561809
   0.55319281  0.03229399  0.68581473
   0.46212134  0.44929363  0.00591127
   0.47512844  0.47445460  0.49424753
   0.07341845  0.10471545  0.30818836
   0.10951091  0.13017657  0.90040634
   0.09571009  0.67772744  0.32949973
   0.07406157  0.61109457  0.75165115
   0.57920065  0.09952107  0.45776369
   0.63478811  0.16634847  0.95534685
   0.59975427  0.63492094  0.35096795
   0.63976717  0.65297397  0.86765474
   0.11948571  0.42867854  0.07799877
   0.06855045  0.32474656  0.56270063
   0.35490001  0.83185171  0.00773701
   0.09422498  0.84496706  0.62817222
   0.65412500  0.45404076  0.05579823
   0.63248827  0.36921487  0.63628690
   0.69194553  0.82404698  0.25713970
   0.73718562  0.98478923  0.78022329
   0.46545622  0.25198346  0.06407608
   0.34302523  0.00394949  0.57350811
   0.32861105  0.57757672  0.07140574
   0.35730368  0.59589111  0.59309516
   0.84780557  0.12515885  0.22133236
   0.82527410  0.05469211  0.55926125
   0.89995541  0.67478310  0.04727445
   0.86289694  0.59397556  0.60659777
   0.34847212  0.37979907  0.34859935
   0.28185728  0.43704270  0.85360553
   0.39813412  0.83861486  0.44745921
   0.42955742  0.89941129  0.79502003
   0.90649277  0.43908841  0.34749404
   0.87369440  0.37038608  0.85655393
   0.92488673  0.90123684  0.41954444
   0.88193793  0.89374571  0.96008182
Direct configuration=     2
   0.24402876  0.28787638  0.98496284
   0.21316080  0.21439647  0.43317638
   0.22786528  0.68154577  0.87250315
   0.22988620  0.71483618  0.48193196
   0.81147241  0.25458347  0.04941015
   0.76877123  0.25581734  0.46306904
   0.68202324  0.80940965  0.02642269
   0.77500500  0.76240613  0.46955156
   0.47266019  0.94716037  0.25617981
   0.21359025  0.94170074  0.77604528
   0.23451672  0.52816360  0.26777276
   0.22114729  0.44660063  0.66796055
   0.61215756  0.88941640  0.55905693
   0.86998802  0.12828373  0.90954712
   0.75759163  0.55834559  0.20202565
   0.74829632  0.50006199  0.75232165
   0.00142675  0.28239842  0.20951073
   0.95623565  0.18802153  0.71563439
   0.12365282  0.79175496  0.09490742
   0.92191274  0.80256914  0.71899986
   0.42432857  0.16040952  0.24974964
   0.50863237  0.20947134  0.78249861
   0.40362437  0.71294938  0.28786778
   0.41338191  0.68374986  0.80726161
   0.00081471  0.03266225  0.10420397
   0.04354299  0.03792024  0.55122123
   0.96812773  0.53445318  0.90877799
   0.03331798  0.52080124  0.49587976
   0.51640287  0.99283616  0.02429841
   0.55023590  0.03052394  0.68784188
   0.45988931  0.45364248  0.00572081
   0.47673124  0.47418962  0.49515313
   0.07337264  0.10337867  0.30835281
   0.10967315  0.13091460  0.90204956
   0.09655005  0.67970876  0.32843596
   0.07153761  0.60942102  0.75285942
   0.58070021  0.09750806  0.45847488
   0.63221086  0.16637644  0.95829279
   0.59888300  0.63443764  0.35018991
   0.63912534  0.65412477  0.86753998
   0.11982506  0.43006935  0.07773192
   0.06769713  0.32301823  0.56338777
   0.35651875  0.83031558  0.00732812
   0.09385017  0.84485007  0.62554241
   0.65199755  0.45624736  0.05486449
   0.62946652  0.36937329  0.63593806
   0.69474842  0.82079119  0.25591486
   0.73726057  0.98426556  0.78225172
   0.46533446  0.25071149  0.06389080
   0.34215045  0.00638727  0.57366500
   0.32727902  0.57545281  0.07152011
   0.35779911  0.59520251  0.59528729
   0.84545336  0.12367013  0.22398460
   0.82567492  0.05283921  0.55569697
   0.90260078  0.67719646  0.04693705
   0.86332485  0.59304638  0.60722791
   0.34544973  0.37941146  0.34616795
   0.27697264  0.44338946  0.85553183
   0.39670265  0.83435547  0.44751861
   0.42894060  0.90137043  0.79276338
   0.90742196  0.43771934  0.34561130
   0.87122349  0.37201273  0.85244214
   0.92251642  0.90045658  0.42146696
   0.88331978  0.89302000  0.95966864
Direct configuration=     3
   0.24322199  0.29020942  0.98672939
   0.21405133  0.21299878  0.43223961
   0.23153303  0.68201564  0.87174173
   0.23052186  0.71703555  0.47969084
   0.81543847  0.25505540  0.05000100
   0.76850577  0.25659356  0.45980234
   0.68490301  0.80968171  0.02644398
   0.77400125  0.76316105  0.47090663
   0.47668603  0.94546788  0.25412373
   0.21279593  0.94039376  0.77780542
   0.23383909  0.52732441  0.26570907
   0.22119826  0.44751872  0.66757894
   0.60929318  0.88428268  0.56031194
   0.87466053  0.12733073  0.91252246
   0.75855760  0.55945157  0.20027747
   0.74845560  0.50106934  0.75270235
  -0.00021952  0.28320784  0.20995340
   0.95751888  0.18792759  0.71577475
   0.12494533  0.79276173  0.09344761
   0.92294854  0.80081332  0.71814864
   0.42402860  0.15700663  0.25172708
   0.51026966  0.21285780  0.78441335
   0.40073558  0.71365725  0.28727714
   0.41517650  0.68576522  0.81000058
   0.00035571  0.02954392  0.10257272
   0.04549942  0.03748360  0.55266581
   0.97019788  0.53495753  0.91096100
   0.03450364  0.52186595  0.49429759
   0.51600031  0.99727201  0.02310026
   0.54714381  0.02917398  0.68975159
   0.45796543  0.45736598  0.00504607
   0.47890148  0.47356475  0.49568506
   0.07325779  0.10190007  0.30850246
   0.10976177  0.13144389  0.90362682
   0.09719737  0.68160845  0.32726650
   0.06918537  0.60780132  0.75364043
   0.58213402  0.09555625  0.45903396
   0.62961341  0.16631672  0.96099425
   0.59821380  0.63388323  0.34952583
   0.63822349  0.65514776  0.86759552
   0.11988898  0.43152623  0.07757734
   0.06698110  0.32115975  0.56421202
   0.35796935  0.82878461  0.00708408
   0.09399941  0.84462614  0.62274176
   0.65050264  0.45839472  0.05378493
   0.62626821  0.36920091  0.63526926
   0.69724899  0.81766544  0.25474037
   0.73763040  0.98367006  0.78426402
   0.46485946  0.24948286  0.06367496
   0.34122046  0.00909058  0.57392070
   0.32518719  0.57420973  0.07199624
   0.35805309  0.59478540  0.59798908
   0.84309820  0.12209418  0.22681513
   0.82591022  0.05120228  0.55235711
   0.90519359  0.67976087  0.04686192
   0.86391791  0.59265885  0.60771827
   0.34271520  0.37844406  0.34408484
   0.27251423  0.44979528  0.85794341
   0.39571697  0.83072999  0.44805966
   0.42799556  0.90315715  0.79095169
   0.90810628  0.43611369  0.34353483
   0.86879160  0.37298802  0.84845286
   0.92038616  0.89982116  0.42316107
   0.88462364  0.89216505  0.95920915
Direct configuration=     4
   0.24258386  0.29203574  0.98849414
   0.21505142  0.21156449  0.43139070
   0.23435826  0.68249025  0.87157943
   0.23082980  0.71923998  0.47782689
   0.81892265  0.25625242  0.05098514
   0.76811943  0.25735397  0.45679116
   0.68782041  0.81009107  0.02633226
   0.77257783  0.76351838  0.47239407
   0.48094462  0.94372915  0.25197872
   0.21214996  0.93928691  0.77955090
   0.23289898  0.52682226  0.26330823
   0.22089769  0.44842454  0.66678018
   0.60655374  0.87898009  0.56089139
   0.87948047  0.12572449  0.91477773
   0.75974792  0.56070366  0.19888014
   0.74807854  0.50221900  0.75297824
  -0.00186162  0.28439601  0.21040142
   0.95889320  0.18807094  0.71595558
   0.12616053  0.79372056  0.09198392
   0.92346349  0.79879747  0.71749034
   0.42363530  0.15370834  0.25400453
   0.51205185  0.21655992  0.78614949
   0.39795608  0.71401930  0.28600776
   0.41798607  0.68773512  0.81222017
   0.00016639  0.02628003  0.10076872
   0.04751554  0.03730862  0.55388995
   0.97249974  0.53521837  0.91376389
   0.03547270  0.52303410  0.49250093
   0.51564203  1.00123239  0.02205930
   0.54409513  0.02834319  0.69143492
   0.45647581  0.46032442  0.00385162
   0.48147409  0.47265500  0.49582111
   0.07303176  0.10027947  0.30860356
   0.10980321  0.13176546  0.90511847
   0.09766723  0.68340159  0.32595206
   0.06711448  0.60630138  0.75399671
   0.58351369  0.09363033  0.45945514
   0.62721359  0.16623579  0.96342978
   0.59770245  0.63326789  0.34897618
   0.63709676  0.65604728  0.86782746
   0.11963525  0.43307152  0.07755779
   0.06642140  0.31925914  0.56512162
   0.35927039  0.82729702  0.00699703
   0.09467031  0.84429753  0.61981818
   0.64960336  0.46050402  0.05255015
   0.62298167  0.36874793  0.63435317
   0.69948569  0.81465775  0.25360907
   0.73824429  0.98303070  0.78624652
   0.46395649  0.24838349  0.06349703
   0.34023591  0.01199801  0.57423191
   0.32225631  0.57392310  0.07286925
   0.35811091  0.59465799  0.60105823
   0.84080243  0.12041597  0.22981786
   0.82597727  0.04980229  0.54923942
   0.90774056  0.68244143  0.04703742
   0.86468526  0.59278970  0.60805834
   0.34033680  0.37692736  0.34242863
   0.26840114  0.45621008  0.86080817
   0.39528860  0.82788701  0.44914801
   0.42662131  0.90467016  0.78964791
   0.90855773  0.43434193  0.34132205
   0.86653649  0.37337236  0.84471225
   0.91853020  0.89936446  0.42459316
   0.88586519  0.89117968  0.95867450
Direct configuration=     5
   0.24214808  0.29339986  0.99019164
   0.21614581  0.21008646  0.43062686
   0.23622102  0.68298386  0.87194112
   0.23076508  0.72132783  0.47640078
   0.82195336  0.25809304  0.05229375
   0.76763254  0.25806459  0.45401671
   0.69077305  0.81062815  0.02607722
   0.77074043  0.76345066  0.47402804
   0.48543383  0.94191579  0.24976469
   0.21160807  0.93834877  0.78127759
   0.23166669  0.52665085  0.26067328
   0.22024017  0.44927307  0.66569414
   0.60386784  0.87360002  0.56091536
   0.88440447  0.12352494  0.91637581
   0.76114509  0.56210357  0.19781419
   0.74706219  0.50355165  0.75304924
  -0.00349790  0.28587012  0.21081346
   0.96033128  0.18840582  0.71619519
   0.12731429  0.79463110  0.09052165
   0.92353894  0.79654060  0.71698705
   0.42315801  0.15053003  0.25652958
   0.51396447  0.22049987  0.78767761
   0.39530447  0.71406300  0.28405281
   0.42181113  0.68967390  0.81392069
   0.00021688  0.02290859  0.09887418
   0.04955077  0.03740999  0.55490000
   0.97494588  0.53510425  0.91717457
   0.03621359  0.52423101  0.49048591
   0.51524123  1.00466031  0.02120675
   0.54127160  0.02811251  0.69277242
   0.45544865  0.46250265  0.00214370
   0.48427847  0.47156331  0.49556708
   0.07265598  0.09852904  0.30862833
   0.10983756  0.13188157  0.90650980
   0.09797681  0.68507155  0.32446402
   0.06538545  0.60496195  0.75393795
   0.58485904  0.09169940  0.45975123
   0.62521482  0.16621213  0.96557436
   0.59730464  0.63259298  0.34854154
   0.63579488  0.65682931  0.86824516
   0.11903262  0.43471420  0.07768336
   0.06603444  0.31739015  0.56606135
   0.36043004  0.82588642  0.00706376
   0.09581563  0.84385795  0.61684272
   0.64926552  0.46259859  0.05115630
   0.61969831  0.36805323  0.63326216
   0.70149687  0.81175124  0.25251502
   0.73904980  0.98236341  0.78818814
   0.46255421  0.24746245  0.06342517
   0.33919365  0.01506334  0.57456423
   0.31852888  0.57458648  0.07411106
   0.35805164  0.59480585  0.60435395
   0.83861606  0.11862907  0.23299155
   0.82587178  0.04866232  0.54633745
   0.91025390  0.68520346  0.04745477
   0.86562331  0.59340913  0.60825196
   0.33833224  0.37492099  0.34123441
   0.26456137  0.46255712  0.86404175
   0.39553770  0.82590991  0.45079049
   0.42474304  0.90581315  0.78892338
   0.90877841  0.43248640  0.33904089
   0.86457861  0.37322382  0.84132767
   0.91697003  0.89909730  0.42573215
   0.88705331  0.89006590  0.95803083
