
     Program PWSCF v.6.6 starts on  8May2023 at  6:23:51 

     This program is part of the open-source Quantum ESPRESSO suite
     for quantum simulation of materials; please cite
         "P. Giannozzi et al., J. Phys.:Condens. Matter 21 395502 (2009);
         "P. Giannozzi et al., J. Phys.:Condens. Matter 29 465901 (2017);
          URL http://www.quantum-espresso.org", 
     in publications or presentations arising from this work. More details at
     http://www.quantum-espresso.org/quote

     Parallel version (MPI), running on    24 processors

     MPI processes distributed on     1 nodes
     R & G space division:  proc/nbgrp/npool/nimage =      24
     Fft bands division:     nmany     =       1
     Reading input from INCAR-relax.pw
Warning: card &CELL ignored
Warning: card     CELL_DYNAMICS  = "BFGS" ignored
Warning: card     ! CELL_DOFREE = "XY" ignored
Warning: card / ignored

     Current dimensions of program PWSCF are:
     Max number of different atomic species (ntypx) = 10
     Max number of k-points (npk) =  40000
     Max angular momentum in pseudopotentials (lmaxx) =  3

     Subspace diagonalization in iterative solution of the eigenvalue problem:
     a serial algorithm will be used

     Message from routine setup:
     using ibrav=0 with symmetry is DISCOURAGED, use correct ibrav instead
 
     Parallelization info
     --------------------
     sticks:   dense  smooth     PW     G-vecs:    dense   smooth      PW
     Min         133      70     20                26155    10174    1500
     Max         134      71     21                26166    10193    1508
     Sum        3199    1701    485               627869   244447   36105
 


     bravais-lattice index     =            0
     lattice parameter (alat)  =       8.2602  a.u.
     unit-cell volume          =    2529.5303 (a.u.)^3
     number of atoms/cell      =            4
     number of atomic types    =            2
     number of electrons       =        40.00
     number of Kohn-Sham states=           24
     kinetic-energy cutoff     =      80.0000  Ry
     charge density cutoff     =     600.0000  Ry
     convergence threshold     =      1.0E-10
     mixing beta               =       0.7000
     number of iterations used =            8  plain     mixing
     Exchange-correlation= SLA  PW   PBE  PBE
                           (   1   4   3   4   0   0   0)
     nstep                     =          100


     celldm(1)=   8.260231  celldm(2)=   0.000000  celldm(3)=   0.000000
     celldm(4)=   0.000000  celldm(5)=   0.000000  celldm(6)=   0.000000

     crystal axes: (cart. coord. in units of alat)
               a(1) = (   1.000000   0.000000   0.000000 )  
               a(2) = (   0.000000   0.980904   0.000000 )  
               a(3) = (   0.000000   0.000000   4.575480 )  

     reciprocal axes: (cart. coord. in units 2 pi/alat)
               b(1) = (  1.000000  0.000000  0.000000 )  
               b(2) = (  0.000000  1.019467  0.000000 )  
               b(3) = (  0.000000  0.000000  0.218556 )  


     PseudoPot. # 1 for Sn read from file:
     ./Sn_pbe_v1.uspp.F.UPF
     MD5 check sum: 4cf58ce39ec5d5d420df3dd08604eb00
     Pseudo is Ultrasoft + core correction, Zval = 14.0
     Generated by new atomic code, or converted to UPF format
     Using radial grid of  891 points,  6 beta functions with: 
                l(1) =   0
                l(2) =   0
                l(3) =   1
                l(4) =   1
                l(5) =   2
                l(6) =   2
     Q(r) pseudized with  6 coefficients,  rinner =    1.200   1.200   1.200
                                                       1.200   1.200

     PseudoPot. # 2 for Se read from file:
     ./Se_pbe_v1.uspp.F.UPF
     MD5 check sum: 1b3568f3a8ae88f9a2a0ad0698632c85
     Pseudo is Ultrasoft + core correction, Zval =  6.0
     Generated by new atomic code, or converted to UPF format
     Using radial grid of  877 points,  6 beta functions with: 
                l(1) =   0
                l(2) =   0
                l(3) =   1
                l(4) =   1
                l(5) =   2
                l(6) =   2
     Q(r) pseudized with  8 coefficients,  rinner =    1.300   1.300   1.300
                                                       1.300   1.300

     atomic species   valence    mass     pseudopotential
        Sn            14.00   118.71000     Sn( 1.00)
        Se             6.00    78.96000     Se( 1.00)

      2 Sym. Ops. (no inversion) found ( 1 have fractional translation)



   Cartesian axes

     site n.     atom                  positions (alat units)
         1           Sn  tau(   1) = (   0.5839905   0.7356782   0.6614143  )
         2           Sn  tau(   2) = (   0.0839891   0.2452261   0.0301506  )
         3           Se  tau(   3) = (   0.0301155   0.2452261   0.6511789  )
         4           Se  tau(   4) = (   0.5301129   0.7356782   0.0403784  )

     number of k points=    64  Marzari-Vanderbilt smearing, width (Ry)=  0.0100
                       cart. coord. in units 2pi/alat
        k(    1) = (   0.0000000   0.0000000   0.0000000), wk =   0.0088889
        k(    2) = (   0.0000000   0.0679645   0.0000000), wk =   0.0177778
        k(    3) = (   0.0000000   0.1359290   0.0000000), wk =   0.0177778
        k(    4) = (   0.0000000   0.2038935   0.0000000), wk =   0.0177778
        k(    5) = (   0.0000000   0.2718580   0.0000000), wk =   0.0177778
        k(    6) = (   0.0000000   0.3398225   0.0000000), wk =   0.0177778
        k(    7) = (   0.0000000   0.4077870   0.0000000), wk =   0.0177778
        k(    8) = (   0.0000000   0.4757515   0.0000000), wk =   0.0177778
        k(    9) = (   0.0666667   0.0000000   0.0000000), wk =   0.0177778
        k(   10) = (   0.0666667   0.0679645   0.0000000), wk =   0.0355556
        k(   11) = (   0.0666667   0.1359290   0.0000000), wk =   0.0355556
        k(   12) = (   0.0666667   0.2038935   0.0000000), wk =   0.0355556
        k(   13) = (   0.0666667   0.2718580   0.0000000), wk =   0.0355556
        k(   14) = (   0.0666667   0.3398225   0.0000000), wk =   0.0355556
        k(   15) = (   0.0666667   0.4077870   0.0000000), wk =   0.0355556
        k(   16) = (   0.0666667   0.4757515   0.0000000), wk =   0.0355556
        k(   17) = (   0.1333333   0.0000000   0.0000000), wk =   0.0177778
        k(   18) = (   0.1333333   0.0679645   0.0000000), wk =   0.0355556
        k(   19) = (   0.1333333   0.1359290   0.0000000), wk =   0.0355556
        k(   20) = (   0.1333333   0.2038935   0.0000000), wk =   0.0355556
        k(   21) = (   0.1333333   0.2718580   0.0000000), wk =   0.0355556
        k(   22) = (   0.1333333   0.3398225   0.0000000), wk =   0.0355556
        k(   23) = (   0.1333333   0.4077870   0.0000000), wk =   0.0355556
        k(   24) = (   0.1333333   0.4757515   0.0000000), wk =   0.0355556
        k(   25) = (   0.2000000   0.0000000   0.0000000), wk =   0.0177778
        k(   26) = (   0.2000000   0.0679645   0.0000000), wk =   0.0355556
        k(   27) = (   0.2000000   0.1359290   0.0000000), wk =   0.0355556
        k(   28) = (   0.2000000   0.2038935   0.0000000), wk =   0.0355556
        k(   29) = (   0.2000000   0.2718580   0.0000000), wk =   0.0355556
        k(   30) = (   0.2000000   0.3398225   0.0000000), wk =   0.0355556
        k(   31) = (   0.2000000   0.4077870   0.0000000), wk =   0.0355556
        k(   32) = (   0.2000000   0.4757515   0.0000000), wk =   0.0355556
        k(   33) = (   0.2666667   0.0000000   0.0000000), wk =   0.0177778
        k(   34) = (   0.2666667   0.0679645   0.0000000), wk =   0.0355556
        k(   35) = (   0.2666667   0.1359290   0.0000000), wk =   0.0355556
        k(   36) = (   0.2666667   0.2038935   0.0000000), wk =   0.0355556
        k(   37) = (   0.2666667   0.2718580   0.0000000), wk =   0.0355556
        k(   38) = (   0.2666667   0.3398225   0.0000000), wk =   0.0355556
        k(   39) = (   0.2666667   0.4077870   0.0000000), wk =   0.0355556
        k(   40) = (   0.2666667   0.4757515   0.0000000), wk =   0.0355556
        k(   41) = (   0.3333333   0.0000000   0.0000000), wk =   0.0177778
        k(   42) = (   0.3333333   0.0679645   0.0000000), wk =   0.0355556
        k(   43) = (   0.3333333   0.1359290   0.0000000), wk =   0.0355556
        k(   44) = (   0.3333333   0.2038935   0.0000000), wk =   0.0355556
        k(   45) = (   0.3333333   0.2718580   0.0000000), wk =   0.0355556
        k(   46) = (   0.3333333   0.3398225   0.0000000), wk =   0.0355556
        k(   47) = (   0.3333333   0.4077870   0.0000000), wk =   0.0355556
        k(   48) = (   0.3333333   0.4757515   0.0000000), wk =   0.0355556
        k(   49) = (   0.4000000   0.0000000   0.0000000), wk =   0.0177778
        k(   50) = (   0.4000000   0.0679645   0.0000000), wk =   0.0355556
        k(   51) = (   0.4000000   0.1359290   0.0000000), wk =   0.0355556
        k(   52) = (   0.4000000   0.2038935   0.0000000), wk =   0.0355556
        k(   53) = (   0.4000000   0.2718580   0.0000000), wk =   0.0355556
        k(   54) = (   0.4000000   0.3398225   0.0000000), wk =   0.0355556
        k(   55) = (   0.4000000   0.4077870   0.0000000), wk =   0.0355556
        k(   56) = (   0.4000000   0.4757515   0.0000000), wk =   0.0355556
        k(   57) = (   0.4666667   0.0000000   0.0000000), wk =   0.0177778
        k(   58) = (   0.4666667   0.0679645   0.0000000), wk =   0.0355556
        k(   59) = (   0.4666667   0.1359290   0.0000000), wk =   0.0355556
        k(   60) = (   0.4666667   0.2038935   0.0000000), wk =   0.0355556
        k(   61) = (   0.4666667   0.2718580   0.0000000), wk =   0.0355556
        k(   62) = (   0.4666667   0.3398225   0.0000000), wk =   0.0355556
        k(   63) = (   0.4666667   0.4077870   0.0000000), wk =   0.0355556
        k(   64) = (   0.4666667   0.4757515   0.0000000), wk =   0.0355556

     Dense  grid:   627869 G-vectors     FFT dimensions: (  72,  64, 300)

     Smooth grid:   244447 G-vectors     FFT dimensions: (  48,  48, 216)

     Estimated max dynamical RAM per process >     127.36 MB

     Estimated total dynamical RAM >       2.98 GB

     Initial potential from superposition of free atoms

     starting charge   37.99977, renormalised to   40.00000

     negative rho (up, down):  2.817E-03 0.000E+00
     Starting wfcs are   26 randomized atomic wfcs

     total cpu time spent up to now is        2.8 secs

     Self-consistent Calculation

     iteration #  1     ecut=    80.00 Ry     beta= 0.70
     Davidson diagonalization with overlap
     ethr =  1.00E-02,  avg # of iterations =  3.8

     negative rho (up, down):  5.574E-04 0.000E+00

     total cpu time spent up to now is        7.9 secs

     total energy              =    -413.24304120 Ry
     estimated scf accuracy    <       1.34413322 Ry

     iteration #  2     ecut=    80.00 Ry     beta= 0.70
     Davidson diagonalization with overlap
     ethr =  3.36E-03,  avg # of iterations =  2.2

     negative rho (up, down):  1.105E-04 0.000E+00

     total cpu time spent up to now is       12.9 secs

     total energy              =    -413.64028282 Ry
     estimated scf accuracy    <       0.65847354 Ry

     iteration #  3     ecut=    80.00 Ry     beta= 0.70
     Davidson diagonalization with overlap
     ethr =  1.65E-03,  avg # of iterations =  2.0

     negative rho (up, down):  2.448E-05 0.000E+00

     total cpu time spent up to now is       17.0 secs

     total energy              =    -413.79951589 Ry
     estimated scf accuracy    <       0.02317646 Ry

     iteration #  4     ecut=    80.00 Ry     beta= 0.70
     Davidson diagonalization with overlap
     ethr =  5.79E-05,  avg # of iterations =  3.0

     negative rho (up, down):  2.369E-05 0.000E+00

     total cpu time spent up to now is       21.4 secs

     total energy              =    -413.80345937 Ry
     estimated scf accuracy    <       0.00096543 Ry

     iteration #  5     ecut=    80.00 Ry     beta= 0.70
     Davidson diagonalization with overlap
     ethr =  2.41E-06,  avg # of iterations =  6.5

     negative rho (up, down):  2.805E-05 0.000E+00

     total cpu time spent up to now is       27.0 secs

     total energy              =    -413.80364160 Ry
     estimated scf accuracy    <       0.00067985 Ry

     iteration #  6     ecut=    80.00 Ry     beta= 0.70
     Davidson diagonalization with overlap
     ethr =  1.70E-06,  avg # of iterations =  2.6

     negative rho (up, down):  2.810E-05 0.000E+00

     total cpu time spent up to now is       31.3 secs

     total energy              =    -413.80374070 Ry
     estimated scf accuracy    <       0.00011561 Ry

     iteration #  7     ecut=    80.00 Ry     beta= 0.70
     Davidson diagonalization with overlap
     ethr =  2.89E-07,  avg # of iterations =  2.7

     negative rho (up, down):  2.790E-05 0.000E+00

     total cpu time spent up to now is       35.5 secs

     total energy              =    -413.80375063 Ry
     estimated scf accuracy    <       0.00006111 Ry

     iteration #  8     ecut=    80.00 Ry     beta= 0.70
     Davidson diagonalization with overlap
     ethr =  1.53E-07,  avg # of iterations =  2.1

     negative rho (up, down):  2.816E-05 0.000E+00

     total cpu time spent up to now is       39.6 secs

     total energy              =    -413.80376067 Ry
     estimated scf accuracy    <       0.00000019 Ry

     iteration #  9     ecut=    80.00 Ry     beta= 0.70
     Davidson diagonalization with overlap
     ethr =  4.67E-10,  avg # of iterations =  9.7

     negative rho (up, down):  2.834E-05 0.000E+00

     total cpu time spent up to now is       49.8 secs

     total energy              =    -413.80376286 Ry
     estimated scf accuracy    <       0.00000029 Ry

     iteration # 10     ecut=    80.00 Ry     beta= 0.70
     Davidson diagonalization with overlap
     ethr =  4.67E-10,  avg # of iterations =  2.0

     negative rho (up, down):  2.834E-05 0.000E+00

     total cpu time spent up to now is       53.9 secs

     total energy              =    -413.80376292 Ry
     estimated scf accuracy    <          2.2E-09 Ry

     iteration # 11     ecut=    80.00 Ry     beta= 0.70
     Davidson diagonalization with overlap
     ethr =  5.44E-12,  avg # of iterations =  4.5

     negative rho (up, down):  2.834E-05 0.000E+00

     total cpu time spent up to now is       59.4 secs

     total energy              =    -413.80376292 Ry
     estimated scf accuracy    <          3.9E-10 Ry

     iteration # 12     ecut=    80.00 Ry     beta= 0.70
     Davidson diagonalization with overlap
     ethr =  9.74E-13,  avg # of iterations =  2.4

     negative rho (up, down):  2.834E-05 0.000E+00

     total cpu time spent up to now is       63.6 secs

     End of self-consistent calculation

          k = 0.0000 0.0000 0.0000 ( 30611 PWs)   bands (ev):

   -22.1631 -22.1551 -22.1551 -22.1512 -22.1485 -22.1262 -22.1210 -22.1189
   -22.1086 -22.1058 -14.2266 -13.1930  -7.1377  -6.1217  -4.3387  -3.9415
    -3.9367  -2.7552  -2.7015  -1.4674   0.6349   2.4119   2.8900   3.0660

          k = 0.0000 0.0680 0.0000 ( 30599 PWs)   bands (ev):

   -22.1626 -22.1554 -22.1547 -22.1513 -22.1484 -22.1263 -22.1210 -22.1187
   -22.1089 -22.1058 -14.2067 -13.1889  -7.2073  -6.2029  -4.3428  -3.9397
    -3.8520  -2.7387  -2.5956  -1.4809   0.6461   2.4912   2.8803   2.9212

          k = 0.0000 0.1359 0.0000 ( 30639 PWs)   bands (ev):

   -22.1611 -22.1563 -22.1536 -22.1520 -22.1477 -22.1267 -22.1210 -22.1179
   -22.1097 -22.1059 -14.1479 -13.1789  -7.3907  -6.4289  -4.3248  -3.8633
    -3.6861  -2.6800  -2.3337  -1.5264   0.6864   2.4035   2.6608   2.6641

          k = 0.0000 0.2039 0.0000 ( 30639 PWs)   bands (ev):

   -22.1592 -22.1575 -22.1530 -22.1522 -22.1462 -22.1273 -22.1209 -22.1167
   -22.1109 -22.1060 -14.0536 -13.1697  -7.6301  -6.7520  -4.2477  -3.7228
    -3.4669  -2.5921  -1.9867  -1.6107   0.7711   1.7595   2.2036   2.6696

          k = 0.0000 0.2719 0.0000 ( 30563 PWs)   bands (ev):

   -22.1589 -22.1581 -22.1534 -22.1507 -22.1440 -22.1282 -22.1206 -22.1152
   -22.1124 -22.1063 -13.9296 -13.1719  -7.8649  -7.1140  -4.1060  -3.5310
    -3.2305  -2.4985  -1.7202  -1.6033   0.9157   1.1115   1.7240   2.3394

          k = 0.0000 0.3398 0.0000 ( 30563 PWs)   bands (ev):

   -22.1602 -22.1588 -22.1522 -22.1495 -22.1413 -22.1294 -22.1201 -22.1140
   -22.1135 -22.1068 -13.7847 -13.1975  -8.0455  -7.4653  -3.9103  -3.3076
    -3.0353  -2.4347  -1.7914  -1.2258   0.5289   1.1235   1.3366   1.8304

          k = 0.0000 0.4078 0.0000 ( 30519 PWs)   bands (ev):

   -22.1610 -22.1600 -22.1507 -22.1488 -22.1385 -22.1311 -22.1193 -22.1156
   -22.1117 -22.1076 -13.6306 -13.2566  -8.1369  -7.7682  -3.6770  -3.1294
    -2.9256  -2.4437  -1.7092  -0.9764   0.1544   1.1183   1.2035   1.4588

          k = 0.0000 0.4758 0.0000 ( 30456 PWs)   bands (ev):

   -22.1613 -22.1610 -22.1495 -22.1488 -22.1357 -22.1332 -22.1183 -22.1170
   -22.1101 -22.1087 -13.4817 -13.3530  -8.1204  -7.9937  -3.4292  -3.2090
    -2.7403  -2.5515  -1.4418  -1.1077   0.2608   0.6952   1.1105   1.3045

          k = 0.0667 0.0000 0.0000 ( 30615 PWs)   bands (ev):

   -22.1629 -22.1553 -22.1549 -22.1505 -22.1489 -22.1263 -22.1208 -22.1189
   -22.1087 -22.1060 -14.2082 -13.1913  -7.2072  -6.2052  -4.3378  -3.9107
    -3.8671  -2.7343  -2.5924  -1.4862   0.6474   2.4631   2.7730   3.0011

          k = 0.0667 0.0680 0.0000 ( 30603 PWs)   bands (ev):

   -22.1624 -22.1556 -22.1545 -22.1510 -22.1484 -22.1264 -22.1209 -22.1186
   -22.1090 -22.1060 -14.1884 -13.1871  -7.2655  -6.2769  -4.3344  -4.0475
    -3.6557  -2.8231  -2.4015  -1.4968   0.6606   2.5212   2.5325   2.9827

          k = 0.0667 0.1359 0.0000 ( 30606 PWs)   bands (ev):

   -22.1609 -22.1565 -22.1535 -22.1521 -22.1473 -22.1267 -22.1210 -22.1177
   -22.1099 -22.1060 -14.1300 -13.1768  -7.4235  -6.4798  -4.3063  -4.1049
    -3.3855  -2.8551  -2.0953  -1.5321   0.7052   1.9690   2.6400   2.9335

          k = 0.0667 0.2039 0.0000 ( 30582 PWs)   bands (ev):

   -22.1592 -22.1578 -22.1532 -22.1520 -22.1457 -22.1273 -22.1209 -22.1165
   -22.1111 -22.1061 -14.0363 -13.1671  -7.6376  -6.7774  -4.2268  -4.0590
    -3.1135  -2.8049  -1.7744  -1.5941   0.7936   1.3781   2.4066   2.5685

          k = 0.0667 0.2719 0.0000 ( 30580 PWs)   bands (ev):

   -22.1593 -22.1584 -22.1534 -22.1505 -22.1435 -22.1282 -22.1207 -22.1150
   -22.1126 -22.1063 -13.9133 -13.1684  -7.8540  -7.1189  -4.0879  -3.9216
    -2.8861  -2.7096  -1.6590  -1.4956   0.8729   0.9346   1.8759   2.0911

          k = 0.0667 0.3398 0.0000 ( 30551 PWs)   bands (ev):

   -22.1606 -22.1594 -22.1520 -22.1492 -22.1409 -22.1294 -22.1202 -22.1142
   -22.1133 -22.1068 -13.7696 -13.1926  -8.0236  -7.4559  -3.8973  -3.7141
    -2.7767  -2.6258  -1.6555  -1.3167   0.5436   1.0741   1.3949   1.6537

          k = 0.0667 0.4078 0.0000 ( 30509 PWs)   bands (ev):

   -22.1615 -22.1606 -22.1503 -22.1485 -22.1382 -22.1311 -22.1194 -22.1157
   -22.1116 -22.1075 -13.6173 -13.2499  -8.1099  -7.7492  -3.6717  -3.4735
    -2.8248  -2.6295  -1.5322  -1.2535   0.4007   0.7811   1.4005   1.4915

          k = 0.0667 0.4758 0.0000 ( 30495 PWs)   bands (ev):

   -22.1619 -22.1616 -22.1491 -22.1485 -22.1355 -22.1331 -22.1184 -22.1171
   -22.1099 -22.1086 -13.4704 -13.3441  -8.0927  -7.9688  -3.4431  -3.3204
    -2.8890  -2.7577  -1.3648  -1.2650   0.3602   0.4723   1.4585   1.7394

          k = 0.1333 0.0000 0.0000 ( 30591 PWs)   bands (ev):

   -22.1623 -22.1558 -22.1545 -22.1499 -22.1486 -22.1263 -22.1202 -22.1187
   -22.1090 -22.1067 -14.1541 -13.1883  -7.3875  -6.4336  -4.3101  -3.8195
    -3.6814  -2.6749  -2.3103  -1.5454   0.6915   2.2980   2.5607   2.8017

          k = 0.1333 0.0680 0.0000 ( 30602 PWs)   bands (ev):

   -22.1618 -22.1562 -22.1541 -22.1510 -22.1475 -22.1264 -22.1205 -22.1182
   -22.1093 -22.1066 -14.1346 -13.1839  -7.4207  -6.4825  -4.2955  -4.0863
    -3.3692  -2.8524  -2.0774  -1.5455   0.7092   1.9472   2.5704   2.9786

          k = 0.1333 0.1359 0.0000 ( 30586 PWs)   bands (ev):

   -22.1605 -22.1572 -22.1529 -22.1525 -22.1459 -22.1268 -22.1208 -22.1172
   -22.1103 -22.1064 -14.0772 -13.1727  -7.5173  -6.6275  -4.3155  -4.2495
    -3.0379  -3.0113  -1.7479  -1.5435   0.7638   1.4129   2.3788   3.0774

          k = 0.1333 0.2039 0.0000 ( 30582 PWs)   bands (ev):

   -22.1593 -22.1587 -22.1536 -22.1514 -22.1441 -22.1273 -22.1210 -22.1159
   -22.1117 -22.1063 -13.9854 -13.1612  -7.6628  -6.8561  -4.4180  -4.1656
    -3.1085  -2.7303  -1.5273  -1.5251   0.8549   0.9869   1.8622   2.9495

          k = 0.1333 0.2719 0.0000 ( 30568 PWs)   bands (ev):

   -22.1603 -22.1595 -22.1529 -22.1498 -22.1420 -22.1282 -22.1209 -22.1144
   -22.1131 -22.1064 -13.8652 -13.1596  -7.8248  -7.1377  -4.3873  -4.0368
    -3.0792  -2.5977  -1.5268  -1.4618   0.8192   0.9287   1.3840   2.5899

          k = 0.1333 0.3398 0.0000 ( 30539 PWs)   bands (ev):

   -22.1618 -22.1609 -22.1512 -22.1485 -22.1396 -22.1294 -22.1204 -22.1146
   -22.1127 -22.1067 -13.7257 -13.1796  -7.9603  -7.4306  -4.2400  -3.8640
    -3.0162  -2.6384  -1.7002  -1.3736   0.7177   0.8990   1.3687   2.1860

          k = 0.1333 0.4078 0.0000 ( 30507 PWs)   bands (ev):

   -22.1629 -22.1623 -22.1494 -22.1477 -22.1373 -22.1310 -22.1197 -22.1161
   -22.1111 -22.1074 -13.5786 -13.2312  -8.0305  -7.6943  -4.0046  -3.6674
    -3.0351  -2.8003  -1.8176  -1.3730   0.5352   0.9927   1.6144   1.9385

          k = 0.1333 0.4758 0.0000 ( 30511 PWs)   bands (ev):

   -22.1634 -22.1632 -22.1482 -22.1476 -22.1350 -22.1328 -22.1186 -22.1174
   -22.1096 -22.1083 -13.4381 -13.3187  -8.0109  -7.8954  -3.7273  -3.5498
    -3.1283  -3.0082  -1.7276  -1.5244   0.6083   0.8392   1.9159   2.0309

          k = 0.2000 0.0000 0.0000 ( 30611 PWs)   bands (ev):

   -22.1613 -22.1566 -22.1539 -22.1514 -22.1458 -22.1265 -22.1194 -22.1184
   -22.1094 -22.1077 -14.0671 -13.1898  -7.6181  -6.7525  -4.2260  -3.6715
    -3.4291  -2.5882  -1.9329  -1.6456   0.7823   1.6926   2.2833   2.5271

          k = 0.2000 0.0680 0.0000 ( 30598 PWs)   bands (ev):

   -22.1609 -22.1570 -22.1535 -22.1521 -22.1451 -22.1266 -22.1199 -22.1176
   -22.1100 -22.1074 -14.0482 -13.1848  -7.6263  -6.7769  -4.2066  -4.0248
    -3.0725  -2.8060  -1.7226  -1.6218   0.8043   1.3554   2.3301   2.6004

          k = 0.2000 0.1359 0.0000 ( 30585 PWs)   bands (ev):

   -22.1600 -22.1582 -22.1534 -22.1523 -22.1435 -22.1269 -22.1206 -22.1164
   -22.1111 -22.1070 -13.9927 -13.1719  -7.6548  -6.8540  -4.4025  -4.1512
    -3.1180  -2.7079  -1.5347  -1.4885   0.8637   0.9776   1.8414   2.9682

          k = 0.2000 0.2039 0.0000 ( 30555 PWs)   bands (ev):

   -22.1599 -22.1598 -22.1537 -22.1507 -22.1417 -22.1275 -22.1210 -22.1150
   -22.1125 -22.1067 -13.9042 -13.1572  -7.7097  -6.9901  -4.6589  -4.0683
    -3.3264  -2.5208  -1.5441  -1.3739   0.8956   0.9155   1.3857   3.0847

          k = 0.2000 0.2719 0.0000 ( 30550 PWs)   bands (ev):

   -22.1618 -22.1612 -22.1521 -22.1490 -22.1398 -22.1283 -22.1210 -22.1139
   -22.1135 -22.1066 -13.7891 -13.1505  -7.7871  -7.1799  -4.7606  -3.9640
    -3.4003  -2.5190  -1.8690  -1.2425   0.7062   1.1629   1.3509   2.8767

          k = 0.2000 0.3398 0.0000 ( 30554 PWs)   bands (ev):

   -22.1636 -22.1630 -22.1501 -22.1475 -22.1379 -22.1294 -22.1206 -22.1153
   -22.1119 -22.1067 -13.6565 -13.1631  -7.8634  -7.3987  -4.7070  -3.8339
    -3.4053  -2.6437  -2.2279  -1.3155   0.6221   1.5212   1.5609   2.5537

          k = 0.2000 0.4078 0.0000 ( 30525 PWs)   bands (ev):

   -22.1649 -22.1645 -22.1482 -22.1466 -22.1360 -22.1308 -22.1199 -22.1165
   -22.1104 -22.1072 -13.5185 -13.2050  -7.9036  -7.6099  -4.5211  -3.7257
    -3.4518  -2.8462  -2.3765  -1.5969   0.7972   1.7173   1.8447   2.3508

          k = 0.2000 0.4758 0.0000 ( 30487 PWs)   bands (ev):

   -22.1656 -22.1655 -22.1470 -22.1464 -22.1341 -22.1324 -22.1189 -22.1178
   -22.1090 -22.1079 -13.3889 -13.2812  -7.8788  -7.7781  -4.2386  -3.9160
    -3.3272  -3.0882  -2.2380  -1.9420   1.1154   1.4762   2.1518   2.3746

          k = 0.2667 0.0000 0.0000 ( 30612 PWs)   bands (ev):

   -22.1601 -22.1574 -22.1535 -22.1531 -22.1423 -22.1268 -22.1183 -22.1178
   -22.1101 -22.1090 -13.9526 -13.2044  -7.8393  -7.1035  -4.0819  -3.4735
    -3.1673  -2.4957  -1.7636  -1.5160   0.9334   1.0696   1.7905   2.2297

          k = 0.2667 0.0680 0.0000 ( 30603 PWs)   bands (ev):

   -22.1598 -22.1579 -22.1536 -22.1531 -22.1418 -22.1269 -22.1192 -22.1168
   -22.1109 -22.1084 -13.9346 -13.1985  -7.8292  -7.1080  -4.0627  -3.8773
    -2.8294  -2.7218  -1.6873  -1.3964   0.8453   0.9556   1.8291   2.1322

          k = 0.2667 0.1359 0.0000 ( 30573 PWs)   bands (ev):

   -22.1596 -22.1593 -22.1542 -22.1518 -22.1405 -22.1272 -22.1201 -22.1154
   -22.1121 -22.1077 -13.8819 -13.1828  -7.8033  -7.1263  -4.3637  -4.0093
    -3.1146  -2.5696  -1.4553  -1.4321   0.8009   0.9578   1.3504   2.6150

          k = 0.2667 0.2039 0.0000 ( 30547 PWs)   bands (ev):

   -22.1613 -22.1608 -22.1532 -22.1500 -22.1389 -22.1277 -22.1207 -22.1140
   -22.1135 -22.1072 -13.7984 -13.1631  -7.7733  -7.1712  -4.7541  -3.9392
    -3.4414  -2.5118  -1.8143  -1.2247   0.7154   1.1614   1.3431   2.8911

          k = 0.2667 0.2719 0.0000 ( 30564 PWs)   bands (ev):

   -22.1635 -22.1630 -22.1511 -22.1482 -22.1373 -22.1284 -22.1209 -22.1148
   -22.1125 -22.1069 -13.6907 -13.1486  -7.7532  -7.2543  -4.9960  -3.8932
    -3.6167  -2.5827  -2.3065  -1.2761   0.6716   1.5660   1.6946   2.8592

          k = 0.2667 0.3398 0.0000 ( 30556 PWs)   bands (ev):

   -22.1656 -22.1653 -22.1489 -22.1466 -22.1358 -22.1294 -22.1206 -22.1159
   -22.1111 -22.1068 -13.5684 -13.1503  -7.7472  -7.3736  -5.0626  -3.8646
    -3.7183  -2.7458  -2.6753  -1.5919   0.9101   1.8726   2.2254   2.6628

          k = 0.2667 0.4078 0.0000 ( 30543 PWs)   bands (ev):

   -22.1672 -22.1670 -22.1470 -22.1455 -22.1345 -22.1306 -22.1200 -22.1170
   -22.1097 -22.1070 -13.4435 -13.1783  -7.7398  -7.5076  -4.9582  -4.0008
    -3.7352  -2.9832  -2.7404  -1.9671   1.2477   2.2247   2.2982   2.7312

          k = 0.2667 0.4758 0.0000 ( 30522 PWs)   bands (ev):

   -22.1681 -22.1680 -22.1457 -22.1452 -22.1332 -22.1319 -22.1190 -22.1180
   -22.1085 -22.1076 -13.3294 -13.2384  -7.7047  -7.6257  -4.7127  -4.3700
    -3.5306  -3.2619  -2.5761  -2.3049   1.6067   1.9660   2.5726   2.8188

          k = 0.3333 0.0000 0.0000 ( 30578 PWs)   bands (ev):

   -22.1586 -22.1580 -22.1549 -22.1535 -22.1387 -22.1275 -22.1171 -22.1171
   -22.1110 -22.1104 -13.8182 -13.2417  -8.0054  -7.4402  -3.8867  -3.2373
    -2.9818  -2.4317  -1.8188  -1.1059   0.4984   1.1506   1.4036   1.7604

          k = 0.3333 0.0680 0.0000 ( 30598 PWs)   bands (ev):

   -22.1587 -22.1586 -22.1550 -22.1529 -22.1383 -22.1275 -22.1183 -22.1157
   -22.1120 -22.1095 -13.8015 -13.2345  -7.9842  -7.4306  -3.8704  -3.6647
    -2.7365  -2.6530  -1.6496  -1.1648   0.4995   1.1278   1.3384   1.7159

          k = 0.3333 0.1359 0.0000 ( 30568 PWs)   bands (ev):

   -22.1603 -22.1598 -22.1543 -22.1515 -22.1373 -22.1277 -22.1194 -22.1143
   -22.1133 -22.1086 -13.7527 -13.2147  -7.9236  -7.4053  -4.2165  -3.8269
    -3.0913  -2.6244  -1.5486  -1.3234   0.7353   0.8741   1.3500   2.2285

          k = 0.3333 0.2039 0.0000 ( 30568 PWs)   bands (ev):

   -22.1626 -22.1621 -22.1525 -22.1497 -22.1361 -22.1281 -22.1202 -22.1146
   -22.1129 -22.1078 -13.6760 -13.1878  -7.8328  -7.3758  -4.7046  -3.7819
    -3.5112  -2.6368  -2.1136  -1.2691   0.6364   1.5258   1.5562   2.5707

          k = 0.3333 0.2719 0.0000 ( 30547 PWs)   bands (ev):

   -22.1651 -22.1648 -22.1501 -22.1477 -22.1349 -22.1287 -22.1205 -22.1157
   -22.1115 -22.1073 -13.5784 -13.1626  -7.7284  -7.3585  -5.0697  -3.8870
    -3.7286  -2.7384  -2.6217  -1.5745   0.9236   1.8757   2.2412   2.6696

          k = 0.3333 0.3398 0.0000 ( 30565 PWs)   bands (ev):

   -22.1675 -22.1674 -22.1478 -22.1459 -22.1338 -22.1295 -22.1203 -22.1166
   -22.1102 -22.1070 -13.4698 -13.1498  -7.6323  -7.3675  -5.2677  -4.0839
    -3.8982  -2.9437  -2.8680  -1.9482   1.2936   2.2930   2.6047   2.9246

          k = 0.3333 0.4078 0.0000 ( 30565 PWs)   bands (ev):

   -22.1694 -22.1693 -22.1460 -22.1448 -22.1330 -22.1304 -22.1198 -22.1174
   -22.1090 -22.1070 -13.3622 -13.1596  -7.5597  -7.4040  -5.2743  -4.3939
    -3.9767  -3.2444  -2.8355  -2.2498   1.6340   2.4485   2.7392   3.4003

          k = 0.3333 0.4758 0.0000 ( 30552 PWs)   bands (ev):

   -22.1704 -22.1703 -22.1448 -22.1444 -22.1322 -22.1313 -22.1190 -22.1182
   -22.1080 -22.1073 -13.2683 -13.1988  -7.5055  -7.4545  -5.0994  -4.7845
    -3.8348  -3.5688  -2.6839  -2.4858   1.9415   2.2176   3.1340   3.4055

          k = 0.4000 0.0000 0.0000 ( 30536 PWs)   bands (ev):

   -22.1583 -22.1571 -22.1564 -22.1538 -22.1353 -22.1285 -22.1160 -22.1158
   -22.1120 -22.1119 -13.6743 -13.3090  -8.0860  -7.7287  -3.6535  -2.9840
    -2.9819  -2.4380  -1.6875  -0.8360   0.1290   1.1867   1.2316   1.4352

          k = 0.4000 0.0680 0.0000 ( 30556 PWs)   bands (ev):

   -22.1591 -22.1583 -22.1555 -22.1532 -22.1350 -22.1285 -22.1172 -22.1145
   -22.1133 -22.1107 -13.6592 -13.3000  -8.0595  -7.7095  -3.6429  -3.4192
    -2.8252  -2.6662  -1.4694  -1.0723   0.3462   0.7985   1.4743   1.4798

          k = 0.4000 0.1359 0.0000 ( 30577 PWs)   bands (ev):

   -22.1610 -22.1604 -22.1538 -22.1517 -22.1343 -22.1286 -22.1184 -22.1146
   -22.1131 -22.1096 -13.6154 -13.2748  -7.9817  -7.6546  -3.9876  -3.6209
    -3.1400  -2.8027  -1.6344  -1.2748   0.5405   0.9633   1.6013   1.9927

          k = 0.4000 0.2039 0.0000 ( 30587 PWs)   bands (ev):

   -22.1635 -22.1632 -22.1516 -22.1497 -22.1335 -22.1287 -22.1193 -22.1157
   -22.1118 -22.1086 -13.5473 -13.2387  -7.8588  -7.5719  -4.5322  -3.7147
    -3.5342  -2.8378  -2.2354  -1.5282   0.8222   1.7340   1.8407   2.3547

          k = 0.4000 0.2719 0.0000 ( 30579 PWs)   bands (ev):

   -22.1664 -22.1662 -22.1492 -22.1475 -22.1327 -22.1291 -22.1197 -22.1167
   -22.1105 -22.1079 -13.4625 -13.2000  -7.7032  -7.4756  -4.9839  -4.1190
    -3.6486  -2.9597  -2.6807  -1.9414   1.2743   2.2361   2.3294   2.7434

          k = 0.4000 0.3398 0.0000 ( 30566 PWs)   bands (ev):

   -22.1690 -22.1689 -22.1470 -22.1457 -22.1321 -22.1297 -22.1197 -22.1173
   -22.1093 -22.1074 -13.3710 -13.1693  -7.5382  -7.3849  -5.2966  -4.4781
    -3.8946  -3.2217  -2.8283  -2.2480   1.6462   2.4588   2.7540   3.4542

          k = 0.4000 0.4078 0.0000 ( 30597 PWs)   bands (ev):

   -22.1711 -22.1710 -22.1452 -22.1444 -22.1317 -22.1303 -22.1193 -22.1178
   -22.1083 -22.1071 -13.2846 -13.1570  -7.3985  -7.3194  -5.4296  -4.8091
    -4.1015  -3.5743  -2.7838  -2.4269   1.9389   2.4463   3.2474   3.8729

          k = 0.4000 0.4758 0.0000 ( 30572 PWs)   bands (ev):

   -22.1722 -22.1721 -22.1441 -22.1439 -22.1313 -22.1309 -22.1188 -22.1183
   -22.1076 -22.1072 -13.2150 -13.1713  -7.3151  -7.2928  -5.3637  -5.1304
    -4.0947  -3.8954  -2.6781  -2.5576   2.1735   2.3463   3.6145   3.8450

          k = 0.4667 0.0000 0.0000 ( 30562 PWs)   bands (ev):

   -22.1582 -22.1575 -22.1558 -22.1546 -22.1324 -22.1301 -22.1148 -22.1145
   -22.1134 -22.1132 -13.5332 -13.4079  -8.0658  -7.9433  -3.4004  -3.1572
    -2.7369  -2.5429  -1.3747  -1.0033   0.2734   0.7168   1.1783   1.3730

          k = 0.4667 0.0680 0.0000 ( 30566 PWs)   bands (ev):

   -22.1591 -22.1587 -22.1548 -22.1539 -22.1322 -22.1300 -22.1160 -22.1146
   -22.1132 -22.1119 -13.5200 -13.3968  -8.0383  -7.9184  -3.4046  -3.2570
    -2.9285  -2.7943  -1.2481  -1.1015   0.3269   0.4701   1.5285   1.7256

          k = 0.4667 0.1359 0.0000 ( 30570 PWs)   bands (ev):

   -22.1612 -22.1610 -22.1530 -22.1522 -22.1318 -22.1299 -22.1172 -22.1159
   -22.1119 -22.1107 -13.4822 -13.3654  -7.9573  -7.8453  -3.7161  -3.5087
    -3.2097  -3.0303  -1.5594  -1.3881   0.6072   0.8261   1.8908   2.0310

          k = 0.4667 0.2039 0.0000 ( 30581 PWs)   bands (ev):

   -22.1640 -22.1639 -22.1507 -22.1501 -22.1314 -22.1298 -22.1182 -22.1170
   -22.1106 -22.1096 -13.4244 -13.3186  -7.8274  -7.7294  -4.2703  -3.9669
    -3.3226  -3.0768  -2.1201  -1.8518   1.1473   1.5065   2.1404   2.3502

          k = 0.4667 0.2719 0.0000 ( 30582 PWs)   bands (ev):

   -22.1670 -22.1670 -22.1484 -22.1478 -22.1310 -22.1299 -22.1188 -22.1177
   -22.1095 -22.1086 -13.3544 -13.2646  -7.6585  -7.5816  -4.7649  -4.4547
    -3.4596  -3.2149  -2.5341  -2.2737   1.6396   1.9990   2.5894   2.8353

          k = 0.4667 0.3398 0.0000 ( 30558 PWs)   bands (ev):

   -22.1698 -22.1698 -22.1463 -22.1458 -22.1309 -22.1301 -22.1189 -22.1181
   -22.1085 -22.1079 -13.2825 -13.2135  -7.4702  -7.4207  -5.1504  -4.8605
    -3.7583  -3.5171  -2.6820  -2.4860   1.9601   2.2354   3.1617   3.4461

          k = 0.4667 0.4078 0.0000 ( 30584 PWs)   bands (ev):

   -22.1720 -22.1719 -22.1447 -22.1444 -22.1309 -22.1304 -22.1188 -22.1183
   -22.1078 -22.1073 -13.2202 -13.1766  -7.2977  -7.2761  -5.3922  -5.1677
    -4.0598  -3.8698  -2.6803  -2.5602   2.1811   2.3539   3.6153   3.8403

          k = 0.4667 0.4758 0.0000 ( 30564 PWs)   bands (ev):

   -22.1732 -22.1731 -22.1438 -22.1437 -22.1308 -22.1307 -22.1185 -22.1184
   -22.1073 -22.1071 -13.1781 -13.1632  -7.1912  -7.1870  -5.4647  -5.3761
    -4.2019  -4.1275  -2.6404  -2.5997   2.3249   2.3837   3.8382   3.9550

     the Fermi energy is    -0.7741 ev

!    total energy              =    -413.80376292 Ry
     estimated scf accuracy    <          1.2E-11 Ry
     smearing contrib. (-TS)   =       0.00009296 Ry
     internal energy E=F+TS    =    -413.80385588 Ry

     The total energy is F=E-TS. E is the sum of the following terms:
     one-electron contribution =   -1191.60136470 Ry
     hartree contribution      =     608.02769872 Ry
     xc contribution           =    -154.42407176 Ry
     ewald contribution        =     324.19388186 Ry

     convergence has been achieved in  12 iterations

     negative rho (up, down):  2.834E-05 0.000E+00

     Forces acting on atoms (cartesian axes, Ry/au):

     atom    1 type  1   force =    -0.00116666    0.00000000    0.00077066
     atom    2 type  1   force =    -0.00116482    0.00000000   -0.00078602
     atom    3 type  2   force =     0.00116490    0.00000000    0.00049154
     atom    4 type  2   force =     0.00116657    0.00000000   -0.00047618

     Total force =     0.002668     Total SCF correction =     0.000014

     BFGS Geometry Optimization

     number of scf cycles    =   1
     number of bfgs steps    =   0

     energy   new            =    -413.8037629169 Ry

     new trust radius        =       0.0014052148 bohr
     new conv_thr            =            1.0E-10 Ry


ATOMIC_POSITIONS (crystal)
Sn            0.5838492516        0.7500000000        0.1445766490
Sn            0.0838480625        0.2500000000        0.0065688083
Se            0.0302565685        0.2500000000        0.1423322522
Se            0.5302540914        0.7500000000        0.0088123445



     Writing output data file ./wfc-out/pwscf.save/
     NEW-OLD atomic charge density approx. for the potential

     negative rho (up, down):  4.605E-05 0.000E+00

     total cpu time spent up to now is       68.1 secs

     Self-consistent Calculation

     iteration #  1     ecut=    80.00 Ry     beta= 0.70
     Davidson diagonalization with overlap
     ethr =  1.00E-06,  avg # of iterations =  2.0

     Threshold (ethr) on eigenvalues was too large:
     Diagonalizing with lowered threshold

     Davidson diagonalization with overlap
     ethr =  4.74E-10,  avg # of iterations =  6.5

     negative rho (up, down):  3.110E-05 0.000E+00

     total cpu time spent up to now is       79.0 secs

     total energy              =    -413.80376970 Ry
     estimated scf accuracy    <       0.00000029 Ry

     iteration #  2     ecut=    80.00 Ry     beta= 0.70
     Davidson diagonalization with overlap
     ethr =  7.29E-10,  avg # of iterations =  2.2

     negative rho (up, down):  2.886E-05 0.000E+00

     total cpu time spent up to now is       83.1 secs

     total energy              =    -413.80376968 Ry
     estimated scf accuracy    <       0.00000020 Ry

     iteration #  3     ecut=    80.00 Ry     beta= 0.70
     Davidson diagonalization with overlap
     ethr =  5.00E-10,  avg # of iterations =  2.0

     negative rho (up, down):  2.847E-05 0.000E+00

     total cpu time spent up to now is       87.2 secs

     total energy              =    -413.80376972 Ry
     estimated scf accuracy    <       0.00000001 Ry

     iteration #  4     ecut=    80.00 Ry     beta= 0.70
     Davidson diagonalization with overlap
     ethr =  2.75E-11,  avg # of iterations =  3.1

     negative rho (up, down):  2.838E-05 0.000E+00

     total cpu time spent up to now is       91.7 secs

     total energy              =    -413.80376972 Ry
     estimated scf accuracy    <          8.6E-09 Ry

     iteration #  5     ecut=    80.00 Ry     beta= 0.70
     Davidson diagonalization with overlap
     ethr =  2.14E-11,  avg # of iterations =  2.5

     negative rho (up, down):  2.835E-05 0.000E+00

     total cpu time spent up to now is       95.7 secs

     total energy              =    -413.80376972 Ry
     estimated scf accuracy    <          4.6E-09 Ry

     iteration #  6     ecut=    80.00 Ry     beta= 0.70
     Davidson diagonalization with overlap
     ethr =  1.16E-11,  avg # of iterations =  2.0

     negative rho (up, down):  2.834E-05 0.000E+00

     total cpu time spent up to now is       99.7 secs

     total energy              =    -413.80376972 Ry
     estimated scf accuracy    <          1.1E-10 Ry

     iteration #  7     ecut=    80.00 Ry     beta= 0.70
     Davidson diagonalization with overlap
     ethr =  2.69E-13,  avg # of iterations =  4.2

     negative rho (up, down):  2.834E-05 0.000E+00

     total cpu time spent up to now is      104.5 secs

     End of self-consistent calculation

          k = 0.0000 0.0000 0.0000 ( 30611 PWs)   bands (ev):

   -22.1632 -22.1552 -22.1552 -22.1513 -22.1486 -22.1264 -22.1212 -22.1192
   -22.1088 -22.1060 -14.2243 -13.1915  -7.1364  -6.1214  -4.3379  -3.9390
    -3.9361  -2.7535  -2.7020  -1.4673   0.6340   2.4166   2.8904   3.0688

          k = 0.0000 0.0680 0.0000 ( 30599 PWs)   bands (ev):

   -22.1627 -22.1555 -22.1548 -22.1514 -22.1485 -22.1265 -22.1212 -22.1189
   -22.1091 -22.1061 -14.2043 -13.1874  -7.2059  -6.2026  -4.3419  -3.9382
    -3.8505  -2.7380  -2.5953  -1.4808   0.6453   2.4959   2.8823   2.9216

          k = 0.0000 0.1359 0.0000 ( 30639 PWs)   bands (ev):

   -22.1612 -22.1564 -22.1538 -22.1521 -22.1479 -22.1268 -22.1212 -22.1181
   -22.1099 -22.1061 -14.1456 -13.1774  -7.3892  -6.4286  -4.3237  -3.8617
    -3.6845  -2.6795  -2.3332  -1.5263   0.6855   2.4041   2.6648   2.6652

          k = 0.0000 0.2039 0.0000 ( 30639 PWs)   bands (ev):

   -22.1593 -22.1576 -22.1531 -22.1524 -22.1464 -22.1274 -22.1211 -22.1169
   -22.1112 -22.1063 -14.0513 -13.1682  -7.6286  -6.7515  -4.2464  -3.7211
    -3.4653  -2.5914  -1.9863  -1.6105   0.7702   1.7597   2.2038   2.6716

          k = 0.0000 0.2719 0.0000 ( 30563 PWs)   bands (ev):

   -22.1590 -22.1582 -22.1536 -22.1509 -22.1441 -22.1283 -22.1208 -22.1154
   -22.1127 -22.1066 -13.9274 -13.1703  -7.8634  -7.1133  -4.1045  -3.5292
    -3.2288  -2.4974  -1.7200  -1.6028   0.9148   1.1114   1.7234   2.3394

          k = 0.0000 0.3398 0.0000 ( 30563 PWs)   bands (ev):

   -22.1603 -22.1589 -22.1524 -22.1497 -22.1415 -22.1296 -22.1203 -22.1143
   -22.1137 -22.1071 -13.7826 -13.1959  -8.0440  -7.4645  -3.9088  -3.3054
    -3.0337  -2.4332  -1.7912  -1.2252   0.5284   1.1226   1.3353   1.8295

          k = 0.0000 0.4078 0.0000 ( 30519 PWs)   bands (ev):

   -22.1611 -22.1601 -22.1508 -22.1490 -22.1386 -22.1313 -22.1195 -22.1158
   -22.1120 -22.1078 -13.6286 -13.2549  -8.1355  -7.7673  -3.6754  -3.1268
    -2.9242  -2.4418  -1.7088  -0.9752   0.1531   1.1165   1.2028   1.4574

          k = 0.0000 0.4758 0.0000 ( 30456 PWs)   bands (ev):

   -22.1614 -22.1610 -22.1496 -22.1490 -22.1358 -22.1334 -22.1185 -22.1172
   -22.1103 -22.1089 -13.4798 -13.3512  -8.1191  -7.9925  -3.4274  -3.2069
    -2.7384  -2.5495  -1.4410  -1.1065   0.2594   0.6940   1.1085   1.3026

          k = 0.0667 0.0000 0.0000 ( 30615 PWs)   bands (ev):

   -22.1630 -22.1554 -22.1551 -22.1506 -22.1490 -22.1264 -22.1210 -22.1191
   -22.1089 -22.1063 -14.2059 -13.1898  -7.2059  -6.2050  -4.3370  -3.9082
    -3.8665  -2.7326  -2.5929  -1.4860   0.6465   2.4679   2.7753   3.0013

          k = 0.0667 0.0680 0.0000 ( 30603 PWs)   bands (ev):

   -22.1625 -22.1557 -22.1547 -22.1511 -22.1485 -22.1265 -22.1211 -22.1188
   -22.1092 -22.1062 -14.1861 -13.1856  -7.2642  -6.2766  -4.3334  -4.0458
    -3.6541  -2.8222  -2.4012  -1.4966   0.6597   2.5227   2.5372   2.9824

          k = 0.0667 0.1359 0.0000 ( 30606 PWs)   bands (ev):

   -22.1610 -22.1566 -22.1536 -22.1522 -22.1474 -22.1268 -22.1212 -22.1179
   -22.1101 -22.1062 -14.1277 -13.1753  -7.4221  -6.4795  -4.3051  -4.1033
    -3.3838  -2.8545  -2.0948  -1.5319   0.7043   1.9695   2.6437   2.9344

          k = 0.0667 0.2039 0.0000 ( 30582 PWs)   bands (ev):

   -22.1593 -22.1579 -22.1533 -22.1522 -22.1458 -22.1274 -22.1212 -22.1167
   -22.1114 -22.1063 -14.0340 -13.1656  -7.6361  -6.7770  -4.2255  -4.0574
    -3.1117  -2.8043  -1.7737  -1.5939   0.7926   1.3779   2.4072   2.5689

          k = 0.0667 0.2719 0.0000 ( 30580 PWs)   bands (ev):

   -22.1594 -22.1585 -22.1535 -22.1507 -22.1436 -22.1283 -22.1209 -22.1152
   -22.1129 -22.1066 -13.9110 -13.1668  -7.8525  -7.1183  -4.0864  -3.9200
    -2.8842  -2.7088  -1.6588  -1.4947   0.8722   0.9337   1.8750   2.0909

          k = 0.0667 0.3398 0.0000 ( 30551 PWs)   bands (ev):

   -22.1607 -22.1594 -22.1521 -22.1494 -22.1410 -22.1296 -22.1204 -22.1144
   -22.1135 -22.1070 -13.7675 -13.1910  -8.0221  -7.4550  -3.8957  -3.7123
    -2.7748  -2.6246  -1.6551  -1.3158   0.5425   1.0733   1.3933   1.6529

          k = 0.0667 0.4078 0.0000 ( 30509 PWs)   bands (ev):

   -22.1616 -22.1607 -22.1505 -22.1487 -22.1383 -22.1312 -22.1196 -22.1159
   -22.1118 -22.1078 -13.6152 -13.2482  -8.1085  -7.7482  -3.6700  -3.4715
    -2.8232  -2.6279  -1.5315  -1.2527   0.3996   0.7797   1.3991   1.4902

          k = 0.0667 0.4758 0.0000 ( 30495 PWs)   bands (ev):

   -22.1620 -22.1616 -22.1493 -22.1487 -22.1356 -22.1333 -22.1186 -22.1173
   -22.1102 -22.1088 -13.4685 -13.3423  -8.0914  -7.9676  -3.4412  -3.3182
    -2.8876  -2.7559  -1.3639  -1.2642   0.3589   0.4708   1.4568   1.7377

          k = 0.1333 0.0000 0.0000 ( 30591 PWs)   bands (ev):

   -22.1624 -22.1559 -22.1546 -22.1500 -22.1487 -22.1265 -22.1204 -22.1189
   -22.1092 -22.1069 -14.1517 -13.1868  -7.3864  -6.4335  -4.3093  -3.8170
    -3.6806  -2.6731  -2.3107  -1.5451   0.6905   2.3002   2.5653   2.8018

          k = 0.1333 0.0680 0.0000 ( 30602 PWs)   bands (ev):

   -22.1619 -22.1563 -22.1542 -22.1511 -22.1477 -22.1266 -22.1207 -22.1185
   -22.1096 -22.1068 -14.1322 -13.1823  -7.4196  -6.4824  -4.2945  -4.0845
    -3.3676  -2.8513  -2.0770  -1.5452   0.7082   1.9482   2.5747   2.9792

          k = 0.1333 0.1359 0.0000 ( 30586 PWs)   bands (ev):

   -22.1606 -22.1573 -22.1531 -22.1527 -22.1461 -22.1269 -22.1211 -22.1174
   -22.1106 -22.1066 -14.0749 -13.1711  -7.5161  -6.6273  -4.3139  -4.2483
    -3.0371  -3.0096  -1.7472  -1.5433   0.7628   1.4131   2.3805   3.0777

          k = 0.1333 0.2039 0.0000 ( 30582 PWs)   bands (ev):

   -22.1593 -22.1588 -22.1537 -22.1516 -22.1442 -22.1275 -22.1212 -22.1161
   -22.1119 -22.1066 -13.9831 -13.1596  -7.6614  -6.8557  -4.4164  -4.1643
    -3.1080  -2.7284  -1.5263  -1.5248   0.8540   0.9863   1.8618   2.9497

          k = 0.1333 0.2719 0.0000 ( 30568 PWs)   bands (ev):

   -22.1604 -22.1596 -22.1531 -22.1500 -22.1421 -22.1284 -22.1211 -22.1146
   -22.1134 -22.1067 -13.8630 -13.1580  -7.8234  -7.1370  -4.3858  -4.0352
    -3.0786  -2.5958  -1.5257  -1.4613   0.8180   0.9278   1.3827   2.5898

          k = 0.1333 0.3398 0.0000 ( 30539 PWs)   bands (ev):

   -22.1619 -22.1610 -22.1513 -22.1487 -22.1398 -22.1296 -22.1207 -22.1149
   -22.1130 -22.1070 -13.7235 -13.1779  -7.9589  -7.4297  -4.2385  -3.8623
    -3.0154  -2.6366  -1.6994  -1.3729   0.7164   0.8979   1.3674   2.1855

          k = 0.1333 0.4078 0.0000 ( 30507 PWs)   bands (ev):

   -22.1630 -22.1624 -22.1496 -22.1479 -22.1374 -22.1311 -22.1199 -22.1163
   -22.1113 -22.1076 -13.5765 -13.2295  -8.0290  -7.6932  -4.0030  -3.6656
    -3.0338  -2.7987  -1.8175  -1.3723   0.5339   0.9920   1.6132   1.9375

          k = 0.1333 0.4758 0.0000 ( 30511 PWs)   bands (ev):

   -22.1635 -22.1633 -22.1483 -22.1478 -22.1351 -22.1330 -22.1189 -22.1176
   -22.1098 -22.1085 -13.4362 -13.3169  -8.0096  -7.8942  -3.7255  -3.5478
    -3.1269  -3.0068  -1.7276  -1.5241   0.6074   0.8386   1.9146   2.0294

          k = 0.2000 0.0000 0.0000 ( 30611 PWs)   bands (ev):

   -22.1614 -22.1567 -22.1541 -22.1515 -22.1459 -22.1267 -22.1196 -22.1186
   -22.1097 -22.1079 -14.0648 -13.1882  -7.6172  -6.7525  -4.2251  -3.6689
    -3.4281  -2.5862  -1.9332  -1.6451   0.7811   1.6944   2.2832   2.5308

          k = 0.2000 0.0680 0.0000 ( 30598 PWs)   bands (ev):

   -22.1610 -22.1571 -22.1537 -22.1522 -22.1452 -22.1268 -22.1201 -22.1179
   -22.1102 -22.1076 -14.0459 -13.1832  -7.6254  -6.7768  -4.2056  -4.0228
    -3.0709  -2.8045  -1.7223  -1.6214   0.8032   1.3562   2.3322   2.6009

          k = 0.2000 0.1359 0.0000 ( 30585 PWs)   bands (ev):

   -22.1601 -22.1583 -22.1535 -22.1525 -22.1437 -22.1271 -22.1208 -22.1166
   -22.1113 -22.1072 -13.9904 -13.1702  -7.6537  -6.8538  -4.4007  -4.1501
    -3.1170  -2.7061  -1.5342  -1.4877   0.8626   0.9775   1.8416   2.9685

          k = 0.2000 0.2039 0.0000 ( 30555 PWs)   bands (ev):

   -22.1600 -22.1599 -22.1538 -22.1508 -22.1419 -22.1276 -22.1212 -22.1152
   -22.1127 -22.1069 -13.9020 -13.1556  -7.7085  -6.9898  -4.6572  -4.0669
    -3.3257  -2.5190  -1.5431  -1.3733   0.8946   0.9147   1.3848   3.0840

          k = 0.2000 0.2719 0.0000 ( 30550 PWs)   bands (ev):

   -22.1619 -22.1612 -22.1523 -22.1491 -22.1399 -22.1284 -22.1212 -22.1141
   -22.1137 -22.1068 -13.7869 -13.1488  -7.7858  -7.1793  -4.7591  -3.9623
    -3.3998  -2.5173  -1.8682  -1.2419   0.7052   1.1619   1.3498   2.8760

          k = 0.2000 0.3398 0.0000 ( 30554 PWs)   bands (ev):

   -22.1637 -22.1631 -22.1502 -22.1477 -22.1380 -22.1296 -22.1209 -22.1155
   -22.1122 -22.1070 -13.6544 -13.1614  -7.8619  -7.3978  -4.7056  -3.8319
    -3.4046  -2.6420  -2.2278  -1.3151   0.6211   1.5203   1.5598   2.5530

          k = 0.2000 0.4078 0.0000 ( 30525 PWs)   bands (ev):

   -22.1650 -22.1646 -22.1484 -22.1468 -22.1361 -22.1310 -22.1201 -22.1168
   -22.1107 -22.1074 -13.5165 -13.2033  -7.9020  -7.6087  -4.5197  -3.7238
    -3.4506  -2.8445  -2.3770  -1.5970   0.7966   1.7169   1.8436   2.3496

          k = 0.2000 0.4758 0.0000 ( 30487 PWs)   bands (ev):

   -22.1657 -22.1655 -22.1471 -22.1466 -22.1343 -22.1325 -22.1191 -22.1180
   -22.1093 -22.1082 -13.3869 -13.2793  -7.8773  -7.7767  -4.2372  -3.9144
    -3.3255  -3.0865  -2.2387  -1.9425   1.1151   1.4760   2.1507   2.3733

          k = 0.2667 0.0000 0.0000 ( 30612 PWs)   bands (ev):

   -22.1602 -22.1575 -22.1537 -22.1532 -22.1424 -22.1270 -22.1185 -22.1181
   -22.1104 -22.1092 -13.9503 -13.2027  -7.8386  -7.1036  -4.0809  -3.4709
    -3.1660  -2.4935  -1.7630  -1.5160   0.9321   1.0711   1.7901   2.2319

          k = 0.2667 0.0680 0.0000 ( 30603 PWs)   bands (ev):

   -22.1599 -22.1580 -22.1537 -22.1532 -22.1419 -22.1271 -22.1194 -22.1170
   -22.1111 -22.1086 -13.9323 -13.1968  -7.8285  -7.1080  -4.0617  -3.8752
    -2.8276  -2.7198  -1.6867  -1.3961   0.8460   0.9543   1.8298   2.1323

          k = 0.2667 0.1359 0.0000 ( 30573 PWs)   bands (ev):

   -22.1597 -22.1594 -22.1543 -22.1519 -22.1406 -22.1273 -22.1203 -22.1157
   -22.1123 -22.1079 -13.8796 -13.1810  -7.8025  -7.1262  -4.3618  -4.0081
    -3.1130  -2.5679  -1.4546  -1.4314   0.8008   0.9567   1.3500   2.6150

          k = 0.2667 0.2039 0.0000 ( 30547 PWs)   bands (ev):

   -22.1614 -22.1609 -22.1534 -22.1502 -22.1391 -22.1278 -22.1209 -22.1142
   -22.1137 -22.1074 -13.7961 -13.1614  -7.7723  -7.1709  -4.7523  -3.9378
    -3.4402  -2.5101  -1.8138  -1.2240   0.7146   1.1610   1.3422   2.8901

          k = 0.2667 0.2719 0.0000 ( 30564 PWs)   bands (ev):

   -22.1636 -22.1631 -22.1513 -22.1483 -22.1375 -22.1286 -22.1211 -22.1150
   -22.1128 -22.1071 -13.6885 -13.1469  -7.7520  -7.2537  -4.9945  -3.8912
    -3.6159  -2.5810  -2.3065  -1.2759   0.6709   1.5651   1.6940   2.8579

          k = 0.2667 0.3398 0.0000 ( 30556 PWs)   bands (ev):

   -22.1657 -22.1654 -22.1490 -22.1467 -22.1360 -22.1296 -22.1209 -22.1162
   -22.1113 -22.1070 -13.5663 -13.1486  -7.7458  -7.3726  -5.0613  -3.8626
    -3.7171  -2.7441  -2.6759  -1.5922   0.9096   1.8718   2.2248   2.6617

          k = 0.2667 0.4078 0.0000 ( 30543 PWs)   bands (ev):

   -22.1673 -22.1671 -22.1472 -22.1457 -22.1346 -22.1308 -22.1202 -22.1172
   -22.1099 -22.1073 -13.4415 -13.1765  -7.7381  -7.5063  -4.9571  -3.9996
    -3.7334  -2.9813  -2.7414  -1.9679   1.2473   2.2240   2.2979   2.7300

          k = 0.2667 0.4758 0.0000 ( 30522 PWs)   bands (ev):

   -22.1681 -22.1681 -22.1459 -22.1454 -22.1333 -22.1320 -22.1193 -22.1182
   -22.1087 -22.1078 -13.3275 -13.2365  -7.7030  -7.6242  -4.7116  -4.3688
    -3.5288  -3.2601  -2.5771  -2.3058   1.6064   1.9657   2.5719   2.8180

          k = 0.3333 0.0000 0.0000 ( 30578 PWs)   bands (ev):

   -22.1587 -22.1581 -22.1550 -22.1536 -22.1388 -22.1276 -22.1173 -22.1173
   -22.1112 -22.1106 -13.8159 -13.2398  -8.0049  -7.4403  -3.8857  -3.2346
    -2.9804  -2.4291  -1.8181  -1.1056   0.4996   1.1492   1.4028   1.7617

          k = 0.3333 0.0680 0.0000 ( 30598 PWs)   bands (ev):

   -22.1588 -22.1587 -22.1551 -22.1531 -22.1384 -22.1277 -22.1186 -22.1159
   -22.1122 -22.1097 -13.7992 -13.2326  -7.9837  -7.4306  -3.8694  -3.6624
    -2.7348  -2.6506  -1.6488  -1.1645   0.5002   1.1265   1.3384   1.7155

          k = 0.3333 0.1359 0.0000 ( 30568 PWs)   bands (ev):

   -22.1604 -22.1599 -22.1544 -22.1517 -22.1374 -22.1278 -22.1196 -22.1145
   -22.1135 -22.1088 -13.7504 -13.2128  -7.9230  -7.4052  -4.2144  -3.8257
    -3.0891  -2.6229  -1.5486  -1.3226   0.7347   0.8745   1.3490   2.2281

          k = 0.3333 0.2039 0.0000 ( 30568 PWs)   bands (ev):

   -22.1627 -22.1622 -22.1526 -22.1498 -22.1362 -22.1282 -22.1204 -22.1148
   -22.1131 -22.1081 -13.6737 -13.1860  -7.8320  -7.3755  -4.7027  -3.7804
    -3.5093  -2.6352  -2.1140  -1.2688   0.6359   1.5260   1.5553   2.5696

          k = 0.3333 0.2719 0.0000 ( 30547 PWs)   bands (ev):

   -22.1652 -22.1649 -22.1503 -22.1478 -22.1350 -22.1288 -22.1207 -22.1159
   -22.1117 -22.1075 -13.5762 -13.1608  -7.7273  -7.3579  -5.0680  -3.8847
    -3.7274  -2.7367  -2.6226  -1.5749   0.9233   1.8751   2.2411   2.6683

          k = 0.3333 0.3398 0.0000 ( 30565 PWs)   bands (ev):

   -22.1676 -22.1674 -22.1480 -22.1461 -22.1340 -22.1296 -22.1205 -22.1168
   -22.1104 -22.1072 -13.4677 -13.1480  -7.6309  -7.3665  -5.2665  -4.0819
    -3.8970  -2.9420  -2.8690  -1.9489   1.2933   2.2927   2.6037   2.9241

          k = 0.3333 0.4078 0.0000 ( 30565 PWs)   bands (ev):

   -22.1694 -22.1694 -22.1461 -22.1449 -22.1331 -22.1306 -22.1200 -22.1176
   -22.1092 -22.1072 -13.3602 -13.1577  -7.5580  -7.4025  -5.2734  -4.3928
    -3.9753  -3.2427  -2.8363  -2.2506   1.6336   2.4479   2.7391   3.3998

          k = 0.3333 0.4758 0.0000 ( 30552 PWs)   bands (ev):

   -22.1705 -22.1704 -22.1449 -22.1445 -22.1323 -22.1315 -22.1192 -22.1184
   -22.1082 -22.1076 -13.2663 -13.1969  -7.5036  -7.4527  -5.0987  -4.7837
    -3.8334  -3.5674  -2.6845  -2.4865   1.9411   2.2171   3.1339   3.4052

          k = 0.4000 0.0000 0.0000 ( 30536 PWs)   bands (ev):

   -22.1584 -22.1573 -22.1565 -22.1540 -22.1354 -22.1286 -22.1163 -22.1160
   -22.1122 -22.1121 -13.6720 -13.3069  -8.0858  -7.7287  -3.6525  -2.9827
    -2.9790  -2.4352  -1.6866  -0.8350   0.1295   1.1856   1.2322   1.4338

          k = 0.4000 0.0680 0.0000 ( 30556 PWs)   bands (ev):

   -22.1592 -22.1584 -22.1556 -22.1534 -22.1351 -22.1286 -22.1175 -22.1147
   -22.1135 -22.1109 -13.6569 -13.2980  -8.0592  -7.7096  -3.6418  -3.4169
    -2.8235  -2.6633  -1.4683  -1.0721   0.3472   0.7983   1.4730   1.4788

          k = 0.4000 0.1359 0.0000 ( 30577 PWs)   bands (ev):

   -22.1611 -22.1605 -22.1539 -22.1518 -22.1345 -22.1287 -22.1186 -22.1148
   -22.1133 -22.1098 -13.6131 -13.2728  -7.9814  -7.6545  -3.9853  -3.6197
    -3.1372  -2.8012  -1.6350  -1.2742   0.5404   0.9645   1.6002   1.9917

          k = 0.4000 0.2039 0.0000 ( 30587 PWs)   bands (ev):

   -22.1636 -22.1633 -22.1517 -22.1498 -22.1336 -22.1289 -22.1195 -22.1160
   -22.1120 -22.1089 -13.5452 -13.2367  -7.8582  -7.5716  -4.5301  -3.7124
    -3.5324  -2.8363  -2.2364  -1.5285   0.8222   1.7349   1.8399   2.3534

          k = 0.4000 0.2719 0.0000 ( 30579 PWs)   bands (ev):

   -22.1665 -22.1663 -22.1493 -22.1477 -22.1328 -22.1293 -22.1200 -22.1169
   -22.1107 -22.1081 -13.4604 -13.1981  -7.7023  -7.4749  -4.9821  -4.1165
    -3.6473  -2.9581  -2.6819  -1.9422   1.2740   2.2360   2.3288   2.7433

          k = 0.4000 0.3398 0.0000 ( 30566 PWs)   bands (ev):

   -22.1691 -22.1690 -22.1471 -22.1458 -22.1323 -22.1298 -22.1199 -22.1175
   -22.1095 -22.1076 -13.3689 -13.1674  -7.5368  -7.3838  -5.2953  -4.4762
    -3.8937  -3.2203  -2.8291  -2.2488   1.6457   2.4579   2.7543   3.4546

          k = 0.4000 0.4078 0.0000 ( 30597 PWs)   bands (ev):

   -22.1711 -22.1711 -22.1453 -22.1445 -22.1319 -22.1304 -22.1195 -22.1180
   -22.1085 -22.1073 -13.2826 -13.1551  -7.3966  -7.3178  -5.4289  -4.8081
    -4.1005  -3.5731  -2.7842  -2.4274   1.9384   2.4458   3.2479   3.8733

          k = 0.4000 0.4758 0.0000 ( 30572 PWs)   bands (ev):

   -22.1723 -22.1722 -22.1443 -22.1440 -22.1315 -22.1310 -22.1190 -22.1185
   -22.1078 -22.1074 -13.2131 -13.1694  -7.3130  -7.2907  -5.3633  -5.1300
    -4.0936  -3.8943  -2.6784  -2.5580   2.1732   2.3460   3.6149   3.8450

          k = 0.4667 0.0000 0.0000 ( 30562 PWs)   bands (ev):

   -22.1583 -22.1577 -22.1559 -22.1548 -22.1325 -22.1303 -22.1150 -22.1147
   -22.1136 -22.1134 -13.5310 -13.4057  -8.0657  -7.9433  -3.3993  -3.1560
    -2.7339  -2.5399  -1.3735  -1.0019   0.2734   0.7171   1.1770   1.3717

          k = 0.4667 0.0680 0.0000 ( 30566 PWs)   bands (ev):

   -22.1592 -22.1588 -22.1549 -22.1540 -22.1324 -22.1302 -22.1162 -22.1149
   -22.1134 -22.1122 -13.5178 -13.3947  -8.0382  -7.9184  -3.4034  -3.2552
    -2.9262  -2.7913  -1.2471  -1.1009   0.3275   0.4701   1.5274   1.7246

          k = 0.4667 0.1359 0.0000 ( 30570 PWs)   bands (ev):

   -22.1613 -22.1611 -22.1531 -22.1523 -22.1319 -22.1300 -22.1174 -22.1161
   -22.1121 -22.1109 -13.4800 -13.3633  -7.9571  -7.8451  -3.7137  -3.5069
    -3.2074  -3.0288  -1.5600  -1.3881   0.6078   0.8272   1.8897   2.0299

          k = 0.4667 0.2039 0.0000 ( 30581 PWs)   bands (ev):

   -22.1641 -22.1640 -22.1509 -22.1502 -22.1315 -22.1299 -22.1184 -22.1172
   -22.1109 -22.1098 -13.4222 -13.3166  -7.8269  -7.7291  -4.2679  -3.9644
    -3.3210  -3.0753  -2.1211  -1.8525   1.1477   1.5072   2.1399   2.3497

          k = 0.4667 0.2719 0.0000 ( 30582 PWs)   bands (ev):

   -22.1671 -22.1671 -22.1485 -22.1479 -22.1312 -22.1300 -22.1190 -22.1179
   -22.1097 -22.1089 -13.3523 -13.2625  -7.6578  -7.5810  -4.7628  -4.4525
    -3.4583  -3.2133  -2.5352  -2.2747   1.6392   1.9984   2.5898   2.8360

          k = 0.4667 0.3398 0.0000 ( 30558 PWs)   bands (ev):

   -22.1699 -22.1699 -22.1464 -22.1459 -22.1310 -22.1302 -22.1191 -22.1183
   -22.1087 -22.1081 -13.2805 -13.2116  -7.4690  -7.4196  -5.1489  -4.8589
    -3.7573  -3.5159  -2.6826  -2.4867   1.9594   2.2346   3.1624   3.4471

          k = 0.4667 0.4078 0.0000 ( 30584 PWs)   bands (ev):

   -22.1721 -22.1720 -22.1448 -22.1445 -22.1310 -22.1306 -22.1190 -22.1185
   -22.1080 -22.1076 -13.2183 -13.1747  -7.2958  -7.2744  -5.3914  -5.1668
    -4.0589  -3.8688  -2.6807  -2.5606   2.1807   2.3535   3.6160   3.8410

          k = 0.4667 0.4758 0.0000 ( 30564 PWs)   bands (ev):

   -22.1732 -22.1732 -22.1439 -22.1438 -22.1310 -22.1308 -22.1187 -22.1186
   -22.1075 -22.1074 -13.1762 -13.1613  -7.1888  -7.1847  -5.4647  -5.3760
    -4.2009  -4.1266  -2.6406  -2.5999   2.3247   2.3836   3.8378   3.9538

     the Fermi energy is    -0.7725 ev

!    total energy              =    -413.80376972 Ry
     estimated scf accuracy    <          4.0E-12 Ry
     smearing contrib. (-TS)   =       0.00009199 Ry
     internal energy E=F+TS    =    -413.80386171 Ry

     The total energy is F=E-TS. E is the sum of the following terms:
     one-electron contribution =   -1191.44455322 Ry
     hartree contribution      =     607.94967887 Ry
     xc contribution           =    -154.42346504 Ry
     ewald contribution        =     324.11447768 Ry

     convergence has been achieved in   7 iterations

     negative rho (up, down):  2.834E-05 0.000E+00

     Forces acting on atoms (cartesian axes, Ry/au):

     atom    1 type  1   force =    -0.00110324    0.00000000    0.00063486
     atom    2 type  1   force =    -0.00110283    0.00000000   -0.00064263
     atom    3 type  2   force =     0.00110237    0.00000000    0.00038182
     atom    4 type  2   force =     0.00110371    0.00000000   -0.00037405

     Total force =     0.002443     Total SCF correction =     0.000009

     number of scf cycles    =   2
     number of bfgs steps    =   1

     energy   old            =    -413.8037629169 Ry
     energy   new            =    -413.8037697246 Ry

     CASE: energy  _new < energy  _old


     WARNING: bfgs curvature condition failed, Theta= 0.875
     new trust radius        =       0.0015457363 bohr
     new conv_thr            =            6.8E-12 Ry


ATOMIC_POSITIONS (crystal)
Sn            0.5836890598        0.7500000000        0.1445975287
Sn            0.0836879774        0.2500000000        0.0065476293
Se            0.0304166054        0.2500000000        0.1423450166
Se            0.5304143314        0.7500000000        0.0087998794



     Writing output data file ./wfc-out/pwscf.save/
     NEW-OLD atomic charge density approx. for the potential

     negative rho (up, down):  4.806E-05 0.000E+00

     total cpu time spent up to now is      107.6 secs

     Self-consistent Calculation

     iteration #  1     ecut=    80.00 Ry     beta= 0.70
     Davidson diagonalization with overlap
     ethr =  1.00E-06,  avg # of iterations =  2.0

     Threshold (ethr) on eigenvalues was too large:
     Diagonalizing with lowered threshold

     Davidson diagonalization with overlap
     ethr =  5.60E-10,  avg # of iterations =  6.6

     negative rho (up, down):  3.136E-05 0.000E+00

     total cpu time spent up to now is      118.6 secs

     total energy              =    -413.80377656 Ry
     estimated scf accuracy    <       0.00000033 Ry

     iteration #  2     ecut=    80.00 Ry     beta= 0.70
     Davidson diagonalization with overlap
     ethr =  8.31E-10,  avg # of iterations =  2.1

     negative rho (up, down):  2.890E-05 0.000E+00

     total cpu time spent up to now is      122.7 secs

     total energy              =    -413.80377654 Ry
     estimated scf accuracy    <       0.00000021 Ry

     iteration #  3     ecut=    80.00 Ry     beta= 0.70
     Davidson diagonalization with overlap
     ethr =  5.21E-10,  avg # of iterations =  2.0

     negative rho (up, down):  2.848E-05 0.000E+00

     total cpu time spent up to now is      126.7 secs

     total energy              =    -413.80377658 Ry
     estimated scf accuracy    <       0.00000002 Ry

     iteration #  4     ecut=    80.00 Ry     beta= 0.70
     Davidson diagonalization with overlap
     ethr =  4.59E-11,  avg # of iterations =  3.2

     negative rho (up, down):  2.838E-05 0.000E+00

     total cpu time spent up to now is      131.0 secs

     total energy              =    -413.80377658 Ry
     estimated scf accuracy    <       0.00000004 Ry

     iteration #  5     ecut=    80.00 Ry     beta= 0.70
     Davidson diagonalization with overlap
     ethr =  4.59E-11,  avg # of iterations =  2.5

     negative rho (up, down):  2.835E-05 0.000E+00

     total cpu time spent up to now is      135.1 secs

     total energy              =    -413.80377659 Ry
     estimated scf accuracy    <          2.3E-09 Ry

     iteration #  6     ecut=    80.00 Ry     beta= 0.70
     Davidson diagonalization with overlap
     ethr =  5.86E-12,  avg # of iterations =  2.4

     negative rho (up, down):  2.835E-05 0.000E+00

     total cpu time spent up to now is      139.2 secs

     total energy              =    -413.80377659 Ry
     estimated scf accuracy    <          1.3E-10 Ry

     iteration #  7     ecut=    80.00 Ry     beta= 0.70
     Davidson diagonalization with overlap
     ethr =  3.25E-13,  avg # of iterations =  3.4

     negative rho (up, down):  2.834E-05 0.000E+00

     total cpu time spent up to now is      143.8 secs

     End of self-consistent calculation

          k = 0.0000 0.0000 0.0000 ( 30611 PWs)   bands (ev):

   -22.1634 -22.1554 -22.1553 -22.1514 -22.1488 -22.1265 -22.1214 -22.1194
   -22.1091 -22.1063 -14.2218 -13.1899  -7.1350  -6.1211  -4.3370  -3.9364
    -3.9357  -2.7517  -2.7026  -1.4671   0.6332   2.4219   2.8908   3.0719

          k = 0.0000 0.0680 0.0000 ( 30599 PWs)   bands (ev):

   -22.1628 -22.1556 -22.1550 -22.1515 -22.1487 -22.1267 -22.1214 -22.1191
   -22.1094 -22.1063 -14.2019 -13.1858  -7.2045  -6.2023  -4.3408  -3.9366
    -3.8489  -2.7371  -2.5949  -1.4806   0.6444   2.5010   2.8843   2.9222

          k = 0.0000 0.1359 0.0000 ( 30639 PWs)   bands (ev):

   -22.1613 -22.1565 -22.1540 -22.1522 -22.1480 -22.1270 -22.1215 -22.1184
   -22.1102 -22.1064 -14.1431 -13.1758  -7.3878  -6.4282  -4.3224  -3.8601
    -3.6829  -2.6788  -2.3327  -1.5261   0.6846   2.4047   2.6664   2.6693

          k = 0.0000 0.2039 0.0000 ( 30639 PWs)   bands (ev):

   -22.1594 -22.1577 -22.1533 -22.1526 -22.1465 -22.1276 -22.1214 -22.1172
   -22.1114 -22.1065 -14.0489 -13.1666  -7.6271  -6.7510  -4.2450  -3.7194
    -3.4636  -2.5906  -1.9858  -1.6103   0.7694   1.7598   2.2040   2.6738

          k = 0.0000 0.2719 0.0000 ( 30563 PWs)   bands (ev):

   -22.1591 -22.1583 -22.1537 -22.1511 -22.1443 -22.1285 -22.1211 -22.1157
   -22.1129 -22.1068 -13.9251 -13.1687  -7.8618  -7.1126  -4.1030  -3.5272
    -3.2271  -2.4962  -1.7199  -1.6023   0.9139   1.1111   1.7226   2.3394

          k = 0.0000 0.3398 0.0000 ( 30563 PWs)   bands (ev):

   -22.1604 -22.1590 -22.1526 -22.1499 -22.1416 -22.1297 -22.1206 -22.1145
   -22.1140 -22.1073 -13.7803 -13.1941  -8.0424  -7.4636  -3.9072  -3.3030
    -3.0320  -2.4315  -1.7911  -1.2245   0.5277   1.1217   1.3338   1.8285

          k = 0.0000 0.4078 0.0000 ( 30519 PWs)   bands (ev):

   -22.1612 -22.1602 -22.1510 -22.1492 -22.1387 -22.1314 -22.1198 -22.1161
   -22.1122 -22.1081 -13.6264 -13.2531  -8.1339  -7.7662  -3.6737  -3.1240
    -2.9229  -2.4397  -1.7085  -0.9740   0.1517   1.1144   1.2020   1.4559

          k = 0.0000 0.4758 0.0000 ( 30456 PWs)   bands (ev):

   -22.1615 -22.1611 -22.1498 -22.1492 -22.1360 -22.1335 -22.1187 -22.1175
   -22.1106 -22.1092 -13.4777 -13.3493  -8.1177  -7.9913  -3.4256  -3.2047
    -2.7364  -2.5472  -1.4403  -1.1053   0.2579   0.6928   1.1061   1.3004

          k = 0.0667 0.0000 0.0000 ( 30615 PWs)   bands (ev):

   -22.1632 -22.1555 -22.1552 -22.1507 -22.1491 -22.1266 -22.1212 -22.1194
   -22.1092 -22.1065 -14.2034 -13.1882  -7.2046  -6.2048  -4.3361  -3.9056
    -3.8659  -2.7307  -2.5935  -1.4858   0.6456   2.4732   2.7778   3.0016

          k = 0.0667 0.0680 0.0000 ( 30603 PWs)   bands (ev):

   -22.1626 -22.1558 -22.1548 -22.1512 -22.1487 -22.1267 -22.1213 -22.1190
   -22.1095 -22.1065 -14.1836 -13.1840  -7.2628  -6.2764  -4.3324  -4.0441
    -3.6526  -2.8213  -2.4008  -1.4963   0.6588   2.5243   2.5424   2.9822

          k = 0.0667 0.1359 0.0000 ( 30606 PWs)   bands (ev):

   -22.1612 -22.1567 -22.1538 -22.1523 -22.1476 -22.1270 -22.1214 -22.1182
   -22.1103 -22.1065 -14.1252 -13.1737  -7.4207  -6.4791  -4.3039  -4.1017
    -3.3821  -2.8539  -2.0942  -1.5316   0.7034   1.9700   2.6479   2.9352

          k = 0.0667 0.2039 0.0000 ( 30582 PWs)   bands (ev):

   -22.1594 -22.1580 -22.1535 -22.1523 -22.1459 -22.1276 -22.1214 -22.1169
   -22.1116 -22.1066 -14.0316 -13.1640  -7.6346  -6.7765  -4.2240  -4.0558
    -3.1099  -2.8036  -1.7729  -1.5937   0.7917   1.3776   2.4079   2.5694

          k = 0.0667 0.2719 0.0000 ( 30580 PWs)   bands (ev):

   -22.1595 -22.1586 -22.1537 -22.1508 -22.1437 -22.1285 -22.1212 -22.1154
   -22.1131 -22.1068 -13.9087 -13.1651  -7.8509  -7.1176  -4.0848  -3.9183
    -2.8822  -2.7079  -1.6586  -1.4938   0.8713   0.9328   1.8740   2.0907

          k = 0.0667 0.3398 0.0000 ( 30551 PWs)   bands (ev):

   -22.1608 -22.1595 -22.1523 -22.1496 -22.1411 -22.1297 -22.1207 -22.1147
   -22.1138 -22.1073 -13.7653 -13.1892  -8.0206  -7.4541  -3.8941  -3.7105
    -2.7728  -2.6233  -1.6548  -1.3148   0.5412   1.0725   1.3916   1.6519

          k = 0.0667 0.4078 0.0000 ( 30509 PWs)   bands (ev):

   -22.1617 -22.1608 -22.1507 -22.1489 -22.1384 -22.1314 -22.1199 -22.1162
   -22.1121 -22.1080 -13.6131 -13.2464  -8.1070  -7.7471  -3.6682  -3.4694
    -2.8215  -2.6261  -1.5308  -1.2519   0.3983   0.7782   1.3975   1.4889

          k = 0.0667 0.4758 0.0000 ( 30495 PWs)   bands (ev):

   -22.1621 -22.1617 -22.1495 -22.1488 -22.1358 -22.1334 -22.1188 -22.1176
   -22.1104 -22.1091 -13.4665 -13.3403  -8.0900  -7.9663  -3.4393  -3.3159
    -2.8860  -2.7541  -1.3630  -1.2633   0.3575   0.4691   1.4550   1.7359

          k = 0.1333 0.0000 0.0000 ( 30591 PWs)   bands (ev):

   -22.1625 -22.1560 -22.1548 -22.1501 -22.1489 -22.1266 -22.1207 -22.1192
   -22.1094 -22.1072 -14.1493 -13.1851  -7.3853  -6.4334  -4.3083  -3.8143
    -3.6798  -2.6710  -2.3111  -1.5447   0.6895   2.3025   2.5706   2.8019

          k = 0.1333 0.0680 0.0000 ( 30602 PWs)   bands (ev):

   -22.1620 -22.1564 -22.1544 -22.1512 -22.1478 -22.1267 -22.1209 -22.1187
   -22.1098 -22.1071 -14.1298 -13.1806  -7.4184  -6.4822  -4.2935  -4.0826
    -3.3660  -2.8500  -2.0767  -1.5449   0.7072   1.9494   2.5795   2.9797

          k = 0.1333 0.1359 0.0000 ( 30586 PWs)   bands (ev):

   -22.1607 -22.1574 -22.1533 -22.1528 -22.1462 -22.1271 -22.1213 -22.1177
   -22.1108 -22.1069 -14.0724 -13.1694  -7.5148  -6.6270  -4.3122  -4.2471
    -3.0362  -3.0077  -1.7464  -1.5430   0.7618   1.4132   2.3823   3.0779

          k = 0.1333 0.2039 0.0000 ( 30582 PWs)   bands (ev):

   -22.1594 -22.1589 -22.1539 -22.1518 -22.1443 -22.1276 -22.1215 -22.1163
   -22.1121 -22.1068 -13.9807 -13.1580  -7.6600  -6.8552  -4.4148  -4.1628
    -3.1073  -2.7264  -1.5251  -1.5245   0.8530   0.9855   1.8613   2.9501

          k = 0.1333 0.2719 0.0000 ( 30568 PWs)   bands (ev):

   -22.1605 -22.1597 -22.1533 -22.1502 -22.1422 -22.1285 -22.1214 -22.1148
   -22.1136 -22.1069 -13.8607 -13.1563  -7.8218  -7.1363  -4.3843  -4.0336
    -3.0779  -2.5938  -1.5244  -1.4608   0.8167   0.9270   1.3812   2.5897

          k = 0.1333 0.3398 0.0000 ( 30539 PWs)   bands (ev):

   -22.1620 -22.1611 -22.1515 -22.1488 -22.1399 -22.1297 -22.1209 -22.1151
   -22.1132 -22.1073 -13.7213 -13.1762  -7.9573  -7.4288  -4.2369  -3.8605
    -3.0144  -2.6347  -1.6987  -1.3721   0.7150   0.8966   1.3661   2.1850

          k = 0.1333 0.4078 0.0000 ( 30507 PWs)   bands (ev):

   -22.1631 -22.1625 -22.1498 -22.1480 -22.1375 -22.1313 -22.1201 -22.1165
   -22.1116 -22.1079 -13.5744 -13.2276  -8.0275  -7.6920  -4.0013  -3.6636
    -3.0325  -2.7970  -1.8174  -1.3715   0.5324   0.9912   1.6120   1.9363

          k = 0.1333 0.4758 0.0000 ( 30511 PWs)   bands (ev):

   -22.1636 -22.1634 -22.1485 -22.1479 -22.1352 -22.1331 -22.1191 -22.1179
   -22.1101 -22.1088 -13.4342 -13.3149  -8.0081  -7.8928  -3.7236  -3.5457
    -3.1255  -3.0052  -1.7276  -1.5237   0.6063   0.8379   1.9133   2.0278

          k = 0.2000 0.0000 0.0000 ( 30611 PWs)   bands (ev):

   -22.1615 -22.1568 -22.1543 -22.1516 -22.1460 -22.1268 -22.1198 -22.1188
   -22.1099 -22.1082 -14.0623 -13.1864  -7.6164  -6.7525  -4.2242  -3.6661
    -3.4271  -2.5840  -1.9334  -1.6446   0.7799   1.6963   2.2830   2.5350

          k = 0.2000 0.0680 0.0000 ( 30598 PWs)   bands (ev):

   -22.1611 -22.1572 -22.1538 -22.1523 -22.1453 -22.1269 -22.1204 -22.1181
   -22.1105 -22.1079 -14.0434 -13.1814  -7.6245  -6.7767  -4.2045  -4.0207
    -3.0691  -2.8029  -1.7219  -1.6209   0.8020   1.3571   2.3346   2.6015

          k = 0.2000 0.1359 0.0000 ( 30585 PWs)   bands (ev):

   -22.1602 -22.1584 -22.1537 -22.1526 -22.1438 -22.1272 -22.1211 -22.1169
   -22.1116 -22.1075 -13.9880 -13.1685  -7.6527  -6.8536  -4.3989  -4.1488
    -3.1158  -2.7042  -1.5338  -1.4868   0.8615   0.9774   1.8418   2.9688

          k = 0.2000 0.2039 0.0000 ( 30555 PWs)   bands (ev):

   -22.1601 -22.1600 -22.1540 -22.1510 -22.1420 -22.1278 -22.1214 -22.1155
   -22.1129 -22.1072 -13.8996 -13.1538  -7.7073  -6.9893  -4.6555  -4.0653
    -3.3248  -2.5171  -1.5421  -1.3727   0.8937   0.9139   1.3839   3.0833

          k = 0.2000 0.2719 0.0000 ( 30550 PWs)   bands (ev):

   -22.1620 -22.1613 -22.1525 -22.1493 -22.1401 -22.1286 -22.1215 -22.1144
   -22.1140 -22.1071 -13.7846 -13.1471  -7.7844  -7.1786  -4.7576  -3.9604
    -3.3992  -2.5154  -1.8675  -1.2412   0.7040   1.1608   1.3485   2.8753

          k = 0.2000 0.3398 0.0000 ( 30554 PWs)   bands (ev):

   -22.1638 -22.1632 -22.1504 -22.1479 -22.1381 -22.1297 -22.1211 -22.1157
   -22.1124 -22.1072 -13.6522 -13.1596  -7.8604  -7.3968  -4.7042  -3.8298
    -3.4038  -2.6402  -2.2277  -1.3147   0.6200   1.5193   1.5587   2.5523

          k = 0.2000 0.4078 0.0000 ( 30525 PWs)   bands (ev):

   -22.1651 -22.1647 -22.1485 -22.1469 -22.1362 -22.1311 -22.1204 -22.1170
   -22.1109 -22.1077 -13.5143 -13.2014  -7.9004  -7.6075  -4.5184  -3.7217
    -3.4492  -2.8426  -2.3777  -1.5972   0.7959   1.7165   1.8425   2.3483

          k = 0.2000 0.4758 0.0000 ( 30487 PWs)   bands (ev):

   -22.1658 -22.1656 -22.1473 -22.1467 -22.1344 -22.1327 -22.1194 -22.1182
   -22.1095 -22.1084 -13.3849 -13.2774  -7.8757  -7.7753  -4.2358  -3.9128
    -3.3237  -3.0846  -2.2395  -1.9431   1.1146   1.4757   2.1496   2.3719

          k = 0.2667 0.0000 0.0000 ( 30612 PWs)   bands (ev):

   -22.1603 -22.1576 -22.1539 -22.1534 -22.1426 -22.1271 -22.1188 -22.1183
   -22.1106 -22.1094 -13.9478 -13.2008  -7.8380  -7.1036  -4.0799  -3.4680
    -3.1648  -2.4910  -1.7624  -1.5160   0.9308   1.0726   1.7895   2.2344

          k = 0.2667 0.0680 0.0000 ( 30603 PWs)   bands (ev):

   -22.1600 -22.1581 -22.1538 -22.1534 -22.1421 -22.1272 -22.1197 -22.1172
   -22.1113 -22.1089 -13.9298 -13.1949  -7.8279  -7.1080  -4.0606  -3.8729
    -2.8258  -2.7177  -1.6861  -1.3957   0.8466   0.9529   1.8305   2.1324

          k = 0.2667 0.1359 0.0000 ( 30573 PWs)   bands (ev):

   -22.1598 -22.1595 -22.1544 -22.1521 -22.1408 -22.1275 -22.1206 -22.1159
   -22.1126 -22.1082 -13.8772 -13.1792  -7.8018  -7.1261  -4.3598  -4.0069
    -3.1112  -2.5661  -1.4538  -1.4308   0.8007   0.9555   1.3497   2.6150

          k = 0.2667 0.2039 0.0000 ( 30547 PWs)   bands (ev):

   -22.1615 -22.1610 -22.1535 -22.1504 -22.1392 -22.1280 -22.1212 -22.1145
   -22.1139 -22.1077 -13.7938 -13.1595  -7.7713  -7.1705  -4.7505  -3.9362
    -3.4388  -2.5084  -1.8134  -1.2232   0.7136   1.1605   1.3412   2.8891

          k = 0.2667 0.2719 0.0000 ( 30564 PWs)   bands (ev):

   -22.1637 -22.1632 -22.1514 -22.1485 -22.1376 -22.1287 -22.1214 -22.1152
   -22.1130 -22.1074 -13.6862 -13.1450  -7.7507  -7.2530  -4.9929  -3.8890
    -3.6150  -2.5792  -2.3066  -1.2756   0.6700   1.5641   1.6933   2.8567

          k = 0.2667 0.3398 0.0000 ( 30556 PWs)   bands (ev):

   -22.1658 -22.1655 -22.1492 -22.1469 -22.1361 -22.1297 -22.1211 -22.1164
   -22.1115 -22.1073 -13.5641 -13.1467  -7.7442  -7.3715  -5.0600  -3.8605
    -3.7159  -2.7422  -2.6767  -1.5926   0.9091   1.8710   2.2241   2.6607

          k = 0.2667 0.4078 0.0000 ( 30543 PWs)   bands (ev):

   -22.1674 -22.1672 -22.1473 -22.1459 -22.1347 -22.1309 -22.1204 -22.1175
   -22.1102 -22.1075 -13.4393 -13.1746  -7.7364  -7.5049  -4.9559  -3.9983
    -3.7313  -2.9794  -2.7425  -1.9687   1.2470   2.2233   2.2976   2.7288

          k = 0.2667 0.4758 0.0000 ( 30522 PWs)   bands (ev):

   -22.1682 -22.1682 -22.1461 -22.1456 -22.1334 -22.1322 -22.1195 -22.1185
   -22.1090 -22.1081 -13.3254 -13.2345  -7.7012  -7.6225  -4.7105  -4.3677
    -3.5268  -3.2581  -2.5781  -2.3067   1.6061   1.9654   2.5712   2.8171

          k = 0.3333 0.0000 0.0000 ( 30578 PWs)   bands (ev):

   -22.1589 -22.1582 -22.1551 -22.1538 -22.1390 -22.1278 -22.1175 -22.1175
   -22.1115 -22.1109 -13.8135 -13.2378  -8.0046  -7.4404  -3.8846  -3.2316
    -2.9790  -2.4262  -1.8173  -1.1053   0.5008   1.1477   1.4018   1.7631

          k = 0.3333 0.0680 0.0000 ( 30598 PWs)   bands (ev):

   -22.1589 -22.1589 -22.1552 -22.1532 -22.1386 -22.1278 -22.1188 -22.1162
   -22.1125 -22.1100 -13.7968 -13.2306  -7.9833  -7.4307  -3.8683  -3.6600
    -2.7330  -2.6479  -1.6479  -1.1642   0.5009   1.1252   1.3383   1.7150

          k = 0.3333 0.1359 0.0000 ( 30568 PWs)   bands (ev):

   -22.1605 -22.1600 -22.1546 -22.1518 -22.1376 -22.1280 -22.1199 -22.1148
   -22.1138 -22.1091 -13.7480 -13.2108  -7.9225  -7.4052  -4.2122  -3.8245
    -3.0866  -2.6212  -1.5487  -1.3216   0.7340   0.8750   1.3480   2.2276

          k = 0.3333 0.2039 0.0000 ( 30568 PWs)   bands (ev):

   -22.1628 -22.1623 -22.1528 -22.1500 -22.1364 -22.1284 -22.1206 -22.1150
   -22.1134 -22.1083 -13.6714 -13.1840  -7.8312  -7.3752  -4.7007  -3.7788
    -3.5071  -2.6335  -2.1146  -1.2685   0.6354   1.5262   1.5544   2.5685

          k = 0.3333 0.2719 0.0000 ( 30547 PWs)   bands (ev):

   -22.1653 -22.1650 -22.1504 -22.1480 -22.1351 -22.1290 -22.1209 -22.1162
   -22.1120 -22.1078 -13.5739 -13.1589  -7.7262  -7.3572  -5.0663  -3.8821
    -3.7261  -2.7349  -2.6236  -1.5753   0.9229   1.8746   2.2411   2.6670

          k = 0.3333 0.3398 0.0000 ( 30565 PWs)   bands (ev):

   -22.1677 -22.1676 -22.1481 -22.1462 -22.1341 -22.1298 -22.1208 -22.1171
   -22.1106 -22.1075 -13.4655 -13.1460  -7.6294  -7.3653  -5.2652  -4.0797
    -3.8958  -2.9401  -2.8701  -1.9498   1.2929   2.2924   2.6029   2.9236

          k = 0.3333 0.4078 0.0000 ( 30565 PWs)   bands (ev):

   -22.1695 -22.1695 -22.1463 -22.1451 -22.1333 -22.1307 -22.1202 -22.1179
   -22.1095 -22.1075 -13.3581 -13.1558  -7.5561  -7.4010  -5.2725  -4.3917
    -3.9737  -3.2410  -2.8371  -2.2515   1.6332   2.4473   2.7390   3.3992

          k = 0.3333 0.4758 0.0000 ( 30552 PWs)   bands (ev):

   -22.1706 -22.1705 -22.1451 -22.1447 -22.1325 -22.1316 -22.1194 -22.1186
   -22.1085 -22.1078 -13.2643 -13.1949  -7.5016  -7.4508  -5.0980  -4.7830
    -3.8318  -3.5658  -2.6852  -2.4872   1.9409   2.2168   3.1337   3.4048

          k = 0.4000 0.0000 0.0000 ( 30536 PWs)   bands (ev):

   -22.1586 -22.1574 -22.1566 -22.1541 -22.1356 -22.1288 -22.1165 -22.1162
   -22.1125 -22.1123 -13.6696 -13.3048  -8.0856  -7.7288  -3.6514  -2.9813
    -2.9758  -2.4320  -1.6856  -0.8339   0.1299   1.1843   1.2328   1.4323

          k = 0.4000 0.0680 0.0000 ( 30556 PWs)   bands (ev):

   -22.1593 -22.1585 -22.1557 -22.1535 -22.1353 -22.1288 -22.1177 -22.1150
   -22.1137 -22.1112 -13.6545 -13.2958  -8.0590  -7.7096  -3.6407  -3.4144
    -2.8218  -2.6602  -1.4672  -1.0720   0.3482   0.7981   1.4718   1.4776

          k = 0.4000 0.1359 0.0000 ( 30577 PWs)   bands (ev):

   -22.1612 -22.1606 -22.1541 -22.1520 -22.1346 -22.1289 -22.1189 -22.1150
   -22.1136 -22.1101 -13.6108 -13.2707  -7.9810  -7.6545  -3.9829  -3.6185
    -3.1341  -2.7996  -1.6357  -1.2736   0.5402   0.9658   1.5991   1.9905

          k = 0.4000 0.2039 0.0000 ( 30587 PWs)   bands (ev):

   -22.1637 -22.1634 -22.1519 -22.1500 -22.1338 -22.1290 -22.1198 -22.1162
   -22.1122 -22.1091 -13.5428 -13.2346  -7.8576  -7.5713  -4.5278  -3.7100
    -3.5305  -2.8346  -2.2377  -1.5288   0.8222   1.7360   1.8392   2.3520

          k = 0.4000 0.2719 0.0000 ( 30579 PWs)   bands (ev):

   -22.1666 -22.1664 -22.1495 -22.1478 -22.1330 -22.1294 -22.1202 -22.1171
   -22.1110 -22.1084 -13.4581 -13.1961  -7.7013  -7.4743  -4.9802  -4.1138
    -3.6459  -2.9563  -2.6833  -1.9430   1.2737   2.2359   2.3283   2.7433

          k = 0.4000 0.3398 0.0000 ( 30566 PWs)   bands (ev):

   -22.1692 -22.1691 -22.1472 -22.1460 -22.1324 -22.1300 -22.1202 -22.1178
   -22.1098 -22.1079 -13.3667 -13.1653  -7.5354  -7.3826  -5.2939  -4.4742
    -3.8927  -3.2187  -2.8300  -2.2496   1.6452   2.4570   2.7546   3.4552

          k = 0.4000 0.4078 0.0000 ( 30597 PWs)   bands (ev):

   -22.1712 -22.1712 -22.1455 -22.1447 -22.1320 -22.1306 -22.1198 -22.1183
   -22.1088 -22.1076 -13.2804 -13.1531  -7.3946  -7.3161  -5.4281  -4.8071
    -4.0994  -3.5717  -2.7848  -2.4281   1.9381   2.4453   3.2483   3.8735

          k = 0.4000 0.4758 0.0000 ( 30572 PWs)   bands (ev):

   -22.1723 -22.1723 -22.1444 -22.1441 -22.1317 -22.1312 -22.1192 -22.1187
   -22.1081 -22.1077 -13.2110 -13.1674  -7.3106  -7.2885  -5.3631  -5.1297
    -4.0924  -3.8931  -2.6788  -2.5584   2.1730   2.3458   3.6151   3.8450

          k = 0.4667 0.0000 0.0000 ( 30562 PWs)   bands (ev):

   -22.1584 -22.1578 -22.1560 -22.1549 -22.1327 -22.1304 -22.1152 -22.1149
   -22.1138 -22.1137 -13.5286 -13.4035  -8.0657  -7.9434  -3.3982  -3.1547
    -2.7306  -2.5366  -1.3722  -1.0004   0.2735   0.7174   1.1755   1.3702

          k = 0.4667 0.0680 0.0000 ( 30566 PWs)   bands (ev):

   -22.1593 -22.1589 -22.1551 -22.1542 -22.1325 -22.1303 -22.1165 -22.1151
   -22.1137 -22.1124 -13.5155 -13.3924  -8.0381  -7.9184  -3.4022  -3.2534
    -2.9237  -2.7881  -1.2461  -1.1004   0.3282   0.4701   1.5262   1.7236

          k = 0.4667 0.1359 0.0000 ( 30570 PWs)   bands (ev):

   -22.1614 -22.1612 -22.1532 -22.1525 -22.1321 -22.1302 -22.1177 -22.1164
   -22.1124 -22.1112 -13.4777 -13.3611  -7.9569  -7.8450  -3.7111  -3.5049
    -3.2050  -3.0272  -1.5606  -1.3882   0.6083   0.8284   1.8887   2.0289

          k = 0.4667 0.2039 0.0000 ( 30581 PWs)   bands (ev):

   -22.1642 -22.1641 -22.1510 -22.1504 -22.1317 -22.1301 -22.1187 -22.1174
   -22.1111 -22.1101 -13.4200 -13.3144  -7.8265  -7.7287  -4.2654  -3.9617
    -3.3194  -3.0736  -2.1223  -1.8534   1.1480   1.5078   2.1394   2.3492

          k = 0.4667 0.2719 0.0000 ( 30582 PWs)   bands (ev):

   -22.1672 -22.1672 -22.1487 -22.1481 -22.1313 -22.1302 -22.1192 -22.1182
   -22.1100 -22.1091 -13.3501 -13.2604  -7.6570  -7.5803  -4.7607  -4.4500
    -3.4568  -3.2117  -2.5365  -2.2758   1.6388   1.9979   2.5902   2.8367

          k = 0.4667 0.3398 0.0000 ( 30558 PWs)   bands (ev):

   -22.1700 -22.1700 -22.1465 -22.1461 -22.1312 -22.1304 -22.1194 -22.1185
   -22.1090 -22.1084 -13.2784 -13.2095  -7.4677  -7.4183  -5.1474  -4.8571
    -3.7563  -3.5147  -2.6834  -2.4875   1.9588   2.2339   3.1632   3.4481

          k = 0.4667 0.4078 0.0000 ( 30584 PWs)   bands (ev):

   -22.1722 -22.1721 -22.1450 -22.1447 -22.1312 -22.1307 -22.1192 -22.1187
   -22.1083 -22.1078 -13.2162 -13.1726  -7.2938  -7.2724  -5.3907  -5.1660
    -4.0580  -3.8678  -2.6811  -2.5611   2.1804   2.3532   3.6168   3.8416

          k = 0.4667 0.4758 0.0000 ( 30564 PWs)   bands (ev):

   -22.1733 -22.1733 -22.1441 -22.1440 -22.1311 -22.1310 -22.1190 -22.1188
   -22.1078 -22.1076 -13.1741 -13.1592  -7.1862  -7.1821  -5.4647  -5.3761
    -4.1999  -4.1255  -2.6409  -2.6002   2.3248   2.3837   3.8375   3.9525

     the Fermi energy is    -0.7709 ev

!    total energy              =    -413.80377659 Ry
     estimated scf accuracy    <          1.8E-12 Ry
     smearing contrib. (-TS)   =       0.00009091 Ry
     internal energy E=F+TS    =    -413.80386749 Ry

     The total energy is F=E-TS. E is the sum of the following terms:
     one-electron contribution =   -1191.28478190 Ry
[...]

   -22.1678 -22.1610 -22.1607 -22.1561 -22.1536 -22.1309 -22.1273 -22.1250
   -22.1152 -22.1123 -14.1659 -13.1687  -7.2548  -6.2895  -4.3142  -4.0379
    -3.6465  -2.8122  -2.3985  -1.5068   0.6647   2.5436   2.6227   2.9879

          k = 0.0667 0.1359 0.0000 ( 30606 PWs)   bands (ev):

   -22.1663 -22.1619 -22.1598 -22.1573 -22.1523 -22.1313 -22.1274 -22.1241
   -22.1161 -22.1123 -14.1079 -13.1588  -7.4107  -6.4880  -4.2859  -4.0962
    -3.3739  -2.8491  -2.0866  -1.5422   0.7093   1.9661   2.7118   2.9503

          k = 0.0667 0.2039 0.0000 ( 30582 PWs)   bands (ev):

   -22.1644 -22.1631 -22.1587 -22.1583 -22.1505 -22.1318 -22.1273 -22.1229
   -22.1173 -22.1124 -14.0149 -13.1497  -7.6222  -6.7798  -4.2070  -4.0500
    -3.0993  -2.7991  -1.7614  -1.6038   0.7975   1.3598   2.4140   2.5677

          k = 0.0667 0.2719 0.0000 ( 30580 PWs)   bands (ev):

   -22.1645 -22.1632 -22.1595 -22.1568 -22.1482 -22.1327 -22.1271 -22.1215
   -22.1188 -22.1127 -13.8928 -13.1516  -7.8363  -7.1153  -4.0691  -3.9110
    -2.8696  -2.7004  -1.6667  -1.4783   0.8430   0.9382   1.8536   2.0749

          k = 0.0667 0.3398 0.0000 ( 30551 PWs)   bands (ev):

   -22.1657 -22.1641 -22.1583 -22.1556 -22.1454 -22.1339 -22.1265 -22.1204
   -22.1198 -22.1133 -13.7502 -13.1764  -8.0044  -7.4470  -3.8795  -3.7003
    -2.7607  -2.6102  -1.6574  -1.2983   0.5080   1.0708   1.3666   1.6241

          k = 0.0667 0.4078 0.0000 ( 30509 PWs)   bands (ev):

   -22.1665 -22.1654 -22.1567 -22.1549 -22.1426 -22.1355 -22.1257 -22.1219
   -22.1181 -22.1141 -13.5990 -13.2338  -8.0904  -7.7360  -3.6543  -3.4548
    -2.8126  -2.6083  -1.5251  -1.2386   0.3670   0.7468   1.3595   1.4857

          k = 0.0667 0.4758 0.0000 ( 30495 PWs)   bands (ev):

   -22.1668 -22.1664 -22.1555 -22.1549 -22.1399 -22.1375 -22.1246 -22.1233
   -22.1165 -22.1151 -13.4532 -13.3276  -8.0741  -7.9523  -3.4245  -3.2979
    -2.8773  -2.7379  -1.3512  -1.2507   0.3238   0.4325   1.4161   1.7120

          k = 0.1333 0.0000 0.0000 ( 30591 PWs)   bands (ev):

   -22.1676 -22.1612 -22.1607 -22.1551 -22.1537 -22.1310 -22.1266 -22.1251
   -22.1152 -22.1129 -14.1313 -13.1691  -7.3814  -6.4469  -4.2951  -3.7882
    -3.6892  -2.6421  -2.3220  -1.5530   0.6931   2.3379   2.6533   2.7886

          k = 0.1333 0.0680 0.0000 ( 30602 PWs)   bands (ev):

   -22.1671 -22.1616 -22.1603 -22.1563 -22.1526 -22.1311 -22.1269 -22.1246
   -22.1156 -22.1128 -14.1119 -13.1648  -7.4135  -6.4946  -4.2795  -4.0726
    -3.3592  -2.8342  -2.0747  -1.5533   0.7108   1.9583   2.6570   2.9875

          k = 0.1333 0.1359 0.0000 ( 30586 PWs)   bands (ev):

   -22.1657 -22.1625 -22.1592 -22.1580 -22.1509 -22.1314 -22.1273 -22.1236
   -22.1166 -22.1127 -14.0550 -13.1541  -7.5074  -6.6359  -4.3048  -4.2313
    -3.0272  -2.9977  -1.7374  -1.5514   0.7657   1.4027   2.4099   3.0900

          k = 0.1333 0.2039 0.0000 ( 30582 PWs)   bands (ev):

   -22.1642 -22.1639 -22.1594 -22.1577 -22.1489 -22.1319 -22.1275 -22.1223
   -22.1179 -22.1126 -13.9639 -13.1433  -7.6492  -6.8589  -4.4091  -4.1455
    -3.1021  -2.7141  -1.5311  -1.5107   0.8573   0.9604   1.8498   2.9577

          k = 0.1333 0.2719 0.0000 ( 30568 PWs)   bands (ev):

   -22.1655 -22.1642 -22.1592 -22.1561 -22.1466 -22.1327 -22.1273 -22.1208
   -22.1194 -22.1128 -13.8446 -13.1424  -7.8078  -7.1343  -4.3793  -4.0160
    -3.0735  -2.5814  -1.5097  -1.4616   0.7842   0.9268   1.3579   2.5865

          k = 0.1333 0.3398 0.0000 ( 30539 PWs)   bands (ev):

   -22.1669 -22.1656 -22.1574 -22.1548 -22.1442 -22.1339 -22.1268 -22.1208
   -22.1192 -22.1132 -13.7061 -13.1630  -7.9409  -7.4214  -4.2316  -3.8435
    -3.0072  -2.6239  -1.6915  -1.3643   0.6885   0.8662   1.3584   2.1731

          k = 0.1333 0.4078 0.0000 ( 30507 PWs)   bands (ev):

   -22.1679 -22.1671 -22.1557 -22.1540 -22.1417 -22.1354 -22.1260 -22.1223
   -22.1176 -22.1139 -13.5602 -13.2148  -8.0101  -7.6803  -3.9942  -3.6473
    -3.0221  -2.7873  -1.8179  -1.3601   0.4987   0.9678   1.6073   1.9152

          k = 0.1333 0.4758 0.0000 ( 30511 PWs)   bands (ev):

   -22.1684 -22.1681 -22.1545 -22.1539 -22.1394 -22.1373 -22.1249 -22.1236
   -22.1161 -22.1148 -13.4207 -13.3020  -7.9912  -7.8779  -3.7129  -3.5301
    -3.1168  -2.9959  -1.7275  -1.5173   0.5772   0.8152   1.9078   2.0076

          k = 0.2000 0.0000 0.0000 ( 30611 PWs)   bands (ev):

   -22.1666 -22.1620 -22.1601 -22.1567 -22.1509 -22.1312 -22.1257 -22.1248
   -22.1157 -22.1139 -14.0441 -13.1697  -7.6162  -6.7651  -4.2150  -3.6386
    -3.4321  -2.5522  -1.9393  -1.6499   0.7801   1.7215   2.2645   2.6038

          k = 0.2000 0.0680 0.0000 ( 30598 PWs)   bands (ev):

   -22.1661 -22.1624 -22.1596 -22.1575 -22.1501 -22.1313 -22.1263 -22.1240
   -22.1162 -22.1136 -14.0253 -13.1649  -7.6234  -6.7885  -4.1945  -4.0069
    -3.0606  -2.7800  -1.7188  -1.6261   0.8024   1.3597   2.3725   2.6020

          k = 0.2000 0.1359 0.0000 ( 30585 PWs)   bands (ev):

   -22.1650 -22.1635 -22.1590 -22.1585 -22.1485 -22.1316 -22.1270 -22.1228
   -22.1174 -22.1132 -13.9703 -13.1524  -7.6487  -6.8625  -4.3886  -4.1361
    -3.1001  -2.6931  -1.5376  -1.4773   0.8622   0.9630   1.8436   2.9754

          k = 0.2000 0.2039 0.0000 ( 30555 PWs)   bands (ev):

   -22.1652 -22.1646 -22.1597 -22.1569 -22.1466 -22.1321 -22.1275 -22.1214
   -22.1187 -22.1130 -13.8825 -13.1386  -7.6991  -6.9936  -4.6483  -4.0484
    -3.3158  -2.5062  -1.5324  -1.3715   0.8900   0.8918   1.3691   3.0892

          k = 0.2000 0.2719 0.0000 ( 30550 PWs)   bands (ev):

   -22.1670 -22.1659 -22.1583 -22.1552 -22.1445 -22.1329 -22.1275 -22.1201
   -22.1199 -22.1129 -13.7683 -13.1327  -7.7715  -7.1769  -4.7533  -3.9394
    -3.3955  -2.5053  -1.8646  -1.2337   0.6852   1.1353   1.3391   2.8794

          k = 0.2000 0.3398 0.0000 ( 30554 PWs)   bands (ev):

   -22.1687 -22.1678 -22.1562 -22.1537 -22.1425 -22.1340 -22.1271 -22.1215
   -22.1184 -22.1131 -13.6368 -13.1460  -7.8437  -7.3890  -4.7020  -3.8082
    -3.3998  -2.6296  -2.2340  -1.3078   0.5974   1.4957   1.5510   2.5535

          k = 0.2000 0.4078 0.0000 ( 30525 PWs)   bands (ev):

   -22.1700 -22.1694 -22.1544 -22.1528 -22.1405 -22.1354 -22.1263 -22.1228
   -22.1169 -22.1136 -13.4999 -13.1882  -7.8817  -7.5945  -4.5166  -3.7058
    -3.4386  -2.8303  -2.3908  -1.5976   0.7790   1.7022   1.8341   2.3402

          k = 0.2000 0.4758 0.0000 ( 30487 PWs)   bands (ev):

   -22.1706 -22.1704 -22.1532 -22.1526 -22.1387 -22.1370 -22.1252 -22.1240
   -22.1155 -22.1144 -13.3713 -13.2642  -7.8570  -7.7586  -4.2328  -3.9065
    -3.3076  -3.0701  -2.2517  -1.9505   1.1037   1.4677   2.1399   2.3603

          k = 0.2667 0.0000 0.0000 ( 30612 PWs)   bands (ev):

   -22.1653 -22.1628 -22.1596 -22.1585 -22.1475 -22.1316 -22.1246 -22.1243
   -22.1163 -22.1152 -13.9293 -13.1832  -7.8413  -7.1158  -4.0735  -3.4383
    -3.1661  -2.4552  -1.7639  -1.5167   0.9275   1.0905   1.7651   2.2775

          k = 0.2667 0.0680 0.0000 ( 30603 PWs)   bands (ev):

   -22.1650 -22.1633 -22.1591 -22.1590 -22.1469 -22.1317 -22.1256 -22.1231
   -22.1171 -22.1146 -13.9114 -13.1775  -7.8303  -7.1194  -4.0536  -3.8554
    -2.8161  -2.6871  -1.6864  -1.3920   0.8469   0.9494   1.8414   2.1239

          k = 0.2667 0.1359 0.0000 ( 30573 PWs)   bands (ev):

   -22.1646 -22.1646 -22.1599 -22.1578 -22.1456 -22.1319 -22.1266 -22.1217
   -22.1184 -22.1139 -13.8592 -13.1623  -7.8015  -7.1351  -4.3459  -3.9975
    -3.0861  -2.5566  -1.4501  -1.4275   0.7901   0.9494   1.3458   2.6141

          k = 0.2667 0.2039 0.0000 ( 30547 PWs)   bands (ev):

   -22.1666 -22.1657 -22.1591 -22.1561 -22.1439 -22.1324 -22.1272 -22.1203
   -22.1197 -22.1134 -13.7764 -13.1435  -7.7664  -7.1753  -4.7404  -3.9208
    -3.4213  -2.4998  -1.8171  -1.2153   0.6981   1.1461   1.3359   2.8876

          k = 0.2667 0.2719 0.0000 ( 30564 PWs)   bands (ev):

   -22.1687 -22.1679 -22.1571 -22.1543 -22.1421 -22.1331 -22.1274 -22.1210
   -22.1189 -22.1132 -13.6697 -13.1300  -7.7398  -7.2517  -4.9875  -3.8627
    -3.6092  -2.5697  -2.3186  -1.2715   0.6554   1.5569   1.6765   2.8582

          k = 0.2667 0.3398 0.0000 ( 30556 PWs)   bands (ev):

   -22.1707 -22.1702 -22.1548 -22.1527 -22.1406 -22.1341 -22.1271 -22.1222
   -22.1174 -22.1132 -13.5485 -13.1326  -7.7274  -7.3632  -5.0594  -3.8332
    -3.7115  -2.7299  -2.6970  -1.5976   0.9026   1.8609   2.2067   2.6652

          k = 0.2667 0.4078 0.0000 ( 30543 PWs)   bands (ev):

   -22.1723 -22.1720 -22.1530 -22.1516 -22.1392 -22.1353 -22.1264 -22.1232
   -22.1161 -22.1134 -13.4247 -13.1610  -7.7157  -7.4901  -4.9586  -3.9966
    -3.7068  -2.9635  -2.7643  -1.9811   1.2479   2.2105   2.3039   2.7114

          k = 0.2667 0.4758 0.0000 ( 30522 PWs)   bands (ev):

   -22.1731 -22.1730 -22.1518 -22.1513 -22.1379 -22.1366 -22.1254 -22.1243
   -22.1149 -22.1140 -13.3116 -13.2211  -7.6797  -7.6031  -4.7142  -4.3699
    -3.5052  -3.2392  -2.5977  -2.3237   1.6120   1.9735   2.5562   2.8001

          k = 0.3333 0.0000 0.0000 ( 30578 PWs)   bands (ev):

   -22.1639 -22.1634 -22.1602 -22.1593 -22.1439 -22.1323 -22.1235 -22.1233
   -22.1172 -22.1166 -13.7945 -13.2194  -8.0108  -7.4523  -3.8800  -3.1989
    -2.9784  -2.3862  -1.8142  -1.0995   0.5115   1.1410   1.3715   1.7884

          k = 0.3333 0.0680 0.0000 ( 30598 PWs)   bands (ev):

   -22.1640 -22.1639 -22.1605 -22.1588 -22.1435 -22.1324 -22.1247 -22.1220
   -22.1182 -22.1157 -13.7780 -13.2123  -7.9888  -7.4419  -3.8634  -3.6390
    -2.7239  -2.6093  -1.6418  -1.1630   0.5051   1.1146   1.3430   1.6959

          k = 0.3333 0.1359 0.0000 ( 30568 PWs)   bands (ev):

   -22.1656 -22.1648 -22.1600 -22.1574 -22.1424 -22.1326 -22.1258 -22.1206
   -22.1196 -22.1148 -13.7297 -13.1931  -7.9255  -7.4143  -4.1944  -3.8182
    -3.0500  -2.6136  -1.5582  -1.3121   0.7205   0.8769   1.3463   2.2182

          k = 0.3333 0.2039 0.0000 ( 30568 PWs)   bands (ev):

   -22.1679 -22.1671 -22.1582 -22.1556 -22.1411 -22.1329 -22.1267 -22.1209
   -22.1192 -22.1141 -13.6537 -13.1672  -7.8297  -7.3804  -4.6868  -3.7669
    -3.4762  -2.6256  -2.1334  -1.2638   0.6235   1.5246   1.5509   2.5634

          k = 0.3333 0.2719 0.0000 ( 30547 PWs)   bands (ev):

   -22.1703 -22.1698 -22.1559 -22.1536 -22.1398 -22.1335 -22.1270 -22.1220
   -22.1178 -22.1136 -13.5572 -13.1431  -7.7181  -7.3563  -5.0582  -3.8440
    -3.7231  -2.7246  -2.6494  -1.5811   0.9195   1.8683   2.2349   2.6659

          k = 0.3333 0.3398 0.0000 ( 30565 PWs)   bands (ev):

   -22.1727 -22.1724 -22.1536 -22.1518 -22.1388 -22.1344 -22.1268 -22.1229
   -22.1165 -22.1133 -13.4498 -13.1313  -7.6131  -7.3564  -5.2646  -4.0536
    -3.8910  -2.9263  -2.8949  -1.9635   1.2978   2.2831   2.6106   2.9101

          k = 0.3333 0.4078 0.0000 ( 30565 PWs)   bands (ev):

   -22.1745 -22.1743 -22.1518 -22.1506 -22.1379 -22.1354 -22.1261 -22.1236
   -22.1153 -22.1134 -13.3433 -13.1417  -7.5329  -7.3838  -5.2791  -4.3941
    -3.9540  -3.2252  -2.8570  -2.2687   1.6447   2.4606   2.7280   3.3832

          k = 0.3333 0.4758 0.0000 ( 30552 PWs)   bands (ev):

   -22.1754 -22.1754 -22.1506 -22.1502 -22.1371 -22.1363 -22.1253 -22.1244
   -22.1144 -22.1137 -13.2502 -13.1811  -7.4757  -7.4272  -5.1086  -4.7929
    -3.8132  -3.5489  -2.7031  -2.5049   1.9564   2.2331   3.1216   3.3908

          k = 0.4000 0.0000 0.0000 ( 30536 PWs)   bands (ev):

   -22.1638 -22.1625 -22.1618 -22.1595 -22.1405 -22.1335 -22.1224 -22.1220
   -22.1182 -22.1181 -13.6503 -13.2857  -8.0941  -7.7404  -3.6481  -2.9804
    -2.9396  -2.3890  -1.6771  -0.8177   0.1304   1.1496   1.2429   1.4277

          k = 0.4000 0.0680 0.0000 ( 30556 PWs)   bands (ev):

   -22.1645 -22.1635 -22.1610 -22.1589 -22.1402 -22.1335 -22.1236 -22.1208
   -22.1195 -22.1169 -13.6354 -13.2769  -8.0668  -7.7206  -3.6373  -3.3919
    -2.8108  -2.6164  -1.4562  -1.0737   0.3594   0.7903   1.4494   1.4683

          k = 0.4000 0.1359 0.0000 ( 30577 PWs)   bands (ev):

   -22.1663 -22.1656 -22.1594 -22.1574 -22.1394 -22.1335 -22.1248 -22.1209
   -22.1194 -22.1158 -13.5921 -13.2524  -7.9866  -7.6634  -3.9611  -3.6146
    -3.0898  -2.7917  -1.6538  -1.2667   0.5311   0.9818   1.5964   1.9725

          k = 0.4000 0.2039 0.0000 ( 30587 PWs)   bands (ev):

   -22.1688 -22.1683 -22.1572 -22.1554 -22.1386 -22.1337 -22.1257 -22.1220
   -22.1180 -22.1149 -13.5249 -13.2172  -7.8590  -7.5766  -4.5094  -3.6868
    -3.5061  -2.8261  -2.2643  -1.5337   0.8198   1.7495   1.8372   2.3436

          k = 0.4000 0.2719 0.0000 ( 30579 PWs)   bands (ev):

   -22.1716 -22.1713 -22.1548 -22.1533 -22.1378 -22.1341 -22.1262 -22.1229
   -22.1167 -22.1141 -13.4412 -13.1797  -7.6961  -7.4734  -4.9679  -4.0816
    -3.6376  -2.9451  -2.7113  -1.9566   1.2769   2.2333   2.3334   2.7455

          k = 0.4000 0.3398 0.0000 ( 30566 PWs)   bands (ev):

   -22.1742 -22.1740 -22.1526 -22.1514 -22.1372 -22.1348 -22.1261 -22.1236
   -22.1156 -22.1136 -13.3508 -13.1501  -7.5206  -7.3729  -5.2914  -4.4562
    -3.8870  -3.2060  -2.8510  -2.2667   1.6547   2.4656   2.7512   3.4581

          k = 0.4000 0.4078 0.0000 ( 30597 PWs)   bands (ev):

   -22.1762 -22.1761 -22.1508 -22.1501 -22.1369 -22.1355 -22.1256 -22.1240
   -22.1146 -22.1134 -13.2655 -13.1386  -7.3692  -7.2959  -5.4376  -4.8115
    -4.0869  -3.5594  -2.8012  -2.4445   1.9546   2.4620   3.2459   3.8712

          k = 0.4000 0.4758 0.0000 ( 30572 PWs)   bands (ev):

   -22.1772 -22.1772 -22.1498 -22.1495 -22.1366 -22.1361 -22.1250 -22.1244
   -22.1139 -22.1135 -13.1968 -13.1533  -7.2791  -7.2594  -5.3813  -5.1473
    -4.0771  -3.8795  -2.6941  -2.5739   2.1950   2.3682   3.6123   3.8380

          k = 0.4667 0.0000 0.0000 ( 30562 PWs)   bands (ev):

   -22.1636 -22.1630 -22.1612 -22.1602 -22.1375 -22.1352 -22.1211 -22.1207
   -22.1197 -22.1194 -13.5091 -13.3840  -8.0758  -7.9545  -3.3959  -3.1533
    -2.6905  -2.4936  -1.3590  -0.9825   0.2731   0.7230   1.1400   1.3367

          k = 0.4667 0.0680 0.0000 ( 30566 PWs)   bands (ev):

   -22.1645 -22.1641 -22.1603 -22.1595 -22.1374 -22.1351 -22.1223 -22.1209
   -22.1195 -22.1182 -13.4962 -13.3732  -8.0476  -7.9289  -3.3997  -3.2435
    -2.8947  -2.7458  -1.2358  -1.0972   0.3342   0.4658   1.5008   1.7191

          k = 0.4667 0.1359 0.0000 ( 30570 PWs)   bands (ev):

   -22.1665 -22.1663 -22.1585 -22.1578 -22.1369 -22.1350 -22.1236 -22.1222
   -22.1181 -22.1169 -13.4589 -13.3424  -7.9642  -7.8535  -3.6865  -3.4918
    -3.1742  -3.0155  -1.5749  -1.3919   0.6104   0.8419   1.8874   2.0222

          k = 0.4667 0.2039 0.0000 ( 30581 PWs)   bands (ev):

   -22.1692 -22.1691 -22.1563 -22.1557 -22.1365 -22.1349 -22.1246 -22.1233
   -22.1169 -22.1158 -13.4020 -13.2965  -7.8300  -7.7334  -4.2418  -3.9329
    -3.3063  -3.0635  -2.1446  -1.8674   1.1528   1.5182   2.1409   2.3534

          k = 0.4667 0.2719 0.0000 ( 30582 PWs)   bands (ev):

   -22.1722 -22.1721 -22.1540 -22.1535 -22.1362 -22.1350 -22.1251 -22.1240
   -22.1158 -22.1149 -13.3332 -13.2436  -7.6541  -7.5788  -4.7432  -4.4259
    -3.4466  -3.2005  -2.5601  -2.2947   1.6442   2.0031   2.5942   2.8480

          k = 0.4667 0.3398 0.0000 ( 30558 PWs)   bands (ev):

   -22.1750 -22.1749 -22.1518 -22.1514 -22.1361 -22.1353 -22.1252 -22.1243
   -22.1148 -22.1141 -13.2625 -13.1938  -7.4549  -7.4074  -5.1411  -4.8457
    -3.7493  -3.5050  -2.7018  -2.5051   1.9693   2.2437   3.1679   3.4584

          k = 0.4667 0.4078 0.0000 ( 30584 PWs)   bands (ev):

   -22.1771 -22.1771 -22.1502 -22.1500 -22.1362 -22.1357 -22.1250 -22.1244
   -22.1141 -22.1137 -13.2012 -13.1579  -7.2682  -7.2490  -5.4006  -5.1735
    -4.0484  -3.8580  -2.6962  -2.5763   2.1995   2.3723   3.6225   3.8462

          k = 0.4667 0.4758 0.0000 ( 30564 PWs)   bands (ev):

   -22.1782 -22.1782 -22.1493 -22.1492 -22.1362 -22.1360 -22.1247 -22.1245
   -22.1136 -22.1135 -13.1598 -13.1449  -7.1503  -7.1475  -5.4889  -5.3998
    -4.1866  -4.1130  -2.6549  -2.6144   2.3515   2.4106   3.8253   3.9251

     the Fermi energy is    -0.7446 ev

!    total energy              =    -413.80382802 Ry
     estimated scf accuracy    <          1.1E-13 Ry
     smearing contrib. (-TS)   =       0.00007381 Ry
     internal energy E=F+TS    =    -413.80390183 Ry

     The total energy is F=E-TS. E is the sum of the following terms:
     one-electron contribution =   -1191.27080377 Ry
     hartree contribution      =     607.86211564 Ry
     xc contribution           =    -154.41774660 Ry
     ewald contribution        =     324.02253291 Ry

     convergence has been achieved in   8 iterations

     negative rho (up, down):  2.860E-05 0.000E+00

     Forces acting on atoms (cartesian axes, Ry/au):

     atom    1 type  1   force =    -0.00001781    0.00000000    0.00002247
     atom    2 type  1   force =    -0.00001782    0.00000000   -0.00002324
     atom    3 type  2   force =     0.00001781    0.00000000    0.00000557
     atom    4 type  2   force =     0.00001782    0.00000000   -0.00000480

     Total force =     0.000049     Total SCF correction =     0.000001

     bfgs converged in  18 scf cycles and  17 bfgs steps
     (criteria: energy <  1.0E-06 Ry, force <  3.8E-05 Ry/Bohr)

     End of BFGS Geometry Optimization

     Final energy   =    -413.8038280165 Ry

     File ./wfc-out/pwscf.bfgs deleted, as requested
Begin final coordinates

ATOMIC_POSITIONS (crystal)
Sn            0.5805689849        0.7500000000        0.1444919966
Sn            0.0805684928        0.2500000000        0.0066531021
Se            0.0335351620        0.2500000000        0.1425219607
Se            0.5335353343        0.7500000000        0.0086229945
End final coordinates



     Writing output data file ./wfc-out/pwscf.save/
 
     init_run     :      1.97s CPU      2.49s WALL (       1 calls)
     electrons    :    691.32s CPU    730.60s WALL (      18 calls)
     update_pot   :      7.14s CPU      7.23s WALL (      17 calls)
     forces       :     16.88s CPU     17.72s WALL (      18 calls)

     Called by init_run:
     wfcinit      :      1.19s CPU      1.34s WALL (       1 calls)
     potinit      :      0.17s CPU      0.18s WALL (       1 calls)
     hinit0       :      0.27s CPU      0.33s WALL (       1 calls)

     Called by electrons:
     c_bands      :    544.43s CPU    565.10s WALL (     160 calls)
     sum_band     :    113.81s CPU    123.49s WALL (     160 calls)
     v_of_rho     :      6.24s CPU      6.43s WALL (     161 calls)
     newd         :     28.35s CPU     34.60s WALL (     161 calls)
     mix_rho      :      0.95s CPU      0.98s WALL (     160 calls)

     Called by c_bands:
     init_us_2    :     13.88s CPU     15.09s WALL (   21696 calls)
     cegterg      :    479.52s CPU    496.22s WALL (   10240 calls)

     Called by *egterg:
     cdiaghg      :     29.17s CPU     29.71s WALL (   39339 calls)
     h_psi        :    356.06s CPU    370.74s WALL (   41579 calls)
     s_psi        :     17.77s CPU     18.17s WALL (   41579 calls)
     g_psi        :      1.88s CPU      1.94s WALL (   31275 calls)

     Called by h_psi:
     h_psi:calbec :     27.62s CPU     28.58s WALL (   41579 calls)
     vloc_psi     :    301.23s CPU    314.47s WALL (   41579 calls)
     add_vuspsi   :     23.41s CPU     23.87s WALL (   41579 calls)

     General routines
     calbec       :     38.77s CPU     40.05s WALL (   56427 calls)
     fft          :      4.91s CPU      5.03s WALL (    2289 calls)
     ffts         :      0.17s CPU      0.17s WALL (     321 calls)
     fftw         :    321.85s CPU    335.70s WALL ( 1559480 calls)
     interpolate  :      0.42s CPU      0.43s WALL (     161 calls)
 
     Parallel routines
     fft_scatt_xy :     45.70s CPU     47.68s WALL ( 1562090 calls)
     fft_scatt_yz :    181.60s CPU    189.31s WALL ( 1562090 calls)
 
     PWSCF        :  12m 1.97s CPU  14m10.20s WALL

 
   This run was terminated on:   6:38: 1   8May2023            

=------------------------------------------------------------------------------=
   JOB DONE.
=------------------------------------------------------------------------------=
