
     Program PWSCF v.6.6 starts on  8May2023 at  6:38: 2 

     This program is part of the open-source Quantum ESPRESSO suite
     for quantum simulation of materials; please cite
         "P. Giannozzi et al., J. Phys.:Condens. Matter 21 395502 (2009);
         "P. Giannozzi et al., J. Phys.:Condens. Matter 29 465901 (2017);
          URL http://www.quantum-espresso.org", 
     in publications or presentations arising from this work. More details at
     http://www.quantum-espresso.org/quote

     Parallel version (MPI), running on    24 processors

     MPI processes distributed on     1 nodes
     R & G space division:  proc/nbgrp/npool/nimage =      24
     Fft bands division:     nmany     =       1
     Reading input from INCAR-nscf.pw

     Current dimensions of program PWSCF are:
     Max number of different atomic species (ntypx) = 10
     Max number of k-points (npk) =  40000
     Max angular momentum in pseudopotentials (lmaxx) =  3

     Atomic positions and unit cell read from directory:
     ./wfc-out/pwscf.save/
     Atomic positions from file used, from input discarded
 

     Subspace diagonalization in iterative solution of the eigenvalue problem:
     a serial algorithm will be used

 
     Parallelization info
     --------------------
     sticks:   dense  smooth     PW     G-vecs:    dense   smooth      PW
     Min         133      70     21                26155    10174    1653
     Max         134      71     22                26166    10193    1675
     Sum        3199    1701    505               627869   244447   40001
 


     bravais-lattice index     =            0
     lattice parameter (alat)  =       8.2602  a.u.
     unit-cell volume          =    2529.5303 (a.u.)^3
     number of atoms/cell      =            4
     number of atomic types    =            2
     number of electrons       =        40.00
     number of Kohn-Sham states=           20
     kinetic-energy cutoff     =      80.0000  Ry
     charge density cutoff     =     600.0000  Ry
     Exchange-correlation= SLA  PW   PBE  PBE
                           (   1   4   3   4   0   0   0)

     celldm(1)=   8.260231  celldm(2)=   0.000000  celldm(3)=   0.000000
     celldm(4)=   0.000000  celldm(5)=   0.000000  celldm(6)=   0.000000

     crystal axes: (cart. coord. in units of alat)
               a(1) = (   1.000000   0.000000   0.000000 )  
               a(2) = (   0.000000   0.980904   0.000000 )  
               a(3) = (   0.000000   0.000000   4.575480 )  

     reciprocal axes: (cart. coord. in units 2 pi/alat)
               b(1) = (  1.000000  0.000000  0.000000 )  
               b(2) = (  0.000000  1.019467  0.000000 )  
               b(3) = (  0.000000  0.000000  0.218556 )  


     PseudoPot. # 1 for Sn read from file:
     ./Sn_pbe_v1.uspp.F.UPF
     MD5 check sum: 4cf58ce39ec5d5d420df3dd08604eb00
     Pseudo is Ultrasoft + core correction, Zval = 14.0
     Generated by new atomic code, or converted to UPF format
     Using radial grid of  891 points,  6 beta functions with: 
                l(1) =   0
                l(2) =   0
                l(3) =   1
                l(4) =   1
                l(5) =   2
                l(6) =   2
     Q(r) pseudized with  6 coefficients,  rinner =    1.200   1.200   1.200
                                                       1.200   1.200

     PseudoPot. # 2 for Se read from file:
     ./Se_pbe_v1.uspp.F.UPF
     MD5 check sum: 1b3568f3a8ae88f9a2a0ad0698632c85
     Pseudo is Ultrasoft + core correction, Zval =  6.0
     Generated by new atomic code, or converted to UPF format
     Using radial grid of  877 points,  6 beta functions with: 
                l(1) =   0
                l(2) =   0
                l(3) =   1
                l(4) =   1
                l(5) =   2
                l(6) =   2
     Q(r) pseudized with  8 coefficients,  rinner =    1.300   1.300   1.300
                                                       1.300   1.300

     atomic species   valence    mass     pseudopotential
        Sn            14.00   118.71000     Sn( 1.00)
        Se             6.00    78.96000     Se( 1.00)

     No symmetry found



   Cartesian axes

     site n.     atom                  positions (alat units)
         1           Sn  tau(   1) = (   0.5805690   0.7356782   0.6611203  )
         2           Sn  tau(   2) = (   0.0805685   0.2452261   0.0304411  )
         3           Se  tau(   3) = (   0.0335352   0.2452261   0.6521064  )
         4           Se  tau(   4) = (   0.5335353   0.7356782   0.0394543  )

     number of k points=   120

     Number of k-points >= 100: set verbosity='high' to print them.

     Dense  grid:   627869 G-vectors     FFT dimensions: (  72,  64, 300)

     Smooth grid:   244447 G-vectors     FFT dimensions: (  48,  48, 216)

     Estimated max dynamical RAM per process >      89.19 MB

     Estimated total dynamical RAM >       2.09 GB

     The potential is recalculated from file :
     ./wfc-out/pwscf.save/charge-density


     negative rho (up, down):  2.860E-05 0.000E+00
     Starting wfcs are   26 randomized atomic wfcs

     Band Structure Calculation
     Davidson diagonalization with overlap

     ethr =  2.50E-13,  avg # of iterations = 57.8

     total cpu time spent up to now is      107.0 secs

     End of band structure calculation

     Number of k-points >= 100: set verbosity='high' to print the bands.

     highest occupied level (ev):    -0.8309



               ==================================================
                            POLARIZATION CALCULATION
                         !!! NOT THOROUGHLY TESTED !!!
               --------------------------------------------------


                     K-POINTS STRINGS USED IN CALCULATIONS
                     ~~~~~~~~~~~~~~~~~~~~~~~~~~~~~~~~~~~~~

       G-vector along string (2 pi/a):  1.00000  0.00000  0.00000
       Modulus of the vector (1/bohr):  0.76065
       Number of k-points per string:  15
       Number of different strings  :   8


                               IONIC POLARIZATION
                               ~~~~~~~~~~~~~~~~~~

  ============================================================================
    Ion    Species    Charge              Position                Phase
  ----------------------------------------------------------------------------
     1        Sn      14.000       0.5806  0.7357  0.6611     0.12797 (mod 2)
     2        Sn      14.000       0.0806  0.2452  0.0304    -0.87204 (mod 2)
     3        Se       6.000       0.0335  0.2452  0.6521     0.20121 (mod 2)
     4        Se       6.000       0.5335  0.7357  0.0395    -0.79879 (mod 2)
  ----------------------------------------------------------------------------
                                               IONIC PHASE:   0.65835 (mod 2)
  ============================================================================


                            ELECTRONIC POLARIZATION
                            ~~~~~~~~~~~~~~~~~~~~~~~

  ============================================================================
    String     Weight      First k-point in string         Phase
  ----------------------------------------------------------------------------
       1      0.066667      0.0000  0.0000  0.0000    -0.45724
       2      0.133333      0.0000  0.0680  0.0000    -0.32350
       3      0.133333      0.0000  0.1359  0.0000    -0.22551
       4      0.133333      0.0000  0.2039  0.0000    -0.16640
       5      0.133333      0.0000  0.2719  0.0000    -0.11404
       6      0.133333      0.0000  0.3398  0.0000    -0.07097
       7      0.133333      0.0000  0.4078  0.0000    -0.04783
       8      0.133333      0.0000  0.4758  0.0000    -0.04075
  ----------------------------------------------------------------------------
                                          ELECTRONIC PHASE:  -0.16235
  ============================================================================


                               SUMMARY OF PHASES
                               ~~~~~~~~~~~~~~~~~

                          Ionic Phase:  0.65835
                     Electronic Phase: -0.16235
                          TOTAL PHASE:  0.49600 MOD_TOT: 2


                             VALUES OF POLARIZATION
                             ~~~~~~~~~~~~~~~~~~~~~~

        The calculation of phases done along the direction of vector 1
        of the reciprocal lattice gives the following contribution to
        the polarization vector (in different units, and being Omega
        the volume of the unit cell):

           P =   4.0970704  (mod  16.5204617)  (e/Omega).bohr

           P =   0.0016197  (mod   0.0065310)  e/bohr^2

           P =   0.0926008  (mod   0.3733908)  C/m^2

        The polarization direction is:  ( 1.00000 , 0.00000 , 0.00000 )


               ==================================================



     Writing output data file ./wfc-out/pwscf.save/
 
     init_run     :      0.79s CPU      0.93s WALL (       1 calls)
     electrons    :    109.42s CPU    113.02s WALL (       1 calls)

     Called by init_run:
     wfcinit      :      0.00s CPU      0.02s WALL (       1 calls)
     potinit      :      0.06s CPU      0.08s WALL (       1 calls)
     hinit0       :      0.27s CPU      0.28s WALL (       1 calls)

     Called by electrons:
     c_bands      :    102.36s CPU    105.75s WALL (       1 calls)
     v_of_rho     :      0.04s CPU      0.04s WALL (       1 calls)
     newd         :      0.16s CPU      0.22s WALL (       1 calls)

     Called by c_bands:
     init_us_2    :      0.17s CPU      0.22s WALL (     344 calls)
     cegterg      :     97.64s CPU    100.70s WALL (     366 calls)

     Called by *egterg:
     cdiaghg      :      5.00s CPU      5.07s WALL (    7053 calls)
     h_psi        :     73.01s CPU     75.81s WALL (    7419 calls)
     s_psi        :      3.46s CPU      3.53s WALL (    7419 calls)
     g_psi        :      0.56s CPU      0.56s WALL (    6933 calls)

     Called by h_psi:
     h_psi:calbec :      5.27s CPU      5.44s WALL (    7419 calls)
     vloc_psi     :     62.67s CPU     65.22s WALL (    7419 calls)
     add_vuspsi   :      4.43s CPU      4.51s WALL (    7419 calls)

     General routines
     calbec       :      5.91s CPU      6.12s WALL (    7643 calls)
     fft          :      0.03s CPU      0.04s WALL (      13 calls)
     ffts         :      0.00s CPU      0.00s WALL (       1 calls)
     fftw         :     56.15s CPU     58.45s WALL (  275128 calls)
     interpolate  :      0.00s CPU      0.00s WALL (       1 calls)
     davcio       :      0.09s CPU      0.36s WALL (     464 calls)
 
     Parallel routines
     fft_scatt_xy :      7.31s CPU      7.61s WALL (  275142 calls)
     fft_scatt_yz :     31.41s CPU     32.74s WALL (  275142 calls)
 
     PWSCF        :   1m56.29s CPU   3m24.79s WALL

 
   This run was terminated on:   6:41:27   8May2023            

=------------------------------------------------------------------------------=
   JOB DONE.
=------------------------------------------------------------------------------=
