Automatically generated mesh
      16
Reciprocal lattice
    0.12500000000000    0.12500000000000    0.00000000000000             1
    0.37500000000000    0.12500000000000    0.00000000000000             1
   -0.37500000000000    0.12500000000000    0.00000000000000             1
   -0.12500000000000    0.12500000000000    0.00000000000000             1
    0.12500000000000    0.37500000000000    0.00000000000000             1
    0.37500000000000    0.37500000000000    0.00000000000000             1
   -0.37500000000000    0.37500000000000    0.00000000000000             1
   -0.12500000000000    0.37500000000000    0.00000000000000             1
    0.12500000000000   -0.37500000000000    0.00000000000000             1
    0.37500000000000   -0.37500000000000    0.00000000000000             1
   -0.37500000000000   -0.37500000000000    0.00000000000000             1
   -0.12500000000000   -0.37500000000000    0.00000000000000             1
    0.12500000000000   -0.12500000000000    0.00000000000000             1
    0.37500000000000   -0.12500000000000    0.00000000000000             1
   -0.37500000000000   -0.12500000000000    0.00000000000000             1
   -0.12500000000000   -0.12500000000000    0.00000000000000             1
