 vasp.5.4.4.18Apr17-6-g9f103f2a35 (build Jan 05 2022 20:33:25) complex          
  
 03/POSCAR found :  2 types and       6 ions
 scaLAPACK will be used

 ----------------------------------------------------------------------------- 
|                                                                             |
|           W    W    AA    RRRRR   N    N  II  N    N   GGGG   !!!           |
|           W    W   A  A   R    R  NN   N  II  NN   N  G    G  !!!           |
|           W    W  A    A  R    R  N N  N  II  N N  N  G       !!!           |
|           W WW W  AAAAAA  RRRRR   N  N N  II  N  N N  G  GGG   !            |
|           WW  WW  A    A  R   R   N   NN  II  N   NN  G    G                |
|           W    W  A    A  R    R  N    N  II  N    N   GGGG   !!!           |
|                                                                             |
|      For optimal performance we recommend to set                            |
|        NCORE= 4 - approx SQRT( number of cores)                             |
|      NCORE specifies how many cores store one orbital (NPAR=cpu/NCORE).     |
|      This setting can  greatly improve the performance of VASP for DFT.     |
|      The default,   NCORE=1            might be grossly inefficient         |
|      on modern multi-core architectures or massively parallel machines.     |
|      Do your own testing !!!!                                               |
|      Unfortunately you need to use the default for GW and RPA calculations. |
|      (for HF NCORE is supported but not extensively tested yet)             |
|                                                                             |
 ----------------------------------------------------------------------------- 

 LDA part: xc-table for Pade appr. of Perdew
 00/POSCAR found :  2 types and       6 ions
 04/POSCAR found :  2 types and       6 ions
 Jacobian:    11.4326695265214     
 POSCAR, INCAR and KPOINTS ok, starting setup
 FFT: planning ...
 WAVECAR not read
 entering main loop
       N       E                     dE             d eps       ncg     rms          rms(c)
DAV:   1     0.276527434905E+03    0.27653E+03   -0.11544E+04  2992   0.127E+03
DAV:   2     0.267389323819E+01   -0.27385E+03   -0.26716E+03  4832   0.198E+02
DAV:   3    -0.345014737765E+02   -0.37175E+02   -0.36804E+02  3762   0.832E+01
DAV:   4    -0.363224080113E+02   -0.18209E+01   -0.18061E+01  4708   0.216E+01
DAV:   5    -0.363612163137E+02   -0.38808E-01   -0.38747E-01  4524   0.350E+00    0.216E+01
DAV:   6    -0.354338392474E+02    0.92738E+00   -0.46978E+00  4304   0.104E+01    0.900E+00
DAV:   7    -0.354513209803E+02   -0.17482E-01   -0.69842E+00  4044   0.123E+01    0.626E+00
DAV:   8    -0.349946375905E+02    0.45668E+00   -0.21855E+00  4092   0.689E+00    0.256E+00
DAV:   9    -0.349876873148E+02    0.69503E-02   -0.58199E-01  4586   0.361E+00    0.132E+00
DAV:  10    -0.349786048691E+02    0.90824E-02   -0.14070E-01  4374   0.187E+00    0.855E-01
DAV:  11    -0.349727659615E+02    0.58389E-02   -0.26768E-02  4226   0.776E-01    0.435E-01
DAV:  12    -0.349717881297E+02    0.97783E-03   -0.50968E-03  4352   0.349E-01    0.266E-01
DAV:  13    -0.349712687492E+02    0.51938E-03   -0.17946E-03  4304   0.201E-01    0.110E-01
DAV:  14    -0.349711618611E+02    0.10689E-03   -0.22274E-04  3798   0.758E-02    0.680E-02
DAV:  15    -0.349710605754E+02    0.10129E-03   -0.51282E-04  3774   0.858E-02    0.325E-02
DAV:  16    -0.349711137323E+02   -0.53157E-04   -0.35666E-05  4352   0.261E-02    0.189E-02
DAV:  17    -0.349712056381E+02   -0.91906E-04   -0.21474E-05  3786   0.212E-02    0.146E-02
DAV:  18    -0.349713817563E+02   -0.17612E-03   -0.52548E-05  3596   0.281E-02    0.174E-02
DAV:  19    -0.349714077432E+02   -0.25987E-04   -0.61324E-06  3798   0.128E-02    0.119E-02
DAV:  20    -0.349714894812E+02   -0.81738E-04   -0.58727E-06  3274   0.120E-02    0.657E-03
DAV:  21    -0.349715198397E+02   -0.30359E-04   -0.18937E-06  2766   0.724E-03    0.406E-03
DAV:  22    -0.349715488498E+02   -0.29010E-04   -0.14909E-06  2666   0.541E-03    0.255E-03
DAV:  23    -0.349715667014E+02   -0.17852E-04   -0.48731E-07  2380   0.323E-03    0.198E-03
DAV:  24    -0.349715738524E+02   -0.71509E-05   -0.13576E-07  2000   0.140E-03    0.161E-03
DAV:  25    -0.349715791159E+02   -0.52635E-05   -0.15448E-07  2132   0.139E-03    0.481E-04
DAV:  26    -0.349715823936E+02   -0.32777E-05   -0.13198E-07  1904   0.135E-03    0.594E-04
DAV:  27    -0.349715831316E+02   -0.73799E-06   -0.38683E-08  1766   0.819E-04
   1 F= -.34971583E+02 E0= -.34967396E+02  d E =-.349716E+02
quench:  g(F)=  0.000E+00 g(S)=  0.000E+00 dE (1.order)= 0.000E+00
 bond charge predicted
       N       E                     dE             d eps       ncg     rms          rms(c)
DAV:   1    -0.350526453507E+02   -0.81063E-01   -0.18773E+00  2992   0.725E+00    0.539E-01
DAV:   2    -0.350546921774E+02   -0.20468E-02   -0.31205E-02  4064   0.955E-01    0.271E-01
DAV:   3    -0.350549456752E+02   -0.25350E-03   -0.13178E-02  4464   0.539E-01    0.232E-01
DAV:   4    -0.350543430994E+02    0.60258E-03   -0.93882E-03  4412   0.417E-01    0.162E-01
DAV:   5    -0.350541139559E+02    0.22914E-03   -0.11668E-03  4286   0.153E-01    0.525E-02
DAV:   6    -0.350541097147E+02    0.42412E-05   -0.11629E-04  3982   0.619E-02    0.136E-02
DAV:   7    -0.350541063532E+02    0.33615E-05   -0.23781E-05  3992   0.260E-02    0.861E-03
DAV:   8    -0.350541063099E+02    0.43308E-07   -0.25360E-06  2760   0.953E-03
   2 F= -.35054106E+02 E0= -.35049850E+02  d E =-.825232E-01
quench:  g(F)=  0.000E+00 g(S)=  0.000E+00 dE (1.order)= 0.000E+00
 bond charge predicted
       N       E                     dE             d eps       ncg     rms          rms(c)
DAV:   1    -0.351527017920E+02   -0.98595E-01   -0.59985E+00  2992   0.129E+01    0.927E-01
DAV:   2    -0.351593319178E+02   -0.66301E-02   -0.97180E-02  4088   0.168E+00    0.464E-01
DAV:   3    -0.351598567724E+02   -0.52485E-03   -0.35283E-02  4464   0.889E-01    0.379E-01
DAV:   4    -0.351583308282E+02    0.15259E-02   -0.25522E-02  4444   0.691E-01    0.276E-01
DAV:   5    -0.351576337330E+02    0.69710E-03   -0.34064E-03  4350   0.266E-01    0.866E-02
DAV:   6    -0.351576307746E+02    0.29584E-05   -0.37624E-04  4034   0.106E-01    0.256E-02
DAV:   7    -0.351576203347E+02    0.10440E-04   -0.85326E-05  4124   0.488E-02    0.161E-02
DAV:   8    -0.351576203086E+02    0.26041E-07   -0.82773E-06  3998   0.157E-02
   3 F= -.35157620E+02 E0= -.35153168E+02  d E =-.103514E+00
quench:  g(F)=  0.000E+00 g(S)=  0.000E+00 dE (1.order)= 0.000E+00
 bond charge predicted
       N       E                     dE             d eps       ncg     rms          rms(c)
DAV:   1    -0.352180916908E+02   -0.60471E-01   -0.93026E+00  2992   0.161E+01    0.109E+00
DAV:   2    -0.352283103298E+02   -0.10219E-01   -0.14212E-01  4056   0.202E+00    0.539E-01
DAV:   3    -0.352285524408E+02   -0.24211E-03   -0.36798E-02  4488   0.926E-01    0.400E-01
DAV:   4    -0.352273197066E+02    0.12327E-02   -0.30564E-02  4448   0.758E-01    0.337E-01
DAV:   5    -0.352261938333E+02    0.11259E-02   -0.56273E-03  4394   0.343E-01    0.938E-02
DAV:   6    -0.352261998989E+02   -0.60656E-05   -0.86237E-04  4440   0.149E-01    0.441E-02
DAV:   7    -0.352261758222E+02    0.24077E-04   -0.19048E-04  4178   0.736E-02    0.202E-02
DAV:   8    -0.352261759799E+02   -0.15765E-06   -0.16650E-05  4690   0.221E-02    0.141E-02
DAV:   9    -0.352261756313E+02    0.34853E-06   -0.73107E-06  3820   0.128E-02
   4 F= -.35226176E+02 E0= -.35221242E+02  d E =-.685553E-01
quench:  g(F)=  0.000E+00 g(S)=  0.000E+00 dE (1.order)= 0.000E+00
 bond charge predicted
       N       E                     dE             d eps       ncg     rms          rms(c)
DAV:   1    -0.352523246305E+02   -0.26149E-01   -0.97955E+00  2992   0.165E+01    0.105E+00
DAV:   2    -0.352630847835E+02   -0.10760E-01   -0.14569E-01  3970   0.204E+00    0.547E-01
DAV:   3    -0.352628539898E+02    0.23079E-03   -0.24506E-02  4456   0.791E-01    0.357E-01
DAV:   4    -0.352627373326E+02    0.11666E-03   -0.25549E-02  4458   0.697E-01    0.369E-01
DAV:   5    -0.352614084466E+02    0.13289E-02   -0.86001E-03  4444   0.418E-01    0.120E-01
DAV:   6    -0.352613218826E+02    0.86564E-04   -0.12034E-03  4358   0.176E-01    0.303E-02
DAV:   7    -0.352613164121E+02    0.54706E-05   -0.12262E-04  4342   0.626E-02    0.266E-02
DAV:   8    -0.352613158576E+02    0.55442E-06   -0.11746E-05  4420   0.181E-02    0.228E-02
DAV:   9    -0.352613150168E+02    0.84088E-06   -0.48644E-06  3730   0.104E-02
   5 F= -.35261315E+02 E0= -.35255549E+02  d E =-.351394E-01
quench:  g(F)=  0.000E+00 g(S)=  0.000E+00 dE (1.order)= 0.000E+00
 bond charge predicted
       N       E                     dE             d eps       ncg     rms          rms(c)
DAV:   1    -0.352818214671E+02   -0.20506E-01   -0.92230E+00  2992   0.160E+01    0.103E+00
DAV:   2    -0.352922897061E+02   -0.10468E-01   -0.14304E-01  3980   0.201E+00    0.540E-01
DAV:   3    -0.352918855327E+02    0.40417E-03   -0.16907E-02  4328   0.690E-01    0.339E-01
DAV:   4    -0.352921730609E+02   -0.28753E-03   -0.17258E-02  4468   0.586E-01    0.363E-01
DAV:   5    -0.352911547996E+02    0.10183E-02   -0.10105E-02  4520   0.443E-01    0.168E-01
DAV:   6    -0.352909910911E+02    0.16371E-03   -0.20959E-03  4186   0.225E-01    0.481E-02
DAV:   7    -0.352909557157E+02    0.35375E-04   -0.31916E-04  4208   0.945E-02    0.388E-02
DAV:   8    -0.352909568987E+02   -0.11831E-05   -0.29210E-05  4662   0.278E-02    0.279E-02
DAV:   9    -0.352909547869E+02    0.21118E-05   -0.13344E-05  3966   0.176E-02    0.660E-03
DAV:  10    -0.352909562226E+02   -0.14357E-05   -0.20080E-06  2540   0.761E-03    0.197E-03
DAV:  11    -0.352909576512E+02   -0.14286E-05   -0.47523E-07  2288   0.382E-03    0.137E-03
DAV:  12    -0.352909600156E+02   -0.23644E-05   -0.32157E-07  2132   0.264E-03    0.587E-04
DAV:  13    -0.352909618164E+02   -0.18008E-05   -0.24304E-07  2006   0.202E-03    0.568E-04
DAV:  14    -0.352909635042E+02   -0.16878E-05   -0.15598E-07  2030   0.157E-03    0.371E-04
DAV:  15    -0.352909651721E+02   -0.16678E-05   -0.19508E-07  2084   0.137E-03    0.161E-04
DAV:  16    -0.352909657763E+02   -0.60424E-06   -0.59728E-08  1808   0.865E-04
   6 F= -.35290966E+02 E0= -.35284552E+02  d E =-.296508E-01
quench:  g(F)=  0.000E+00 g(S)=  0.000E+00 dE (1.order)= 0.000E+00
 bond charge predicted
       N       E                     dE             d eps       ncg     rms          rms(c)
DAV:   1    -0.353065916821E+02   -0.15627E-01   -0.93635E+00  2992   0.162E+01    0.104E+00
DAV:   2    -0.353175238165E+02   -0.10932E-01   -0.14896E-01  4082   0.204E+00    0.504E-01
DAV:   3    -0.353169528330E+02    0.57098E-03   -0.11733E-02  4222   0.597E-01    0.322E-01
DAV:   4    -0.353169942806E+02   -0.41448E-04   -0.71222E-03  4404   0.401E-01    0.305E-01
DAV:   5    -0.353168707563E+02    0.12352E-03   -0.96887E-03  4544   0.430E-01    0.198E-01
DAV:   6    -0.353164096258E+02    0.46113E-03   -0.41506E-03  4418   0.300E-01    0.521E-02
DAV:   7    -0.353163673485E+02    0.42277E-04   -0.48572E-04  4144   0.110E-01    0.357E-02
DAV:   8    -0.353163674832E+02   -0.13476E-06   -0.36827E-05  4370   0.332E-02    0.246E-02
DAV:   9    -0.353163641021E+02    0.33812E-05   -0.20039E-05  4316   0.211E-02    0.107E-02
DAV:  10    -0.353163645072E+02   -0.40511E-06   -0.23869E-06  2522   0.919E-03
   7 F= -.35316365E+02 E0= -.35309742E+02  d E =-.253987E-01
quench:  g(F)=  0.000E+00 g(S)=  0.000E+00 dE (1.order)= 0.000E+00
 bond charge predicted
       N       E                     dE             d eps       ncg     rms          rms(c)
DAV:   1    -0.353197474796E+02   -0.33834E-02   -0.11568E+01  2992   0.179E+01    0.106E+00
DAV:   2    -0.353326122534E+02   -0.12865E-01   -0.17043E-01  4110   0.219E+00    0.474E-01
DAV:   3    -0.353318031693E+02    0.80908E-03   -0.10354E-02  4064   0.580E-01    0.307E-01
DAV:   4    -0.353315264653E+02    0.27670E-03   -0.18673E-03  4368   0.242E-01    0.250E-01
DAV:   5    -0.353313235818E+02    0.20288E-03   -0.20212E-03  4352   0.231E-01    0.803E-02
DAV:   6    -0.353312551520E+02    0.68430E-04   -0.14143E-03  4372   0.183E-01    0.490E-02
DAV:   7    -0.353312238676E+02    0.31284E-04   -0.43531E-04  4400   0.962E-02    0.235E-02
DAV:   8    -0.353312176615E+02    0.62061E-05   -0.50555E-05  4228   0.348E-02    0.179E-02
DAV:   9    -0.353312182406E+02   -0.57919E-06   -0.45087E-06  3504   0.114E-02
   8 F= -.35331218E+02 E0= -.35324449E+02  d E =-.148537E-01
quench:  g(F)=  0.000E+00 g(S)=  0.000E+00 dE (1.order)= 0.000E+00
 bond charge predicted
       N       E                     dE             d eps       ncg     rms          rms(c)
DAV:   1    -0.353354981728E+02   -0.42805E-02   -0.92253E-03  2992   0.498E-01    0.540E-02
DAV:   2    -0.353355229984E+02   -0.24826E-04   -0.29454E-04  3848   0.883E-02    0.245E-02
DAV:   3    -0.353355246123E+02   -0.16139E-05   -0.14837E-05  4354   0.217E-02    0.168E-02
DAV:   4    -0.353355270715E+02   -0.24592E-05   -0.12428E-05  4032   0.166E-02    0.130E-02
DAV:   5    -0.353355288657E+02   -0.17942E-05   -0.30912E-05  4288   0.245E-02    0.927E-03
DAV:   6    -0.353355283469E+02    0.51879E-06   -0.91179E-06  3774   0.134E-02
   9 F= -.35335528E+02 E0= -.35328803E+02  d E =-.431011E-02
quench:  g(F)=  0.000E+00 g(S)=  0.000E+00 dE (1.order)= 0.000E+00
 bond charge predicted
       N       E                     dE             d eps       ncg     rms          rms(c)
DAV:   1    -0.353437368688E+02   -0.82080E-02   -0.35383E-02  2992   0.974E-01    0.106E-01
DAV:   2    -0.353438271279E+02   -0.90259E-04   -0.11205E-03  3832   0.171E-01    0.477E-02
DAV:   3    -0.353438300202E+02   -0.28923E-05   -0.57290E-05  4572   0.418E-02    0.320E-02
DAV:   4    -0.353438390046E+02   -0.89844E-05   -0.84795E-05  4608   0.414E-02    0.289E-02
DAV:   5    -0.353438343529E+02    0.46517E-05   -0.12437E-04  4690   0.486E-02    0.139E-02
DAV:   6    -0.353438326850E+02    0.16679E-05   -0.17277E-05  4172   0.187E-02    0.286E-03
DAV:   7    -0.353438327612E+02   -0.76185E-07   -0.77383E-07  2420   0.517E-03
  10 F= -.35343833E+02 E0= -.35337192E+02  d E =-.830441E-02
quench:  g(F)=  0.000E+00 g(S)=  0.000E+00 dE (1.order)= 0.000E+00
 bond charge predicted
       N       E                     dE             d eps       ncg     rms          rms(c)
DAV:   1    -0.353553236423E+02   -0.11491E-01   -0.74704E-02  2992   0.141E+00    0.156E-01
DAV:   2    -0.353555138479E+02   -0.19021E-03   -0.23923E-03  3816   0.250E-01    0.698E-02
DAV:   3    -0.353555185435E+02   -0.46956E-05   -0.12279E-04  4642   0.611E-02    0.469E-02
DAV:   4    -0.353555391428E+02   -0.20599E-04   -0.21381E-04  4624   0.653E-02    0.443E-02
DAV:   5    -0.353555224514E+02    0.16691E-04   -0.26884E-04  4712   0.717E-02    0.181E-02
DAV:   6    -0.353555195776E+02    0.28738E-05   -0.27354E-05  4248   0.242E-02    0.423E-03
DAV:   7    -0.353555195379E+02    0.39669E-07   -0.14444E-06  2656   0.692E-03
  11 F= -.35355520E+02 E0= -.35349005E+02  d E =-.116868E-01
quench:  g(F)=  0.000E+00 g(S)=  0.000E+00 dE (1.order)= 0.000E+00
 bond charge predicted
       N       E                     dE             d eps       ncg     rms          rms(c)
DAV:   1    -0.353694679608E+02   -0.13948E-01   -0.12185E-01  2992   0.180E+00    0.202E-01
DAV:   2    -0.353697816126E+02   -0.31365E-03   -0.39545E-03  3816   0.322E-01    0.903E-02
DAV:   3    -0.353697885786E+02   -0.69660E-05   -0.20641E-04  4712   0.793E-02    0.610E-02
DAV:   4    -0.353698291940E+02   -0.40615E-04   -0.42915E-04  4632   0.921E-02    0.607E-02
DAV:   5    -0.353697900798E+02    0.39114E-04   -0.45675E-04  4768   0.938E-02    0.203E-02
DAV:   6    -0.353697874221E+02    0.26577E-05   -0.31275E-05  4028   0.272E-02    0.553E-03
DAV:   7    -0.353697873837E+02    0.38433E-07   -0.24722E-06  2914   0.859E-03
  12 F= -.35369787E+02 E0= -.35363434E+02  d E =-.142678E-01
quench:  g(F)=  0.000E+00 g(S)=  0.000E+00 dE (1.order)= 0.000E+00
 bond charge predicted
       N       E                     dE             d eps       ncg     rms          rms(c)
DAV:   1    -0.353853185623E+02   -0.15531E-01   -0.17143E-01  2992   0.214E+00    0.241E-01
DAV:   2    -0.353857669538E+02   -0.44839E-03   -0.56348E-03  3808   0.384E-01    0.109E-01
DAV:   3    -0.353857770065E+02   -0.10053E-04   -0.30874E-04  4816   0.968E-02    0.737E-02
DAV:   4    -0.353858474368E+02   -0.70430E-04   -0.75588E-04  4664   0.122E-01    0.782E-02
DAV:   5    -0.353857733621E+02    0.74075E-04   -0.66779E-04  4744   0.114E-01    0.202E-02
DAV:   6    -0.353857727469E+02    0.61522E-06   -0.29901E-05  3864   0.288E-02    0.675E-03
DAV:   7    -0.353857726867E+02    0.60161E-07   -0.33210E-06  3158   0.897E-03
  13 F= -.35385773E+02 E0= -.35379604E+02  d E =-.159853E-01
quench:  g(F)=  0.000E+00 g(S)=  0.000E+00 dE (1.order)= 0.000E+00
 bond charge predicted
       N       E                     dE             d eps       ncg     rms          rms(c)
DAV:   1    -0.354020941345E+02   -0.16321E-01   -0.21917E-01  2992   0.241E+00    0.274E-01
DAV:   2    -0.354026758285E+02   -0.58169E-03   -0.72711E-03  3808   0.436E-01    0.123E-01
DAV:   3    -0.354026894839E+02   -0.13655E-04   -0.42221E-04  4818   0.113E-01    0.845E-02
DAV:   4    -0.354027914628E+02   -0.10198E-03   -0.11306E-03  4664   0.149E-01    0.934E-02
DAV:   5    -0.354026793802E+02    0.11208E-03   -0.85456E-04  4720   0.129E-01    0.186E-02
DAV:   6    -0.354026808363E+02   -0.14561E-05   -0.30241E-05  3646   0.307E-02    0.773E-03
DAV:   7    -0.354026807382E+02    0.98119E-07   -0.34712E-06  3424   0.904E-03
  14 F= -.35402681E+02 E0= -.35396706E+02  d E =-.169081E-01
quench:  g(F)=  0.000E+00 g(S)=  0.000E+00 dE (1.order)= 0.000E+00
 bond charge predicted
       N       E                     dE             d eps       ncg     rms          rms(c)
DAV:   1    -0.354207849809E+02   -0.18104E-01   -0.32367E-01  2992   0.293E+00    0.332E-01
DAV:   2    -0.354216494461E+02   -0.86447E-03   -0.10730E-02  3808   0.530E-01    0.149E-01
DAV:   3    -0.354216695678E+02   -0.20122E-04   -0.65548E-04  4798   0.141E-01    0.103E-01
DAV:   4    -0.354218214014E+02   -0.15183E-03   -0.17684E-03  4656   0.187E-01    0.115E-01
DAV:   5    -0.354216484428E+02    0.17296E-03   -0.11980E-03  4720   0.154E-01    0.180E-02
DAV:   6    -0.354216514577E+02   -0.30149E-05   -0.41411E-05  3742   0.364E-02    0.920E-03
DAV:   7    -0.354216512636E+02    0.19408E-06   -0.34715E-06  3294   0.100E-02
  15 F= -.35421651E+02 E0= -.35415881E+02  d E =-.189705E-01
quench:  g(F)=  0.000E+00 g(S)=  0.000E+00 dE (1.order)= 0.000E+00
 bond charge predicted
       N       E                     dE             d eps       ncg     rms          rms(c)
DAV:   1    -0.354408488718E+02   -0.19197E-01   -0.45709E-01  2992   0.349E+00    0.387E-01
DAV:   2    -0.354420600764E+02   -0.12112E-02   -0.14918E-02  3824   0.624E-01    0.171E-01
DAV:   3    -0.354420874272E+02   -0.27351E-04   -0.95814E-04  4782   0.170E-01    0.121E-01
DAV:   4    -0.354422703453E+02   -0.18292E-03   -0.23362E-03  4656   0.216E-01    0.131E-01
DAV:   5    -0.354420527026E+02    0.21764E-03   -0.14936E-03  4704   0.172E-01    0.184E-02
DAV:   6    -0.354420563288E+02   -0.36262E-05   -0.57425E-05  3730   0.426E-02    0.112E-02
DAV:   7    -0.354420560529E+02    0.27589E-06   -0.49536E-06  3538   0.128E-02
  16 F= -.35442056E+02 E0= -.35436492E+02  d E =-.204048E-01
quench:  g(F)=  0.000E+00 g(S)=  0.000E+00 dE (1.order)= 0.000E+00
 bond charge predicted
       N       E                     dE             d eps       ncg     rms          rms(c)
DAV:   1    -0.354616180405E+02   -0.19562E-01   -0.60806E-01  2992   0.404E+00    0.426E-01
DAV:   2    -0.354631876085E+02   -0.15696E-02   -0.19133E-02  3888   0.705E-01    0.182E-01
DAV:   3    -0.354632194301E+02   -0.31822E-04   -0.12549E-03  4768   0.195E-01    0.133E-01
DAV:   4    -0.354633853096E+02   -0.16588E-03   -0.25044E-03  4648   0.227E-01    0.136E-01
DAV:   5    -0.354631724336E+02    0.21288E-03   -0.15694E-03  4664   0.178E-01    0.215E-02
DAV:   6    -0.354631748967E+02   -0.24631E-05   -0.84061E-05  3752   0.492E-02    0.145E-02
DAV:   7    -0.354631742172E+02    0.67943E-06   -0.96371E-06  4090   0.182E-02
  17 F= -.35463174E+02 E0= -.35457820E+02  d E =-.211182E-01
quench:  g(F)=  0.000E+00 g(S)=  0.000E+00 dE (1.order)= 0.000E+00
 bond charge predicted
       N       E                     dE             d eps       ncg     rms          rms(c)
DAV:   1    -0.354829215497E+02   -0.19747E-01   -0.74031E-01  2992   0.448E+00    0.431E-01
DAV:   2    -0.354847355163E+02   -0.18140E-02   -0.21772E-02  3928   0.747E-01    0.174E-01
DAV:   3    -0.354847628126E+02   -0.27296E-04   -0.12372E-03  4768   0.193E-01    0.131E-01
DAV:   4    -0.354848861901E+02   -0.12338E-03   -0.19837E-03  4640   0.205E-01    0.124E-01
DAV:   5    -0.354847240279E+02    0.16216E-03   -0.14018E-03  4640   0.169E-01    0.271E-02
DAV:   6    -0.354847226001E+02    0.14279E-05   -0.13217E-04  4088   0.571E-02    0.184E-02
DAV:   7    -0.354847207826E+02    0.18175E-05   -0.17647E-05  4262   0.223E-02    0.789E-03
DAV:   8    -0.354847209148E+02   -0.13222E-06   -0.15679E-06  2546   0.747E-03
  18 F= -.35484721E+02 E0= -.35479587E+02  d E =-.215467E-01
quench:  g(F)=  0.000E+00 g(S)=  0.000E+00 dE (1.order)= 0.000E+00
 bond charge predicted
       N       E                     dE             d eps       ncg     rms          rms(c)
DAV:   1    -0.355056585668E+02   -0.20938E-01   -0.85136E-01  2992   0.484E+00    0.405E-01
DAV:   2    -0.355075738298E+02   -0.19153E-02   -0.22577E-02  3954   0.755E-01    0.148E-01
DAV:   3    -0.355075807982E+02   -0.69684E-05   -0.86531E-04  4860   0.159E-01    0.118E-01
DAV:   4    -0.355076449443E+02   -0.64146E-04   -0.90201E-04  4600   0.142E-01    0.893E-02
DAV:   5    -0.355075697511E+02    0.75193E-04   -0.10272E-03  4560   0.148E-01    0.354E-02
DAV:   6    -0.355075573393E+02    0.12412E-04   -0.20261E-04  4138   0.676E-02    0.189E-02
DAV:   7    -0.355075550137E+02    0.23255E-05   -0.22494E-05  4132   0.237E-02    0.809E-03
DAV:   8    -0.355075551445E+02   -0.13078E-06   -0.18467E-06  2536   0.768E-03
  19 F= -.35507555E+02 E0= -.35502646E+02  d E =-.228342E-01
quench:  g(F)=  0.000E+00 g(S)=  0.000E+00 dE (1.order)= 0.000E+00
 bond charge predicted
       N       E                     dE             d eps       ncg     rms          rms(c)
DAV:   1    -0.355312486708E+02   -0.23694E-01   -0.10265E+00  2992   0.536E+00    0.397E-01
DAV:   2    -0.355333001966E+02   -0.20515E-02   -0.23990E-02  4018   0.779E-01    0.125E-01
DAV:   3    -0.355332819997E+02    0.18197E-04   -0.81754E-04  4800   0.155E-01    0.108E-01
DAV:   4    -0.355332894395E+02   -0.74398E-05   -0.44913E-04  4608   0.993E-02    0.693E-02
DAV:   5    -0.355332600372E+02    0.29402E-04   -0.57496E-04  4498   0.113E-01    0.357E-02
DAV:   6    -0.355332468266E+02    0.13211E-04   -0.19205E-04  4404   0.682E-02    0.166E-02
DAV:   7    -0.355332445597E+02    0.22669E-05   -0.18954E-05  4144   0.227E-02    0.644E-03
DAV:   8    -0.355332446764E+02   -0.11676E-06   -0.18430E-06  2540   0.738E-03
  20 F= -.35533245E+02 E0= -.35528538E+02  d E =-.256895E-01
quench:  g(F)=  0.000E+00 g(S)=  0.000E+00 dE (1.order)= 0.000E+00
 bond charge predicted
       N       E                     dE             d eps       ncg     rms          rms(c)
DAV:   1    -0.355587546118E+02   -0.25510E-01   -0.12663E+00  2992   0.598E+00    0.404E-01
DAV:   2    -0.355609512775E+02   -0.21967E-02   -0.26054E-02  4120   0.825E-01    0.135E-01
DAV:   3    -0.355609092060E+02    0.42072E-04   -0.13579E-03  4644   0.204E-01    0.109E-01
DAV:   4    -0.355608938617E+02    0.15344E-04   -0.92708E-04  4528   0.144E-01    0.941E-02
DAV:   5    -0.355608310332E+02    0.62828E-04   -0.56607E-04  4398   0.116E-01    0.357E-02
DAV:   6    -0.355608193433E+02    0.11690E-04   -0.12717E-04  4144   0.586E-02    0.144E-02
DAV:   7    -0.355608190463E+02    0.29695E-06   -0.82470E-06  3842   0.168E-02
  21 F= -.35560819E+02 E0= -.35556272E+02  d E =-.275744E-01
quench:  g(F)=  0.000E+00 g(S)=  0.000E+00 dE (1.order)= 0.000E+00
 bond charge predicted
       N       E                     dE             d eps       ncg     rms          rms(c)
DAV:   1    -0.355613485337E+02   -0.52919E-03   -0.19037E-03  2992   0.228E-01    0.265E-02
DAV:   2    -0.355613524077E+02   -0.38740E-05   -0.58695E-05  3832   0.388E-02    0.117E-02
DAV:   3    -0.355613519839E+02    0.42376E-06   -0.17127E-06  2886   0.834E-03
  22 F= -.35561352E+02 E0= -.35556796E+02  d E =-.532938E-03
quench:  g(F)=  0.000E+00 g(S)=  0.000E+00 dE (1.order)= 0.000E+00
 bond charge predicted
       N       E                     dE             d eps       ncg     rms          rms(c)
DAV:   1    -0.355623656825E+02   -0.10133E-02   -0.73669E-03  2992   0.449E-01    0.517E-02
DAV:   2    -0.355623828463E+02   -0.17164E-04   -0.25456E-04  3912   0.842E-02    0.262E-02
DAV:   3    -0.355623824937E+02    0.35265E-06   -0.46067E-05  4496   0.370E-02    0.188E-02
DAV:   4    -0.355623823628E+02    0.13088E-06   -0.52243E-05  4482   0.334E-02    0.175E-02
DAV:   5    -0.355623783058E+02    0.40570E-05   -0.17921E-05  4060   0.196E-02    0.252E-03
DAV:   6    -0.355623782372E+02    0.68560E-07   -0.68862E-07  2276   0.534E-03
  23 F= -.35562378E+02 E0= -.35557803E+02  d E =-.102625E-02
quench:  g(F)=  0.000E+00 g(S)=  0.000E+00 dE (1.order)= 0.000E+00
 bond charge predicted
       N       E                     dE             d eps       ncg     rms          rms(c)
DAV:   1    -0.355637722093E+02   -0.13939E-02   -0.15489E-02  2992   0.650E-01    0.751E-02
DAV:   2    -0.355638079767E+02   -0.35767E-04   -0.49905E-04  3832   0.116E-01    0.345E-02
DAV:   3    -0.355638069361E+02    0.10406E-05   -0.26211E-05  4824   0.288E-02    0.226E-02
DAV:   4    -0.355638128174E+02   -0.58813E-05   -0.75572E-05  4624   0.401E-02    0.244E-02
DAV:   5    -0.355638032918E+02    0.95255E-05   -0.62335E-05  4664   0.363E-02    0.485E-03
DAV:   6    -0.355638030060E+02    0.28586E-06   -0.20081E-06  2566   0.834E-03
  24 F= -.35563803E+02 E0= -.35559198E+02  d E =-.142477E-02
quench:  g(F)=  0.000E+00 g(S)=  0.000E+00 dE (1.order)= 0.000E+00
 bond charge predicted
       N       E                     dE             d eps       ncg     rms          rms(c)
DAV:   1    -0.355654433003E+02   -0.16400E-02   -0.24950E-02  2992   0.823E-01    0.958E-02
DAV:   2    -0.355655033052E+02   -0.60005E-04   -0.82720E-04  3832   0.149E-01    0.445E-02
DAV:   3    -0.355655020775E+02    0.12277E-05   -0.44833E-05  4814   0.378E-02    0.291E-02
DAV:   4    -0.355655126375E+02   -0.10560E-04   -0.12948E-04  4616   0.524E-02    0.319E-02
DAV:   5    -0.355654968761E+02    0.15761E-04   -0.10476E-04  4688   0.469E-02    0.629E-03
DAV:   6    -0.355654965009E+02    0.37521E-06   -0.35894E-06  3160   0.107E-02
  25 F= -.35565497E+02 E0= -.35560853E+02  d E =-.169349E-02
quench:  g(F)=  0.000E+00 g(S)=  0.000E+00 dE (1.order)= 0.000E+00
 bond charge predicted
       N       E                     dE             d eps       ncg     rms          rms(c)
DAV:   1    -0.355672563784E+02   -0.17595E-02   -0.34279E-02  2992   0.962E-01    0.113E-01
DAV:   2    -0.355673423532E+02   -0.85975E-04   -0.11763E-03  3824   0.177E-01    0.528E-02
DAV:   3    -0.355673411117E+02    0.12416E-05   -0.64196E-05  4794   0.454E-02    0.346E-02
DAV:   4    -0.355673563728E+02   -0.15261E-04   -0.18297E-04  4616   0.622E-02    0.380E-02
DAV:   5    -0.355673345522E+02    0.21821E-04   -0.14856E-04  4688   0.558E-02    0.766E-03
DAV:   6    -0.355673340479E+02    0.50433E-06   -0.51712E-06  3348   0.128E-02
  26 F= -.35567334E+02 E0= -.35562643E+02  d E =-.183755E-02
quench:  g(F)=  0.000E+00 g(S)=  0.000E+00 dE (1.order)= 0.000E+00
 bond charge predicted
       N       E                     dE             d eps       ncg     rms          rms(c)
DAV:   1    -0.355691551720E+02   -0.18206E-02   -0.42151E-02  2992   0.106E+00    0.126E-01
DAV:   2    -0.355692659104E+02   -0.11074E-03   -0.15073E-03  3824   0.199E-01    0.593E-02
DAV:   3    -0.355692648040E+02    0.11064E-05   -0.83392E-05  4780   0.518E-02    0.389E-02
DAV:   4    -0.355692844140E+02   -0.19610E-04   -0.23344E-04  4624   0.701E-02    0.429E-02
DAV:   5    -0.355692571183E+02    0.27296E-04   -0.18912E-04  4704   0.628E-02    0.885E-03
DAV:   6    -0.355692564833E+02    0.63494E-06   -0.66331E-06  3478   0.144E-02
  27 F= -.35569256E+02 E0= -.35564510E+02  d E =-.192244E-02
quench:  g(F)=  0.000E+00 g(S)=  0.000E+00 dE (1.order)= 0.000E+00
 bond charge predicted
       N       E                     dE             d eps       ncg     rms          rms(c)
DAV:   1    -0.355713920305E+02   -0.21349E-02   -0.58487E-02  2992   0.125E+00    0.149E-01
DAV:   2    -0.355715540727E+02   -0.16204E-03   -0.21891E-03  3824   0.239E-01    0.706E-02
DAV:   3    -0.355715533019E+02    0.77080E-06   -0.12183E-04  4776   0.628E-02    0.463E-02
DAV:   4    -0.355715813604E+02   -0.28058E-04   -0.33108E-04  4616   0.834E-02    0.511E-02
DAV:   5    -0.355715435166E+02    0.37844E-04   -0.26950E-04  4704   0.749E-02    0.109E-02
DAV:   6    -0.355715426164E+02    0.90012E-06   -0.96459E-06  3618   0.172E-02
  28 F= -.35571543E+02 E0= -.35566731E+02  d E =-.228613E-02
quench:  g(F)=  0.000E+00 g(S)=  0.000E+00 dE (1.order)= 0.000E+00
 bond charge predicted
       N       E                     dE             d eps       ncg     rms          rms(c)
DAV:   1    -0.355743233220E+02   -0.27798E-02   -0.75269E-02  2992   0.141E+00    0.168E-01
DAV:   2    -0.355745428508E+02   -0.21953E-03   -0.29383E-03  3804   0.275E-01    0.799E-02
DAV:   3    -0.355745428207E+02    0.30035E-07   -0.16750E-04  4756   0.738E-02    0.523E-02
DAV:   4    -0.355745788298E+02   -0.36009E-04   -0.43124E-04  4624   0.949E-02    0.582E-02
DAV:   5    -0.355745309417E+02    0.47888E-04   -0.34741E-04  4712   0.848E-02    0.129E-02
DAV:   6    -0.355745297704E+02    0.11713E-05   -0.12690E-05  3608   0.197E-02    0.556E-03
DAV:   7    -0.355745296097E+02    0.16068E-06   -0.13695E-06  2652   0.618E-03
  29 F= -.35574530E+02 E0= -.35569646E+02  d E =-.298699E-02
quench:  g(F)=  0.000E+00 g(S)=  0.000E+00 dE (1.order)= 0.000E+00
 bond charge predicted
       N       E                     dE             d eps       ncg     rms          rms(c)
DAV:   1    -0.355787080191E+02   -0.41782E-02   -0.88120E-02  2992   0.152E+00    0.175E-01
DAV:   2    -0.355789724478E+02   -0.26443E-03   -0.34558E-03  3766   0.296E-01    0.817E-02
DAV:   3    -0.355789724046E+02    0.43136E-07   -0.17092E-04  4766   0.744E-02    0.532E-02
DAV:   4    -0.355790046130E+02   -0.32208E-04   -0.38279E-04  4608   0.897E-02    0.562E-02
DAV:   5    -0.355789616465E+02    0.42967E-04   -0.35056E-04  4656   0.855E-02    0.145E-02
DAV:   6    -0.355789596575E+02    0.19890E-05   -0.15623E-05  3822   0.211E-02    0.581E-03
DAV:   7    -0.355789595070E+02    0.15051E-06   -0.17158E-06  2700   0.671E-03
  30 F= -.35578960E+02 E0= -.35574006E+02  d E =-.442990E-02
quench:  g(F)=  0.000E+00 g(S)=  0.000E+00 dE (1.order)= 0.000E+00
 bond charge predicted
       N       E                     dE             d eps       ncg     rms          rms(c)
DAV:   1    -0.355792683469E+02   -0.30869E-03   -0.49966E-05  3016   0.376E-02    0.369E-03
DAV:   2    -0.355792685590E+02   -0.21212E-06   -0.11617E-06  1946   0.587E-03
  31 F= -.35579269E+02 E0= -.35574316E+02  d E =-.309052E-03
quench:  g(F)=  0.000E+00 g(S)=  0.000E+00 dE (1.order)= 0.000E+00
 bond charge predicted
       N       E                     dE             d eps       ncg     rms          rms(c)
DAV:   1    -0.355798843869E+02   -0.61604E-03   -0.19567E-04  2992   0.741E-02    0.580E-03
DAV:   2    -0.355798850080E+02   -0.62111E-06   -0.47783E-06  3376   0.112E-02
  32 F= -.35579885E+02 E0= -.35574935E+02  d E =-.616449E-03
quench:  g(F)=  0.000E+00 g(S)=  0.000E+00 dE (1.order)= 0.000E+00
 bond charge predicted
       N       E                     dE             d eps       ncg     rms          rms(c)
DAV:   1    -0.355808037659E+02   -0.91938E-03   -0.43220E-04  2992   0.110E-01    0.827E-03
DAV:   2    -0.355808049792E+02   -0.12134E-05   -0.10650E-05  3824   0.164E-02    0.520E-03
DAV:   3    -0.355808051197E+02   -0.14051E-06   -0.33887E-07  2030   0.375E-03
  33 F= -.35580805E+02 E0= -.35575858E+02  d E =-.920112E-03
quench:  g(F)=  0.000E+00 g(S)=  0.000E+00 dE (1.order)= 0.000E+00
 bond charge predicted
       N       E                     dE             d eps       ncg     rms          rms(c)
DAV:   1    -0.355820214867E+02   -0.12165E-02   -0.74709E-04  2992   0.145E-01    0.114E-02
DAV:   2    -0.355820234035E+02   -0.19168E-05   -0.19091E-05  4168   0.223E-02    0.543E-03
DAV:   3    -0.355820235349E+02   -0.13144E-06   -0.18907E-06  2618   0.826E-03
  34 F= -.35582024E+02 E0= -.35577081E+02  d E =-.121842E-02
quench:  g(F)=  0.000E+00 g(S)=  0.000E+00 dE (1.order)= 0.000E+00
 bond charge predicted
       N       E                     dE             d eps       ncg     rms          rms(c)
DAV:   1    -0.355835299960E+02   -0.15066E-02   -0.11395E-03  2992   0.179E-01    0.136E-02
DAV:   2    -0.355835328037E+02   -0.28077E-05   -0.28061E-05  3960   0.269E-02    0.774E-03
DAV:   3    -0.355835329464E+02   -0.14268E-06   -0.11840E-06  2576   0.700E-03
  35 F= -.35583533E+02 E0= -.35578596E+02  d E =-.150941E-02
quench:  g(F)=  0.000E+00 g(S)=  0.000E+00 dE (1.order)= 0.000E+00
 bond charge predicted
       N       E                     dE             d eps       ncg     rms          rms(c)
DAV:   1    -0.355853218726E+02   -0.17891E-02   -0.15874E-03  2992   0.211E-01    0.164E-02
DAV:   2    -0.355853259326E+02   -0.40600E-05   -0.44884E-05  4272   0.349E-02    0.996E-03
DAV:   3    -0.355853260340E+02   -0.10146E-06   -0.10953E-05  3922   0.173E-02    0.815E-03
DAV:   4    -0.355853256847E+02    0.34935E-06   -0.38501E-06  3090   0.987E-03
  36 F= -.35585326E+02 E0= -.35580395E+02  d E =-.179274E-02
quench:  g(F)=  0.000E+00 g(S)=  0.000E+00 dE (1.order)= 0.000E+00
 bond charge predicted
       N       E                     dE             d eps       ncg     rms          rms(c)
DAV:   1    -0.355876222330E+02   -0.22962E-02   -0.25733E-03  2992   0.269E-01    0.212E-02
DAV:   2    -0.355876282531E+02   -0.60201E-05   -0.63851E-05  3952   0.404E-02    0.965E-03
DAV:   3    -0.355876284954E+02   -0.24225E-06   -0.35965E-06  3314   0.110E-02
  37 F= -.35587628E+02 E0= -.35582706E+02  d E =-.230281E-02
quench:  g(F)=  0.000E+00 g(S)=  0.000E+00 dE (1.order)= 0.000E+00
 bond charge predicted
       N       E                     dE             d eps       ncg     rms          rms(c)
DAV:   1    -0.355905333803E+02   -0.29051E-02   -0.40842E-03  2992   0.338E-01    0.260E-02
DAV:   2    -0.355905429710E+02   -0.95907E-05   -0.10551E-04  4112   0.527E-02    0.145E-02
DAV:   3    -0.355905431949E+02   -0.22392E-06   -0.11297E-05  4220   0.185E-02    0.116E-02
DAV:   4    -0.355905432105E+02   -0.15589E-07   -0.80313E-06  3712   0.135E-02
  38 F= -.35590543E+02 E0= -.35585632E+02  d E =-.291472E-02
quench:  g(F)=  0.000E+00 g(S)=  0.000E+00 dE (1.order)= 0.000E+00
 bond charge predicted
       N       E                     dE             d eps       ncg     rms          rms(c)
DAV:   1    -0.355941663082E+02   -0.36231E-02   -0.62659E-03  2992   0.419E-01    0.330E-02
DAV:   2    -0.355941805761E+02   -0.14268E-04   -0.15515E-04  3952   0.628E-02    0.148E-02
DAV:   3    -0.355941809789E+02   -0.40288E-06   -0.58501E-06  3960   0.134E-02
  39 F= -.35594181E+02 E0= -.35589283E+02  d E =-.363777E-02
quench:  g(F)=  0.000E+00 g(S)=  0.000E+00 dE (1.order)= 0.000E+00
 bond charge predicted
       N       E                     dE             d eps       ncg     rms          rms(c)
DAV:   1    -0.355986392922E+02   -0.44587E-02   -0.94949E-03  2992   0.516E-01    0.395E-02
DAV:   2    -0.355986612313E+02   -0.21939E-04   -0.24834E-04  4144   0.809E-02    0.213E-02
DAV:   3    -0.355986615696E+02   -0.33827E-06   -0.31993E-05  4636   0.306E-02    0.175E-02
DAV:   4    -0.355986608608E+02    0.70884E-06   -0.17630E-05  4136   0.196E-02    0.131E-02
DAV:   5    -0.355986610834E+02   -0.22266E-06   -0.52511E-06  3272   0.119E-02
  40 F= -.35598661E+02 E0= -.35593781E+02  d E =-.448010E-02
quench:  g(F)=  0.000E+00 g(S)=  0.000E+00 dE (1.order)= 0.000E+00
 bond charge predicted
       N       E                     dE             d eps       ncg     rms          rms(c)
DAV:   1    -0.356040623384E+02   -0.54015E-02   -0.14066E-02  2992   0.628E-01    0.487E-02
DAV:   2    -0.356040944067E+02   -0.32068E-04   -0.35014E-04  3952   0.939E-02    0.202E-02
DAV:   3    -0.356040949392E+02   -0.53255E-06   -0.12803E-05  4468   0.191E-02    0.156E-02
DAV:   4    -0.356040955890E+02   -0.64982E-06   -0.48640E-06  3328   0.114E-02
  41 F= -.35604096E+02 E0= -.35599239E+02  d E =-.543451E-02
quench:  g(F)=  0.000E+00 g(S)=  0.000E+00 dE (1.order)= 0.000E+00
 bond charge predicted
       N       E                     dE             d eps       ncg     rms          rms(c)
DAV:   1    -0.356105302276E+02   -0.64353E-02   -0.20450E-02  2992   0.757E-01    0.566E-02
DAV:   2    -0.356105759292E+02   -0.45702E-04   -0.51185E-04  3976   0.115E-01    0.263E-02
DAV:   3    -0.356105768677E+02   -0.93849E-06   -0.46222E-05  4664   0.373E-02    0.206E-02
DAV:   4    -0.356105768010E+02    0.66656E-07   -0.34630E-05  4448   0.277E-02    0.170E-02
DAV:   5    -0.356105759008E+02    0.90020E-06   -0.15226E-05  4096   0.185E-02    0.483E-03
DAV:   6    -0.356105761159E+02   -0.21507E-06   -0.21101E-06  2372   0.834E-03
  42 F= -.35610576E+02 E0= -.35605745E+02  d E =-.648053E-02
quench:  g(F)=  0.000E+00 g(S)=  0.000E+00 dE (1.order)= 0.000E+00
 bond charge predicted
       N       E                     dE             d eps       ncg     rms          rms(c)
DAV:   1    -0.356180698329E+02   -0.74939E-02   -0.29151E-02  2992   0.903E-01    0.667E-02
DAV:   2    -0.356181341811E+02   -0.64348E-04   -0.70957E-04  3976   0.134E-01    0.275E-02
DAV:   3    -0.356181348673E+02   -0.68622E-06   -0.32613E-05  4802   0.310E-02    0.217E-02
DAV:   4    -0.356181362196E+02   -0.13523E-05   -0.24340E-05  4448   0.238E-02    0.166E-02
DAV:   5    -0.356181352376E+02    0.98200E-06   -0.26745E-05  4416   0.241E-02    0.781E-03
DAV:   6    -0.356181350534E+02    0.18425E-06   -0.64676E-06  3236   0.126E-02
  43 F= -.35618135E+02 E0= -.35613339E+02  d E =-.755894E-02
quench:  g(F)=  0.000E+00 g(S)=  0.000E+00 dE (1.order)= 0.000E+00
 bond charge predicted
       N       E                     dE             d eps       ncg     rms          rms(c)
DAV:   1    -0.356265859280E+02   -0.84507E-02   -0.39877E-02  2992   0.106E+00    0.737E-02
DAV:   2    -0.356266710915E+02   -0.85164E-04   -0.94016E-04  3992   0.155E-01    0.301E-02
DAV:   3    -0.356266716292E+02   -0.53762E-06   -0.42717E-05  4742   0.355E-02    0.241E-02
DAV:   4    -0.356266727304E+02   -0.11012E-05   -0.26101E-05  4448   0.249E-02    0.178E-02
DAV:   5    -0.356266718943E+02    0.83604E-06   -0.31395E-05  4448   0.262E-02    0.956E-03
DAV:   6    -0.356266714576E+02    0.43673E-06   -0.10205E-05  3746   0.155E-02    0.415E-03
DAV:   7    -0.356266714568E+02    0.78853E-09   -0.89292E-07  2018   0.560E-03
  44 F= -.35626671E+02 E0= -.35621918E+02  d E =-.853640E-02
quench:  g(F)=  0.000E+00 g(S)=  0.000E+00 dE (1.order)= 0.000E+00
 bond charge predicted
       N       E                     dE             d eps       ncg     rms          rms(c)
DAV:   1    -0.356354736281E+02   -0.88022E-02   -0.48413E-02  2992   0.116E+00    0.736E-02
DAV:   2    -0.356355727955E+02   -0.99167E-04   -0.10898E-03  3976   0.167E-01    0.306E-02
DAV:   3    -0.356355732942E+02   -0.49871E-06   -0.47737E-05  4772   0.376E-02    0.241E-02
DAV:   4    -0.356355740957E+02   -0.80152E-06   -0.26041E-05  4448   0.251E-02    0.184E-02
DAV:   5    -0.356355729989E+02    0.10968E-05   -0.31033E-05  4440   0.262E-02    0.992E-03
DAV:   6    -0.356355725612E+02    0.43769E-06   -0.95494E-06  3648   0.153E-02
  45 F= -.35635573E+02 E0= -.35630869E+02  d E =-.890110E-02
quench:  g(F)=  0.000E+00 g(S)=  0.000E+00 dE (1.order)= 0.000E+00
 bond charge predicted
       N       E                     dE             d eps       ncg     rms          rms(c)
DAV:   1    -0.356355141063E+02    0.58893E-04   -0.12588E-05  3064   0.190E-02    0.246E-03
DAV:   2    -0.356355141293E+02   -0.22968E-07   -0.51100E-07  1820   0.382E-03
  46 F= -.35635514E+02 E0= -.35630811E+02  d E =0.584319E-04
quench:  g(F)=  0.000E+00 g(S)=  0.000E+00 dE (1.order)= 0.000E+00
 bond charge predicted
       N       E                     dE             d eps       ncg     rms          rms(c)
DAV:   1    -0.356353957169E+02    0.11839E-03   -0.48197E-05  2992   0.369E-02    0.325E-03
DAV:   2    -0.356353957462E+02   -0.29307E-07   -0.11183E-06  1928   0.618E-03
  47 F= -.35635396E+02 E0= -.35630693E+02  d E =0.118383E-03
quench:  g(F)=  0.000E+00 g(S)=  0.000E+00 dE (1.order)= 0.000E+00
 bond charge predicted
       N       E                     dE             d eps       ncg     rms          rms(c)
DAV:   1    -0.356352158119E+02    0.17990E-03   -0.10503E-04  2992   0.543E-02    0.446E-03
DAV:   2    -0.356352158764E+02   -0.64500E-07   -0.25397E-06  3160   0.868E-03
  48 F= -.35635216E+02 E0= -.35630513E+02  d E =0.179870E-03
quench:  g(F)=  0.000E+00 g(S)=  0.000E+00 dE (1.order)= 0.000E+00
 bond charge predicted
       N       E                     dE             d eps       ncg     rms          rms(c)
DAV:   1    -0.356349726414E+02    0.24317E-03   -0.17927E-04  2992   0.709E-02    0.575E-03
DAV:   2    -0.356349727401E+02   -0.98682E-07   -0.40569E-06  3360   0.110E-02
  49 F= -.35634973E+02 E0= -.35630270E+02  d E =0.243136E-03
quench:  g(F)=  0.000E+00 g(S)=  0.000E+00 dE (1.order)= 0.000E+00
 bond charge predicted
       N       E                     dE             d eps       ncg     rms          rms(c)
DAV:   1    -0.356346640571E+02    0.30858E-03   -0.26658E-04  2992   0.864E-02    0.709E-03
DAV:   2    -0.356346642684E+02   -0.21137E-06   -0.64063E-06  3816   0.132E-02
  50 F= -.35634664E+02 E0= -.35629962E+02  d E =0.308472E-03
quench:  g(F)=  0.000E+00 g(S)=  0.000E+00 dE (1.order)= 0.000E+00
 bond charge predicted
       N       E                     dE             d eps       ncg     rms          rms(c)
DAV:   1    -0.356342870599E+02    0.37700E-03   -0.36114E-04  2992   0.101E-01    0.831E-03
DAV:   2    -0.356342873364E+02   -0.27655E-06   -0.83250E-06  3816   0.151E-02
  51 F= -.35634287E+02 E0= -.35629585E+02  d E =0.376932E-03
quench:  g(F)=  0.000E+00 g(S)=  0.000E+00 dE (1.order)= 0.000E+00
 bond charge predicted
       N       E                     dE             d eps       ncg     rms          rms(c)
DAV:   1    -0.356337853230E+02    0.50174E-03   -0.56602E-04  2992   0.126E-01    0.105E-02
DAV:   2    -0.356337858970E+02   -0.57404E-06   -0.13244E-05  4008   0.189E-02    0.715E-03
DAV:   3    -0.356337856454E+02    0.25161E-06   -0.12064E-06  2546   0.680E-03
  52 F= -.35633786E+02 E0= -.35629084E+02  d E =0.501691E-03
quench:  g(F)=  0.000E+00 g(S)=  0.000E+00 dE (1.order)= 0.000E+00
 bond charge predicted
       N       E                     dE             d eps       ncg     rms          rms(c)
DAV:   1    -0.356331233278E+02    0.66257E-03   -0.85255E-04  2992   0.155E-01    0.131E-02
DAV:   2    -0.356331246333E+02   -0.13054E-05   -0.23456E-05  4280   0.254E-02    0.804E-03
DAV:   3    -0.356331243807E+02    0.25261E-06   -0.87902E-06  3746   0.152E-02
  53 F= -.35633124E+02 E0= -.35628423E+02  d E =0.661265E-03
quench:  g(F)=  0.000E+00 g(S)=  0.000E+00 dE (1.order)= 0.000E+00
 bond charge predicted
       N       E                     dE             d eps       ncg     rms          rms(c)
DAV:   1    -0.356322550640E+02    0.86957E-03   -0.12516E-03  2992   0.187E-01    0.154E-02
DAV:   2    -0.356322568242E+02   -0.17602E-05   -0.28430E-05  3944   0.275E-02    0.929E-03
DAV:   3    -0.356322564845E+02    0.33964E-06   -0.76065E-07  2522   0.556E-03
  54 F= -.35632256E+02 E0= -.35627556E+02  d E =0.867896E-03
quench:  g(F)=  0.000E+00 g(S)=  0.000E+00 dE (1.order)= 0.000E+00
 bond charge predicted
       N       E                     dE             d eps       ncg     rms          rms(c)
DAV:   1    -0.356311258397E+02    0.11310E-02   -0.17527E-03  2992   0.222E-01    0.183E-02
DAV:   2    -0.356311289311E+02   -0.30914E-05   -0.42547E-05  4096   0.334E-02    0.860E-03
DAV:   3    -0.356311287264E+02    0.20469E-06   -0.48178E-06  3308   0.122E-02
  55 F= -.35631129E+02 E0= -.35626429E+02  d E =0.112776E-02
quench:  g(F)=  0.000E+00 g(S)=  0.000E+00 dE (1.order)= 0.000E+00
 bond charge predicted
       N       E                     dE             d eps       ncg     rms          rms(c)
DAV:   1    -0.356296791307E+02    0.14498E-02   -0.23762E-03  2992   0.258E-01    0.206E-02
DAV:   2    -0.356296831043E+02   -0.39736E-05   -0.55072E-05  3936   0.380E-02    0.112E-02
DAV:   3    -0.356296827015E+02    0.40281E-06   -0.35276E-06  3096   0.113E-02
  56 F= -.35629683E+02 E0= -.35624983E+02  d E =0.144602E-02
quench:  g(F)=  0.000E+00 g(S)=  0.000E+00 dE (1.order)= 0.000E+00
 bond charge predicted
       N       E                     dE             d eps       ncg     rms          rms(c)
DAV:   1    -0.356278646884E+02    0.18184E-02   -0.30879E-03  2992   0.294E-01    0.225E-02
DAV:   2    -0.356278707886E+02   -0.61001E-05   -0.87199E-05  4280   0.491E-02    0.147E-02
DAV:   3    -0.356278701816E+02    0.60702E-06   -0.26033E-05  4386   0.262E-02    0.112E-02
DAV:   4    -0.356278691265E+02    0.10550E-05   -0.11538E-05  3824   0.159E-02    0.847E-03
DAV:   5    -0.356278681963E+02    0.93018E-06   -0.14951E-06  2228   0.712E-03
  57 F= -.35627868E+02 E0= -.35623168E+02  d E =0.181451E-02
quench:  g(F)=  0.000E+00 g(S)=  0.000E+00 dE (1.order)= 0.000E+00
 bond charge predicted
       N       E                     dE             d eps       ncg     rms          rms(c)
DAV:   1    -0.356256761701E+02    0.21930E-02   -0.37127E-03  2992   0.323E-01    0.233E-02
DAV:   2    -0.356256833139E+02   -0.71437E-05   -0.85624E-05  3944   0.467E-02    0.917E-03
DAV:   3    -0.356256830407E+02    0.27316E-06   -0.31077E-06  3290   0.102E-02
  58 F= -.35625683E+02 E0= -.35620983E+02  d E =0.218516E-02
quench:  g(F)=  0.000E+00 g(S)=  0.000E+00 dE (1.order)= 0.000E+00
 bond charge predicted
       N       E                     dE             d eps       ncg     rms          rms(c)
DAV:   1    -0.356231958251E+02    0.24875E-02   -0.41385E-03  2992   0.341E-01    0.219E-02
DAV:   2    -0.356232039570E+02   -0.81319E-05   -0.99628E-05  4104   0.507E-02    0.112E-02
DAV:   3    -0.356232036476E+02    0.30935E-06   -0.85872E-06  4012   0.163E-02
  59 F= -.35623204E+02 E0= -.35618504E+02  d E =0.247939E-02
quench:  g(F)=  0.000E+00 g(S)=  0.000E+00 dE (1.order)= 0.000E+00
 bond charge predicted
       N       E                     dE             d eps       ncg     rms          rms(c)
DAV:   1    -0.356205974680E+02    0.26065E-02   -0.42480E-03  2992   0.345E-01    0.192E-02
DAV:   2    -0.356206058552E+02   -0.83873E-05   -0.10394E-04  4008   0.522E-02    0.125E-02
DAV:   3    -0.356206054329E+02    0.42233E-06   -0.49743E-06  3650   0.131E-02
  60 F= -.35620605E+02 E0= -.35615905E+02  d E =0.259821E-02
quench:  g(F)=  0.000E+00 g(S)=  0.000E+00 dE (1.order)= 0.000E+00
 bond charge predicted
       N       E                     dE             d eps       ncg     rms          rms(c)
DAV:   1    -0.356206255353E+02   -0.19680E-04   -0.77695E-06  3732   0.152E-02    0.821E-03
DAV:   2    -0.356206259450E+02   -0.40972E-06   -0.12307E-05  3938   0.176E-02    0.770E-03
DAV:   3    -0.356206251295E+02    0.81551E-06   -0.10851E-05  3810   0.153E-02    0.466E-03
DAV:   4    -0.356206248007E+02    0.32877E-06   -0.11062E-06  2042   0.577E-03
  61 F= -.35620625E+02 E0= -.35615925E+02  d E =-.193678E-04
quench:  g(F)=  0.000E+00 g(S)=  0.000E+00 dE (1.order)= 0.000E+00
 bond charge predicted
       N       E                     dE             d eps       ncg     rms          rms(c)
DAV:   1    -0.356206422100E+02   -0.17081E-04   -0.14434E-05  2992   0.201E-02    0.193E-03
DAV:   2    -0.356206422820E+02   -0.72019E-07   -0.41867E-07  1532   0.364E-03
  62 F= -.35620642E+02 E0= -.35615942E+02  d E =-.174813E-04
quench:  g(F)=  0.000E+00 g(S)=  0.000E+00 dE (1.order)= 0.000E+00
 bond charge predicted
       N       E                     dE             d eps       ncg     rms          rms(c)
DAV:   1    -0.356206388806E+02    0.33294E-05   -0.29999E-05  2992   0.287E-02    0.279E-03
DAV:   2    -0.356206390412E+02   -0.16063E-06   -0.94391E-07  1640   0.543E-03
  63 F= -.35620639E+02 E0= -.35615940E+02  d E =0.324080E-05
quench:  g(F)=  0.000E+00 g(S)=  0.000E+00 dE (1.order)= 0.000E+00
 bond charge predicted
       N       E                     dE             d eps       ncg     rms          rms(c)
DAV:   1    -0.356206045067E+02    0.34374E-04   -0.55554E-05  2992   0.390E-02    0.377E-03
DAV:   2    -0.356206047929E+02   -0.28616E-06   -0.20140E-06  2864   0.763E-03
  64 F= -.35620605E+02 E0= -.35615906E+02  d E =0.342484E-04
quench:  g(F)=  0.000E+00 g(S)=  0.000E+00 dE (1.order)= 0.000E+00
 bond charge predicted
       N       E                     dE             d eps       ncg     rms          rms(c)
DAV:   1    -0.356205382784E+02    0.66228E-04   -0.97370E-05  2992   0.518E-02    0.464E-03
DAV:   2    -0.356205386886E+02   -0.41028E-06   -0.32168E-06  2862   0.982E-03
  65 F= -.35620539E+02 E0= -.35615842E+02  d E =0.661042E-04
quench:  g(F)=  0.000E+00 g(S)=  0.000E+00 dE (1.order)= 0.000E+00
 bond charge predicted
       N       E                     dE             d eps       ncg     rms          rms(c)
DAV:   1    -0.356204522019E+02    0.86076E-04   -0.16296E-04  2992   0.673E-02    0.538E-03
DAV:   2    -0.356204527764E+02   -0.57450E-06   -0.49831E-06  3482   0.120E-02
  66 F= -.35620453E+02 E0= -.35615758E+02  d E =0.859122E-04
quench:  g(F)=  0.000E+00 g(S)=  0.000E+00 dE (1.order)= 0.000E+00
 bond charge predicted
       N       E                     dE             d eps       ncg     rms          rms(c)
DAV:   1    -0.356203695426E+02    0.82659E-04   -0.32663E-04  2992   0.958E-02    0.651E-03
DAV:   2    -0.356203704538E+02   -0.91118E-06   -0.87865E-06  3824   0.155E-02
  67 F= -.35620370E+02 E0= -.35615678E+02  d E =0.823226E-04
quench:  g(F)=  0.000E+00 g(S)=  0.000E+00 dE (1.order)= 0.000E+00
 bond charge predicted
       N       E                     dE             d eps       ncg     rms          rms(c)
DAV:   1    -0.356203666339E+02    0.29087E-05   -0.64177E-04  2992   0.135E-01    0.785E-03
DAV:   2    -0.356203681089E+02   -0.14750E-05   -0.15435E-05  4120   0.202E-02    0.553E-03
DAV:   3    -0.356203681557E+02   -0.46729E-07   -0.67252E-07  2378   0.530E-03
  68 F= -.35620368E+02 E0= -.35615678E+02  d E =0.229815E-05
quench:  g(F)=  0.000E+00 g(S)=  0.000E+00 dE (1.order)= 0.000E+00
 bond charge predicted
       N       E                     dE             d eps       ncg     rms          rms(c)
DAV:   1    -0.356205857061E+02   -0.21760E-03   -0.12281E-03  2992   0.186E-01    0.102E-02
DAV:   2    -0.356205884093E+02   -0.27032E-05   -0.31459E-05  4298   0.290E-02    0.633E-03
DAV:   3    -0.356205883649E+02    0.44349E-07   -0.74297E-06  3682   0.144E-02
  69 F= -.35620588E+02 E0= -.35615902E+02  d E =-.220209E-03
quench:  g(F)=  0.000E+00 g(S)=  0.000E+00 dE (1.order)= 0.000E+00
 bond charge predicted
       N       E                     dE             d eps       ncg     rms          rms(c)
DAV:   1    -0.356212335672E+02   -0.64516E-03   -0.22883E-03  2992   0.254E-01    0.121E-02
DAV:   2    -0.356212383586E+02   -0.47914E-05   -0.53585E-05  4136   0.369E-02    0.738E-03
DAV:   3    -0.356212382767E+02    0.81942E-07   -0.21366E-06  2746   0.913E-03
  70 F= -.35621238E+02 E0= -.35616557E+02  d E =-.649912E-03
quench:  g(F)=  0.000E+00 g(S)=  0.000E+00 dE (1.order)= 0.000E+00
 bond charge predicted
       N       E                     dE             d eps       ncg     rms          rms(c)
DAV:   1    -0.356225186835E+02   -0.12803E-02   -0.40899E-03  2992   0.339E-01    0.157E-02
DAV:   2    -0.356225278354E+02   -0.91519E-05   -0.10379E-04  4048   0.514E-02    0.101E-02
DAV:   3    -0.356225277614E+02    0.74019E-07   -0.70664E-06  3954   0.151E-02
  71 F= -.35622528E+02 E0= -.35617851E+02  d E =-.128948E-02
quench:  g(F)=  0.000E+00 g(S)=  0.000E+00 dE (1.order)= 0.000E+00
 bond charge predicted
       N       E                     dE             d eps       ncg     rms          rms(c)
DAV:   1    -0.356244935652E+02   -0.19657E-02   -0.66117E-03  2992   0.430E-01    0.205E-02
DAV:   2    -0.356245091274E+02   -0.15562E-04   -0.17647E-04  4040   0.671E-02    0.129E-02
DAV:   3    -0.356245090243E+02    0.10315E-06   -0.12137E-05  4462   0.197E-02    0.106E-02
DAV:   4    -0.356245087608E+02    0.26349E-06   -0.48819E-06  3302   0.113E-02
  72 F= -.35624509E+02 E0= -.35619838E+02  d E =-.198100E-02
quench:  g(F)=  0.000E+00 g(S)=  0.000E+00 dE (1.order)= 0.000E+00
 bond charge predicted
       N       E                     dE             d eps       ncg     rms          rms(c)
DAV:   1    -0.356270927253E+02   -0.25837E-02   -0.94908E-03  2992   0.514E-01    0.262E-02
DAV:   2    -0.356271169200E+02   -0.24195E-04   -0.26688E-04  3982   0.811E-02    0.120E-02
DAV:   3    -0.356271171499E+02   -0.22990E-06   -0.92424E-06  4430   0.167E-02
  73 F= -.35627117E+02 E0= -.35622453E+02  d E =-.260839E-02
quench:  g(F)=  0.000E+00 g(S)=  0.000E+00 dE (1.order)= 0.000E+00
 bond charge predicted
       N       E                     dE             d eps       ncg     rms          rms(c)
DAV:   1    -0.356300197060E+02   -0.29028E-02   -0.11913E-02  2992   0.572E-01    0.301E-02
DAV:   2    -0.356300533347E+02   -0.33629E-04   -0.37053E-04  3958   0.953E-02    0.168E-02
DAV:   3    -0.356300535601E+02   -0.22543E-06   -0.17360E-05  4770   0.232E-02    0.132E-02
DAV:   4    -0.356300535866E+02   -0.26504E-07   -0.85525E-06  3762   0.143E-02
  74 F= -.35630054E+02 E0= -.35625395E+02  d E =-.293644E-02
quench:  g(F)=  0.000E+00 g(S)=  0.000E+00 dE (1.order)= 0.000E+00
 bond charge predicted
       N       E                     dE             d eps       ncg     rms          rms(c)
DAV:   1    -0.356324369567E+02   -0.23834E-02   -0.11428E-02  2992   0.556E-01    0.331E-02
DAV:   2    -0.356324732248E+02   -0.36268E-04   -0.39499E-04  3924   0.976E-02    0.158E-02
DAV:   3    -0.356324736661E+02   -0.44133E-06   -0.13026E-05  4510   0.195E-02    0.120E-02
DAV:   4    -0.356324733863E+02    0.27979E-06   -0.85063E-07  2690   0.556E-03
  75 F= -.35632473E+02 E0= -.35627817E+02  d E =-.241980E-02
quench:  g(F)=  0.000E+00 g(S)=  0.000E+00 dE (1.order)= 0.000E+00
 bond charge predicted
       N       E                     dE             d eps       ncg     rms          rms(c)
DAV:   1    -0.356323378698E+02    0.13580E-03   -0.16545E-05  3238   0.216E-02    0.275E-03
DAV:   2    -0.356323379410E+02   -0.71258E-07   -0.16091E-06  2252   0.767E-03
  76 F= -.35632338E+02 E0= -.35627682E+02  d E =0.135445E-03
quench:  g(F)=  0.000E+00 g(S)=  0.000E+00 dE (1.order)= 0.000E+00
 bond charge predicted
       N       E                     dE             d eps       ncg     rms          rms(c)
DAV:   1    -0.356320395243E+02    0.29835E-03   -0.63035E-05  2992   0.424E-02    0.235E-03
DAV:   2    -0.356320396333E+02   -0.10909E-06   -0.12442E-06  2054   0.656E-03
  77 F= -.35632040E+02 E0= -.35627383E+02  d E =0.298308E-03
quench:  g(F)=  0.000E+00 g(S)=  0.000E+00 dE (1.order)= 0.000E+00
 bond charge predicted
       N       E                     dE             d eps       ncg     rms          rms(c)
DAV:   1    -0.356315643633E+02    0.47516E-03   -0.15268E-04  2992   0.657E-02    0.347E-03
DAV:   2    -0.356315646361E+02   -0.27279E-06   -0.33083E-06  3328   0.950E-03
  78 F= -.35631565E+02 E0= -.35626907E+02  d E =0.474997E-03
quench:  g(F)=  0.000E+00 g(S)=  0.000E+00 dE (1.order)= 0.000E+00
 bond charge predicted
       N       E                     dE             d eps       ncg     rms          rms(c)
DAV:   1    -0.356309205027E+02    0.64386E-03   -0.27900E-04  2992   0.889E-02    0.439E-03
DAV:   2    -0.356309209946E+02   -0.49189E-06   -0.61148E-06  3832   0.125E-02
  79 F= -.35630921E+02 E0= -.35626262E+02  d E =0.643641E-03
quench:  g(F)=  0.000E+00 g(S)=  0.000E+00 dE (1.order)= 0.000E+00
 bond charge predicted
       N       E                     dE             d eps       ncg     rms          rms(c)
DAV:   1    -0.356301464052E+02    0.77410E-03   -0.42001E-04  2992   0.109E-01    0.528E-03
DAV:   2    -0.356301470849E+02   -0.67971E-06   -0.87500E-06  3856   0.151E-02
  80 F= -.35630147E+02 E0= -.35625486E+02  d E =0.773910E-03
quench:  g(F)=  0.000E+00 g(S)=  0.000E+00 dE (1.order)= 0.000E+00
 bond charge predicted
       N       E                     dE             d eps       ncg     rms          rms(c)
DAV:   1    -0.356293238702E+02    0.82253E-03   -0.53320E-04  2992   0.123E-01    0.597E-03
DAV:   2    -0.356293247374E+02   -0.86714E-06   -0.11260E-05  4040   0.170E-02    0.436E-03
DAV:   3    -0.356293246830E+02    0.54331E-07   -0.44470E-07  2258   0.419E-03
  81 F= -.35629325E+02 E0= -.35624662E+02  d E =0.822402E-03
quench:  g(F)=  0.000E+00 g(S)=  0.000E+00 dE (1.order)= 0.000E+00
 bond charge predicted
       N       E                     dE             d eps       ncg     rms          rms(c)
DAV:   1    -0.356285223872E+02    0.80235E-03   -0.69205E-04  2992   0.140E-01    0.701E-03
DAV:   2    -0.356285236301E+02   -0.12429E-05   -0.15270E-05  4152   0.198E-02    0.441E-03
DAV:   3    -0.356285235606E+02    0.69580E-07   -0.11953E-06  2666   0.664E-03
  82 F= -.35628524E+02 E0= -.35623859E+02  d E =0.801122E-03
quench:  g(F)=  0.000E+00 g(S)=  0.000E+00 dE (1.order)= 0.000E+00
 bond charge predicted
       N       E                     dE             d eps       ncg     rms          rms(c)
DAV:   1    -0.356279653891E+02    0.55824E-03   -0.78575E-04  2992   0.149E-01    0.796E-03
DAV:   2    -0.356279668423E+02   -0.14532E-05   -0.17722E-05  4152   0.215E-02    0.476E-03
DAV:   3    -0.356279667687E+02    0.73572E-07   -0.99260E-07  2570   0.627E-03
  83 F= -.35627967E+02 E0= -.35623299E+02  d E =0.556792E-03
quench:  g(F)=  0.000E+00 g(S)=  0.000E+00 dE (1.order)= 0.000E+00
 bond charge predicted
       N       E                     dE             d eps       ncg     rms          rms(c)
DAV:   1    -0.356277304712E+02    0.23637E-03   -0.97619E-04  2992   0.166E-01    0.937E-03
DAV:   2    -0.356277324724E+02   -0.20012E-05   -0.23734E-05  4112   0.250E-02    0.574E-03
DAV:   3    -0.356277323782E+02    0.94193E-07   -0.15598E-06  2696   0.775E-03
  84 F= -.35627732E+02 E0= -.35623062E+02  d E =0.234391E-03
quench:  g(F)=  0.000E+00 g(S)=  0.000E+00 dE (1.order)= 0.000E+00
 bond charge predicted
       N       E                     dE             d eps       ncg     rms          rms(c)
DAV:   1    -0.356279010506E+02   -0.16858E-03   -0.12992E-03  2992   0.191E-01    0.114E-02
DAV:   2    -0.356279038847E+02   -0.28341E-05   -0.32862E-05  4152   0.293E-02    0.664E-03
DAV:   3    -0.356279037745E+02    0.11023E-06   -0.19329E-06  2700   0.875E-03
  85 F= -.35627904E+02 E0= -.35623230E+02  d E =-.171396E-03
quench:  g(F)=  0.000E+00 g(S)=  0.000E+00 dE (1.order)= 0.000E+00
 bond charge predicted
       N       E                     dE             d eps       ncg     rms          rms(c)
DAV:   1    -0.356285532267E+02   -0.64934E-03   -0.17509E-03  2992   0.221E-01    0.131E-02
DAV:   2    -0.356285571593E+02   -0.39326E-05   -0.45312E-05  4048   0.347E-02    0.807E-03
DAV:   3    -0.356285570449E+02    0.11439E-06   -0.29376E-06  3018   0.104E-02
  86 F= -.35628557E+02 E0= -.35623880E+02  d E =-.653270E-03
quench:  g(F)=  0.000E+00 g(S)=  0.000E+00 dE (1.order)= 0.000E+00
 bond charge predicted
       N       E                     dE             d eps       ncg     rms          rms(c)
DAV:   1    -0.356297257427E+02   -0.11686E-02   -0.22328E-03  2992   0.249E-01    0.151E-02
DAV:   2    -0.356297309982E+02   -0.52555E-05   -0.60376E-05  4096   0.396E-02    0.926E-03
DAV:   3    -0.356297308981E+02    0.10011E-06   -0.50959E-06  3548   0.131E-02
  87 F= -.35629731E+02 E0= -.35625051E+02  d E =-.117385E-02
quench:  g(F)=  0.000E+00 g(S)=  0.000E+00 dE (1.order)= 0.000E+00
 bond charge predicted
       N       E                     dE             d eps       ncg     rms          rms(c)
DAV:   1    -0.356313584377E+02   -0.16274E-02   -0.24779E-03  2992   0.262E-01    0.163E-02
DAV:   2    -0.356313645852E+02   -0.61475E-05   -0.69140E-05  3952   0.420E-02    0.982E-03
DAV:   3    -0.356313645463E+02    0.38835E-07   -0.33862E-06  3264   0.111E-02
  88 F= -.35631365E+02 E0= -.35626684E+02  d E =-.163365E-02
quench:  g(F)=  0.000E+00 g(S)=  0.000E+00 dE (1.order)= 0.000E+00
 bond charge predicted
       N       E                     dE             d eps       ncg     rms          rms(c)
DAV:   1    -0.356313983961E+02   -0.33811E-04   -0.85256E-06  3504   0.160E-02    0.606E-03
DAV:   2    -0.356313988997E+02   -0.50360E-06   -0.96625E-06  3800   0.159E-02
  89 F= -.35631399E+02 E0= -.35626719E+02  d E =-.343534E-04
quench:  g(F)=  0.000E+00 g(S)=  0.000E+00 dE (1.order)= 0.000E+00
 bond charge predicted
       N       E                     dE             d eps       ncg     rms          rms(c)
DAV:   1    -0.356314515755E+02   -0.53179E-04   -0.27927E-05  3016   0.281E-02    0.310E-03
DAV:   2    -0.356314517380E+02   -0.16245E-06   -0.12882E-06  2480   0.696E-03
  90 F= -.35631452E+02 E0= -.35626772E+02  d E =-.528382E-04
quench:  g(F)=  0.000E+00 g(S)=  0.000E+00 dE (1.order)= 0.000E+00
 bond charge predicted
       N       E                     dE             d eps       ncg     rms          rms(c)
DAV:   1    -0.356315068726E+02   -0.55297E-04   -0.54424E-05  2992   0.393E-02    0.253E-03
DAV:   2    -0.356315069815E+02   -0.10899E-06   -0.88224E-07  1604   0.537E-03
  91 F= -.35631507E+02 E0= -.35626828E+02  d E =-.552436E-04
quench:  g(F)=  0.000E+00 g(S)=  0.000E+00 dE (1.order)= 0.000E+00
 bond charge predicted
       N       E                     dE             d eps       ncg     rms          rms(c)
DAV:   1    -0.356315433003E+02   -0.36428E-04   -0.10259E-04  2992   0.538E-02    0.303E-03
DAV:   2    -0.356315434711E+02   -0.17080E-06   -0.16803E-06  2684   0.706E-03
  92 F= -.35631543E+02 E0= -.35626866E+02  d E =-.364895E-04
quench:  g(F)=  0.000E+00 g(S)=  0.000E+00 dE (1.order)= 0.000E+00
 bond charge predicted
       N       E                     dE             d eps       ncg     rms          rms(c)
DAV:   1    -0.356315426770E+02    0.62325E-06   -0.16775E-04  2992   0.689E-02    0.357E-03
DAV:   2    -0.356315429144E+02   -0.23738E-06   -0.26613E-06  3102   0.890E-03
  93 F= -.35631543E+02 E0= -.35626867E+02  d E =0.556682E-06
quench:  g(F)=  0.000E+00 g(S)=  0.000E+00 dE (1.order)= 0.000E+00
 bond charge predicted
       N       E                     dE             d eps       ncg     rms          rms(c)
DAV:   1    -0.356314954022E+02    0.47275E-04   -0.24958E-04  2992   0.839E-02    0.409E-03
DAV:   2    -0.356314957232E+02   -0.32104E-06   -0.39919E-06  3522   0.108E-02
  94 F= -.35631496E+02 E0= -.35626821E+02  d E =0.471912E-04
quench:  g(F)=  0.000E+00 g(S)=  0.000E+00 dE (1.order)= 0.000E+00
 bond charge predicted
       N       E                     dE             d eps       ncg     rms          rms(c)
DAV:   1    -0.356313982953E+02    0.97107E-04   -0.42473E-04  2992   0.110E-01    0.513E-03
DAV:   2    -0.356313987975E+02   -0.50216E-06   -0.66271E-06  3848   0.136E-02
  95 F= -.35631399E+02 E0= -.35626726E+02  d E =0.969258E-04
quench:  g(F)=  0.000E+00 g(S)=  0.000E+00 dE (1.order)= 0.000E+00
 bond charge predicted
       N       E                     dE             d eps       ncg     rms          rms(c)
DAV:   1    -0.356312877890E+02    0.11051E-03   -0.67077E-04  2992   0.138E-01    0.632E-03
DAV:   2    -0.356312885363E+02   -0.74734E-06   -0.10210E-05  3976   0.169E-02    0.464E-03
DAV:   3    -0.356312884794E+02    0.56895E-07   -0.66334E-07  2432   0.512E-03
  96 F= -.35631288E+02 E0= -.35626618E+02  d E =0.110318E-03
quench:  g(F)=  0.000E+00 g(S)=  0.000E+00 dE (1.order)= 0.000E+00
 bond charge predicted
       N       E                     dE             d eps       ncg     rms          rms(c)
DAV:   1    -0.356312657225E+02    0.22814E-04   -0.96750E-04  2992   0.166E-01    0.792E-03
DAV:   2    -0.356312670247E+02   -0.13022E-05   -0.17204E-05  4234   0.217E-02    0.508E-03
DAV:   3    -0.356312669089E+02    0.11586E-06   -0.37305E-06  3126   0.106E-02
  97 F= -.35631267E+02 E0= -.35626600E+02  d E =0.215706E-04
quench:  g(F)=  0.000E+00 g(S)=  0.000E+00 dE (1.order)= 0.000E+00
 bond charge predicted
       N       E                     dE             d eps       ncg     rms          rms(c)
DAV:   1    -0.356314881962E+02   -0.22117E-03   -0.12912E-03  2992   0.191E-01    0.861E-03
DAV:   2    -0.356314901032E+02   -0.19070E-05   -0.23384E-05  4164   0.247E-02    0.558E-03
DAV:   3    -0.356314900013E+02    0.10198E-06   -0.74274E-07  2564   0.548E-03
  98 F= -.35631490E+02 E0= -.35626826E+02  d E =-.223092E-03
quench:  g(F)=  0.000E+00 g(S)=  0.000E+00 dE (1.order)= 0.000E+00
 bond charge predicted
       N       E                     dE             d eps       ncg     rms          rms(c)
DAV:   1    -0.356319883195E+02   -0.49822E-03   -0.16253E-03  2992   0.215E-01    0.975E-03
DAV:   2    -0.356319913546E+02   -0.30352E-05   -0.36745E-05  4170   0.310E-02    0.677E-03
DAV:   3    -0.356319911869E+02    0.16776E-06   -0.44767E-06  3266   0.120E-02
  99 F= -.35631991E+02 E0= -.35627330E+02  d E =-.501186E-03
quench:  g(F)=  0.000E+00 g(S)=  0.000E+00 dE (1.order)= 0.000E+00
 bond charge predicted
       N       E                     dE             d eps       ncg     rms          rms(c)
DAV:   1    -0.356327668398E+02   -0.77549E-03   -0.18563E-03  2992   0.228E-01    0.105E-02
DAV:   2    -0.356327707541E+02   -0.39143E-05   -0.45736E-05  4022   0.344E-02    0.751E-03
DAV:   3    -0.356327706504E+02    0.10376E-06   -0.17981E-06  2698   0.866E-03
 100 F= -.35632771E+02 E0= -.35628113E+02  d E =-.779463E-03
quench:  g(F)=  0.000E+00 g(S)=  0.000E+00 dE (1.order)= 0.000E+00
 reached required accuracy - stopping structural energy minimisation
