 vasp.5.4.4.18Apr17-6-g9f103f2a35 (build Jan 05 2022 20:33:25) complex          
  
 05/POSCAR found :  2 types and       6 ions
 scaLAPACK will be used
 LDA part: xc-table for Pade appr. of Perdew
 00/POSCAR found :  2 types and       6 ions
 06/POSCAR found :  2 types and       6 ions
 Jacobian:    11.4326695265214     
 POSCAR, INCAR and KPOINTS ok, starting setup
 FFT: planning ...
 WAVECAR not read
 entering main loop
       N       E                     dE             d eps       ncg     rms          rms(c)
DAV:   1     0.266936544302E+03    0.26694E+03   -0.11494E+04  3264   0.117E+03
DAV:   2    -0.111109523401E+00   -0.26705E+03   -0.25815E+03  5192   0.184E+02
DAV:   3    -0.353974400821E+02   -0.35286E+02   -0.34832E+02  4328   0.763E+01
DAV:   4    -0.368647157416E+02   -0.14673E+01   -0.14583E+01  5112   0.189E+01
DAV:   5    -0.368911028977E+02   -0.26387E-01   -0.26357E-01  4776   0.271E+00    0.214E+01
DAV:   6    -0.359623347789E+02    0.92877E+00   -0.41013E+00  4624   0.970E+00    0.868E+00
DAV:   7    -0.359990208339E+02   -0.36686E-01   -0.55378E+00  4216   0.117E+01    0.641E+00
DAV:   8    -0.355014329463E+02    0.49759E+00   -0.16413E+00  4352   0.647E+00    0.235E+00
DAV:   9    -0.354970218933E+02    0.44111E-02   -0.44950E-01  4888   0.316E+00    0.130E+00
DAV:  10    -0.354887678999E+02    0.82540E-02   -0.91400E-02  4808   0.163E+00    0.862E-01
DAV:  11    -0.354824234468E+02    0.63445E-02   -0.22142E-02  4616   0.743E-01    0.391E-01
DAV:  12    -0.354812765052E+02    0.11469E-02   -0.33144E-03  4392   0.278E-01    0.203E-01
DAV:  13    -0.354810150362E+02    0.26147E-03   -0.67919E-04  4416   0.109E-01    0.875E-02
DAV:  14    -0.354808749583E+02    0.14008E-03   -0.24063E-04  4216   0.691E-02    0.449E-02
DAV:  15    -0.354808192457E+02    0.55713E-04   -0.41839E-04  4200   0.704E-02    0.342E-02
DAV:  16    -0.354808805315E+02   -0.61286E-04   -0.20960E-05  4816   0.203E-02    0.236E-02
DAV:  17    -0.354810277483E+02   -0.14722E-03   -0.19173E-05  3928   0.187E-02    0.101E-02
DAV:  18    -0.354811479338E+02   -0.12019E-03   -0.40031E-05  3992   0.215E-02    0.881E-03
DAV:  19    -0.354812092694E+02   -0.61336E-04   -0.39997E-06  4024   0.107E-02    0.714E-03
DAV:  20    -0.354812978823E+02   -0.88613E-04   -0.53417E-06  3464   0.105E-02    0.452E-03
DAV:  21    -0.354813167166E+02   -0.18834E-04   -0.82211E-07  2976   0.422E-03    0.408E-03
DAV:  22    -0.354813381704E+02   -0.21454E-04   -0.52268E-07  2768   0.296E-03    0.282E-03
DAV:  23    -0.354813536281E+02   -0.15458E-04   -0.37367E-07  2696   0.211E-03    0.135E-03
DAV:  24    -0.354813587339E+02   -0.51058E-05   -0.17237E-07  2592   0.130E-03    0.785E-04
DAV:  25    -0.354813635584E+02   -0.48245E-05   -0.14219E-07  2440   0.125E-03    0.725E-04
DAV:  26    -0.354813649720E+02   -0.14135E-05   -0.41823E-08  2248   0.675E-04    0.522E-04
DAV:  27    -0.354813652968E+02   -0.32485E-06   -0.10865E-08  2104   0.339E-04
   1 F= -.35481365E+02 E0= -.35477560E+02  d E =-.354814E+02
quench:  g(F)=  0.000E+00 g(S)=  0.000E+00 dE (1.order)= 0.000E+00
 bond charge predicted
       N       E                     dE             d eps       ncg     rms          rms(c)
DAV:   1    -0.355185825269E+02   -0.37218E-01   -0.90000E-01  3264   0.461E+00    0.322E-01
DAV:   2    -0.355193457077E+02   -0.76318E-03   -0.10775E-02  4424   0.551E-01    0.163E-01
DAV:   3    -0.355193807941E+02   -0.35086E-04   -0.33766E-03  4816   0.291E-01    0.123E-01
DAV:   4    -0.355192151848E+02    0.16561E-03   -0.24772E-03  4896   0.231E-01    0.984E-02
DAV:   5    -0.355191151527E+02    0.10003E-03   -0.38871E-04  4376   0.950E-02    0.307E-02
DAV:   6    -0.355191128809E+02    0.22718E-05   -0.71613E-05  4496   0.437E-02    0.122E-02
DAV:   7    -0.355191111057E+02    0.17752E-05   -0.11114E-05  4304   0.196E-02    0.548E-03
DAV:   8    -0.355191110641E+02    0.41610E-07   -0.10452E-06  2480   0.546E-03
   2 F= -.35519111E+02 E0= -.35515188E+02  d E =-.377458E-01
quench:  g(F)=  0.000E+00 g(S)=  0.000E+00 dE (1.order)= 0.000E+00
 bond charge predicted
       N       E                     dE             d eps       ncg     rms          rms(c)
DAV:   1    -0.355748209292E+02   -0.55710E-01   -0.31540E+00  3264   0.862E+00    0.554E-01
DAV:   2    -0.355774084917E+02   -0.25876E-02   -0.35705E-02  4384   0.998E-01    0.291E-01
DAV:   3    -0.355774184771E+02   -0.99854E-05   -0.93644E-03  4864   0.491E-01    0.206E-01
DAV:   4    -0.355770224958E+02    0.39598E-03   -0.72292E-03  4888   0.398E-01    0.178E-01
DAV:   5    -0.355766909345E+02    0.33156E-03   -0.13716E-03  4392   0.181E-01    0.572E-02
DAV:   6    -0.355766742474E+02    0.16687E-04   -0.25103E-04  4520   0.818E-02    0.181E-02
DAV:   7    -0.355766722353E+02    0.20121E-05   -0.22717E-05  4352   0.295E-02    0.961E-03
DAV:   8    -0.355766719439E+02    0.29143E-06   -0.28637E-06  3472   0.848E-03
   3 F= -.35576672E+02 E0= -.35572519E+02  d E =-.575609E-01
quench:  g(F)=  0.000E+00 g(S)=  0.000E+00 dE (1.order)= 0.000E+00
 bond charge predicted
       N       E                     dE             d eps       ncg     rms          rms(c)
DAV:   1    -0.356341227795E+02   -0.57451E-01   -0.55637E+00  3264   0.114E+01    0.621E-01
DAV:   2    -0.356382563315E+02   -0.41336E-02   -0.56557E-02  4304   0.125E+00    0.352E-01
DAV:   3    -0.356380367266E+02    0.21960E-03   -0.98262E-03  4872   0.517E-01    0.224E-01
DAV:   4    -0.356378313567E+02    0.20537E-03   -0.86285E-03  4912   0.441E-01    0.225E-01
DAV:   5    -0.356372991936E+02    0.53216E-03   -0.24971E-03  4640   0.246E-01    0.853E-02
DAV:   6    -0.356372444837E+02    0.54710E-04   -0.45363E-04  4448   0.109E-01    0.185E-02
DAV:   7    -0.356372454414E+02   -0.95769E-06   -0.34192E-05  4192   0.349E-02    0.150E-02
DAV:   8    -0.356372448682E+02    0.57316E-06   -0.42735E-06  3912   0.105E-02
   4 F= -.35637245E+02 E0= -.35632840E+02  d E =-.605729E-01
quench:  g(F)=  0.000E+00 g(S)=  0.000E+00 dE (1.order)= 0.000E+00
 bond charge predicted
       N       E                     dE             d eps       ncg     rms          rms(c)
DAV:   1    -0.356885982216E+02   -0.51353E-01   -0.71802E+00  3264   0.130E+01    0.657E-01
DAV:   2    -0.356937183784E+02   -0.51202E-02   -0.70306E-02  4232   0.139E+00    0.363E-01
DAV:   3    -0.356933283925E+02    0.38999E-03   -0.60382E-03  4680   0.423E-01    0.216E-01
DAV:   4    -0.356934180899E+02   -0.89697E-04   -0.55395E-03  4880   0.369E-01    0.232E-01
DAV:   5    -0.356929065580E+02    0.51153E-03   -0.33381E-03  4904   0.283E-01    0.110E-01
DAV:   6    -0.356928308235E+02    0.75734E-04   -0.76174E-04  4240   0.142E-01    0.320E-02
DAV:   7    -0.356928187211E+02    0.12102E-04   -0.88631E-05  4480   0.553E-02    0.213E-02
DAV:   8    -0.356928191775E+02   -0.45643E-06   -0.10702E-05  4728   0.154E-02    0.173E-02
DAV:   9    -0.356928182870E+02    0.89054E-06   -0.52412E-06  3936   0.112E-02
   5 F= -.35692818E+02 E0= -.35688258E+02  d E =-.555734E-01
quench:  g(F)=  0.000E+00 g(S)=  0.000E+00 dE (1.order)= 0.000E+00
 bond charge predicted
       N       E                     dE             d eps       ncg     rms          rms(c)
DAV:   1    -0.357316995560E+02   -0.38880E-01   -0.80402E+00  3264   0.138E+01    0.602E-01
DAV:   2    -0.357381756132E+02   -0.64761E-02   -0.81834E-02  4192   0.149E+00    0.334E-01
DAV:   3    -0.357377076025E+02    0.46801E-03   -0.33850E-03  4424   0.323E-01    0.198E-01
DAV:   4    -0.357375651927E+02    0.14241E-03   -0.16115E-03  4816   0.210E-01    0.176E-01
DAV:   5    -0.357374800271E+02    0.85166E-04   -0.25904E-03  4896   0.250E-01    0.105E-01
DAV:   6    -0.357373183016E+02    0.16173E-03   -0.11219E-03  4664   0.172E-01    0.291E-02
DAV:   7    -0.357373088959E+02    0.94057E-05   -0.88452E-05  4232   0.511E-02    0.219E-02
DAV:   8    -0.357373092771E+02   -0.38117E-06   -0.11553E-05  4608   0.156E-02    0.143E-02
DAV:   9    -0.357373086327E+02    0.64434E-06   -0.58313E-06  3808   0.119E-02
   6 F= -.35737309E+02 E0= -.35732638E+02  d E =-.444903E-01
quench:  g(F)=  0.000E+00 g(S)=  0.000E+00 dE (1.order)= 0.000E+00
 bond charge predicted
       N       E                     dE             d eps       ncg     rms          rms(c)
DAV:   1    -0.357633490778E+02   -0.26040E-01   -0.75745E+00  3264   0.134E+01    0.561E-01
DAV:   2    -0.357708198120E+02   -0.74707E-02   -0.87128E-02  3960   0.151E+00    0.257E-01
DAV:   3    -0.357704429279E+02    0.37688E-03   -0.23185E-03  4992   0.259E-01    0.188E-01
DAV:   4    -0.357703349759E+02    0.10795E-03   -0.14417E-03  4824   0.195E-01    0.137E-01
DAV:   5    -0.357701610734E+02    0.17390E-03   -0.18552E-03  4864   0.221E-01    0.624E-02
DAV:   6    -0.357701094840E+02    0.51589E-04   -0.45206E-04  4720   0.113E-01    0.231E-02
DAV:   7    -0.357701051146E+02    0.43694E-05   -0.33672E-05  4304   0.313E-02    0.143E-02
DAV:   8    -0.357701053190E+02   -0.20439E-06   -0.69406E-06  4424   0.119E-02
   7 F= -.35770105E+02 E0= -.35765470E+02  d E =-.327967E-01
quench:  g(F)=  0.000E+00 g(S)=  0.000E+00 dE (1.order)= 0.000E+00
 bond charge predicted
       N       E                     dE             d eps       ncg     rms          rms(c)
DAV:   1    -0.357995015615E+02   -0.29396E-01   -0.64156E+00  3264   0.123E+01    0.824E-01
DAV:   2    -0.358073741356E+02   -0.78726E-02   -0.95341E-02  4368   0.157E+00    0.287E-01
DAV:   3    -0.358071430560E+02    0.23108E-03   -0.47486E-03  4192   0.380E-01    0.225E-01
DAV:   4    -0.358070356593E+02    0.10740E-03   -0.15935E-03  4896   0.226E-01    0.182E-01
DAV:   5    -0.358069583762E+02    0.77283E-04   -0.16166E-03  4768   0.200E-01    0.125E-01
DAV:   6    -0.358068160909E+02    0.14229E-03   -0.90236E-04  4760   0.157E-01    0.338E-02
DAV:   7    -0.358068093151E+02    0.67757E-05   -0.88919E-05  4192   0.545E-02    0.152E-02
DAV:   8    -0.358068088129E+02    0.50223E-06   -0.12311E-05  4632   0.176E-02    0.101E-02
DAV:   9    -0.358068090067E+02   -0.19379E-06   -0.26432E-06  2952   0.873E-03
   8 F= -.35806809E+02 E0= -.35802438E+02  d E =-.367037E-01
quench:  g(F)=  0.000E+00 g(S)=  0.000E+00 dE (1.order)= 0.000E+00
 bond charge predicted
       N       E                     dE             d eps       ncg     rms          rms(c)
DAV:   1    -0.358242516820E+02   -0.17443E-01   -0.19730E+00  3264   0.683E+00    0.554E-01
DAV:   2    -0.358260726729E+02   -0.18210E-02   -0.25410E-02  4384   0.848E-01    0.177E-01
DAV:   3    -0.358260001555E+02    0.72517E-04   -0.23241E-03  4336   0.260E-01    0.144E-01
DAV:   4    -0.358259207255E+02    0.79430E-04   -0.10713E-03  4896   0.178E-01    0.115E-01
DAV:   5    -0.358258586627E+02    0.62063E-04   -0.58686E-04  4792   0.121E-01    0.693E-02
DAV:   6    -0.358258148631E+02    0.43800E-04   -0.20028E-04  4368   0.786E-02    0.864E-03
DAV:   7    -0.358258160900E+02   -0.12269E-05   -0.16171E-05  4392   0.237E-02    0.858E-03
DAV:   8    -0.358258157749E+02    0.31511E-06   -0.13071E-06  2888   0.693E-03
   9 F= -.35825816E+02 E0= -.35821496E+02  d E =-.190068E-01
quench:  g(F)=  0.000E+00 g(S)=  0.000E+00 dE (1.order)= 0.000E+00
 bond charge predicted
       N       E                     dE             d eps       ncg     rms          rms(c)
DAV:   1    -0.358330641427E+02   -0.72481E-02   -0.17587E-01  3264   0.204E+00    0.163E-01
DAV:   2    -0.358332744708E+02   -0.21033E-03   -0.27651E-03  4432   0.273E-01    0.524E-02
DAV:   3    -0.358332731341E+02    0.13367E-05   -0.24532E-04  4224   0.854E-02    0.453E-02
DAV:   4    -0.358332656027E+02    0.75314E-05   -0.79630E-05  4888   0.506E-02    0.356E-02
DAV:   5    -0.358332629262E+02    0.26765E-05   -0.34798E-05  4872   0.301E-02    0.250E-02
DAV:   6    -0.358332595839E+02    0.33423E-05   -0.19652E-05  4320   0.244E-02    0.429E-03
DAV:   7    -0.358332596519E+02   -0.68035E-07   -0.20047E-06  2840   0.884E-03
  10 F= -.35833260E+02 E0= -.35828988E+02  d E =-.744388E-02
quench:  g(F)=  0.000E+00 g(S)=  0.000E+00 dE (1.order)= 0.000E+00
 bond charge predicted
       N       E                     dE             d eps       ncg     rms          rms(c)
DAV:   1    -0.358429187838E+02   -0.96592E-02   -0.24089E-01  3264   0.239E+00    0.138E-01
DAV:   2    -0.358432443783E+02   -0.32559E-03   -0.37258E-03  4320   0.307E-01    0.528E-02
DAV:   3    -0.358432383174E+02    0.60609E-05   -0.12055E-04  4528   0.588E-02    0.399E-02
DAV:   4    -0.358432364597E+02    0.18577E-05   -0.41049E-05  4928   0.350E-02    0.306E-02
DAV:   5    -0.358432359275E+02    0.53225E-06   -0.78934E-05  4848   0.444E-02    0.213E-02
DAV:   6    -0.358432305140E+02    0.54134E-05   -0.31381E-05  4808   0.296E-02    0.401E-03
DAV:   7    -0.358432306600E+02   -0.14601E-06   -0.17482E-06  2976   0.789E-03
  11 F= -.35843231E+02 E0= -.35839020E+02  d E =-.997101E-02
quench:  g(F)=  0.000E+00 g(S)=  0.000E+00 dE (1.order)= 0.000E+00
 bond charge predicted
       N       E                     dE             d eps       ncg     rms          rms(c)
DAV:   1    -0.358557891321E+02   -0.12559E-01   -0.37617E-01  3264   0.299E+00    0.164E-01
DAV:   2    -0.358563158115E+02   -0.52668E-03   -0.59111E-03  4256   0.384E-01    0.658E-02
DAV:   3    -0.358563049654E+02    0.10846E-04   -0.14770E-04  4904   0.631E-02    0.492E-02
DAV:   4    -0.358562941257E+02    0.10840E-04   -0.21059E-05  4400   0.244E-02    0.245E-02
DAV:   5    -0.358562935511E+02    0.57468E-06   -0.18604E-05  4248   0.229E-02    0.870E-03
DAV:   6    -0.358562930168E+02    0.53425E-06   -0.59352E-06  3560   0.142E-02
  12 F= -.35856293E+02 E0= -.35852154E+02  d E =-.130624E-01
quench:  g(F)=  0.000E+00 g(S)=  0.000E+00 dE (1.order)= 0.000E+00
 bond charge predicted
       N       E                     dE             d eps       ncg     rms          rms(c)
DAV:   1    -0.358716791042E+02   -0.15386E-01   -0.53186E-01  3264   0.356E+00    0.205E-01
DAV:   2    -0.358724711739E+02   -0.79207E-03   -0.88765E-03  4280   0.469E-01    0.804E-02
DAV:   3    -0.358724576933E+02    0.13481E-04   -0.22863E-04  4904   0.784E-02    0.601E-02
DAV:   4    -0.358724440592E+02    0.13634E-04   -0.30344E-05  4432   0.295E-02    0.329E-02
DAV:   5    -0.358724461594E+02   -0.21002E-05   -0.61349E-05  4776   0.410E-02    0.188E-02
DAV:   6    -0.358724410437E+02    0.51157E-05   -0.29762E-05  4856   0.294E-02    0.549E-03
DAV:   7    -0.358724411188E+02   -0.75081E-07   -0.13972E-06  2680   0.677E-03
  13 F= -.35872441E+02 E0= -.35868387E+02  d E =-.161481E-01
quench:  g(F)=  0.000E+00 g(S)=  0.000E+00 dE (1.order)= 0.000E+00
 bond charge predicted
       N       E                     dE             d eps       ncg     rms          rms(c)
DAV:   1    -0.358900691571E+02   -0.17628E-01   -0.68281E-01  3264   0.403E+00    0.241E-01
DAV:   2    -0.358911811887E+02   -0.11120E-02   -0.12360E-02  4288   0.550E-01    0.944E-02
DAV:   3    -0.358911650401E+02    0.16149E-04   -0.31259E-04  4968   0.915E-02    0.712E-02
DAV:   4    -0.358911466620E+02    0.18378E-04   -0.41277E-05  4408   0.344E-02    0.372E-02
DAV:   5    -0.358911485273E+02   -0.18653E-05   -0.70969E-05  4792   0.443E-02    0.201E-02
DAV:   6    -0.358911433208E+02    0.52065E-05   -0.33791E-05  4872   0.313E-02    0.659E-03
DAV:   7    -0.358911433336E+02   -0.12794E-07   -0.20258E-06  2696   0.817E-03
  14 F= -.35891143E+02 E0= -.35887178E+02  d E =-.187022E-01
quench:  g(F)=  0.000E+00 g(S)=  0.000E+00 dE (1.order)= 0.000E+00
 bond charge predicted
       N       E                     dE             d eps       ncg     rms          rms(c)
DAV:   1    -0.359099070691E+02   -0.18764E-01   -0.81042E-01  3264   0.439E+00    0.274E-01
DAV:   2    -0.359113810616E+02   -0.14740E-02   -0.16242E-02  4320   0.627E-01    0.106E-01
DAV:   3    -0.359113658943E+02    0.15167E-04   -0.40870E-04  4976   0.104E-01    0.803E-02
DAV:   4    -0.359113442308E+02    0.21663E-04   -0.43258E-05  4392   0.352E-02    0.424E-02
DAV:   5    -0.359113427528E+02    0.14780E-05   -0.47843E-05  4264   0.371E-02    0.148E-02
DAV:   6    -0.359113413517E+02    0.14011E-05   -0.16593E-05  4568   0.234E-02    0.741E-03
DAV:   7    -0.359113412836E+02    0.68078E-07   -0.28614E-06  2920   0.101E-02
  15 F= -.35911341E+02 E0= -.35907454E+02  d E =-.201980E-01
quench:  g(F)=  0.000E+00 g(S)=  0.000E+00 dE (1.order)= 0.000E+00
 bond charge predicted
       N       E                     dE             d eps       ncg     rms          rms(c)
DAV:   1    -0.359292733269E+02   -0.17932E-01   -0.91235E-01  3264   0.466E+00    0.294E-01
DAV:   2    -0.359311062081E+02   -0.18329E-02   -0.19930E-02  4336   0.692E-01    0.115E-01
DAV:   3    -0.359310920468E+02    0.14161E-04   -0.46435E-04  5064   0.111E-01    0.854E-02
DAV:   4    -0.359310658933E+02    0.26153E-04   -0.76101E-05  4360   0.470E-02    0.355E-02
DAV:   5    -0.359310716354E+02   -0.57421E-05   -0.86775E-05  4840   0.497E-02    0.212E-02
DAV:   6    -0.359310652713E+02    0.63641E-05   -0.39338E-05  4896   0.335E-02    0.776E-03
DAV:   7    -0.359310652280E+02    0.43329E-07   -0.19262E-06  2664   0.799E-03
  16 F= -.35931065E+02 E0= -.35927223E+02  d E =-.197239E-01
quench:  g(F)=  0.000E+00 g(S)=  0.000E+00 dE (1.order)= 0.000E+00
 bond charge predicted
       N       E                     dE             d eps       ncg     rms          rms(c)
DAV:   1    -0.359446854236E+02   -0.13620E-01   -0.99158E-01  3264   0.485E+00    0.298E-01
DAV:   2    -0.359466424137E+02   -0.19570E-02   -0.21418E-02  4352   0.721E-01    0.113E-01
DAV:   3    -0.359466319661E+02    0.10448E-04   -0.66061E-04  4976   0.140E-01    0.874E-02
DAV:   4    -0.359466342262E+02   -0.22600E-05   -0.30644E-04  4936   0.940E-02    0.695E-02
DAV:   5    -0.359466066430E+02    0.27583E-04   -0.34361E-04  4888   0.948E-02    0.346E-02
DAV:   6    -0.359465965958E+02    0.10047E-04   -0.80810E-05  4456   0.495E-02    0.902E-03
DAV:   7    -0.359465965919E+02    0.38503E-08   -0.67946E-06  4224   0.148E-02
  17 F= -.35946597E+02 E0= -.35942731E+02  d E =-.155314E-01
quench:  g(F)=  0.000E+00 g(S)=  0.000E+00 dE (1.order)= 0.000E+00
 bond charge predicted
       N       E                     dE             d eps       ncg     rms          rms(c)
DAV:   1    -0.359535714987E+02   -0.69749E-02   -0.10315E+00  3264   0.496E+00    0.376E-01
DAV:   2    -0.359551489501E+02   -0.15775E-02   -0.18618E-02  4336   0.696E-01    0.132E-01
DAV:   3    -0.359551263608E+02    0.22589E-04   -0.98446E-04  4424   0.172E-01    0.983E-02
DAV:   4    -0.359551114751E+02    0.14886E-04   -0.50758E-04  4912   0.124E-01    0.849E-02
DAV:   5    -0.359550705519E+02    0.40923E-04   -0.35328E-04  4776   0.962E-02    0.410E-02
DAV:   6    -0.359550579634E+02    0.12589E-04   -0.80088E-05  4240   0.509E-02    0.694E-03
DAV:   7    -0.359550582860E+02   -0.32261E-06   -0.84404E-06  4664   0.157E-02
  18 F= -.35955058E+02 E0= -.35951171E+02  d E =-.846169E-02
quench:  g(F)=  0.000E+00 g(S)=  0.000E+00 dE (1.order)= 0.000E+00
 bond charge predicted
       N       E                     dE             d eps       ncg     rms          rms(c)
DAV:   1    -0.359563682887E+02   -0.13103E-02   -0.23529E-02  3264   0.745E-01    0.731E-02
DAV:   2    -0.359563886049E+02   -0.20316E-04   -0.35089E-04  4408   0.103E-01    0.234E-02
DAV:   3    -0.359563896364E+02   -0.10315E-05   -0.74279E-05  4480   0.473E-02    0.217E-02
DAV:   4    -0.359563858364E+02    0.38000E-05   -0.28033E-05  4840   0.290E-02    0.152E-02
DAV:   5    -0.359563851404E+02    0.69600E-06   -0.36982E-06  3088   0.107E-02
  19 F= -.35956385E+02 E0= -.35952494E+02  d E =-.132685E-02
quench:  g(F)=  0.000E+00 g(S)=  0.000E+00 dE (1.order)= 0.000E+00
 bond charge predicted
       N       E                     dE             d eps       ncg     rms          rms(c)
DAV:   1    -0.359584146888E+02   -0.20289E-02   -0.64122E-02  3264   0.123E+00    0.120E-01
DAV:   2    -0.359584793947E+02   -0.64706E-04   -0.99966E-04  4416   0.170E-01    0.356E-02
DAV:   3    -0.359584800662E+02   -0.67154E-06   -0.13274E-04  4264   0.621E-02    0.314E-02
DAV:   4    -0.359584754819E+02    0.45843E-05   -0.43481E-05  4872   0.375E-02    0.242E-02
DAV:   5    -0.359584741116E+02    0.13703E-05   -0.13265E-05  4400   0.192E-02    0.169E-02
DAV:   6    -0.359584727563E+02    0.13553E-05   -0.63580E-06  3832   0.149E-02    0.286E-03
DAV:   7    -0.359584727709E+02   -0.14628E-07   -0.81985E-07  2512   0.581E-03
  20 F= -.35958473E+02 E0= -.35954576E+02  d E =-.208763E-02
quench:  g(F)=  0.000E+00 g(S)=  0.000E+00 dE (1.order)= 0.000E+00
 bond charge predicted
       N       E                     dE             d eps       ncg     rms          rms(c)
DAV:   1    -0.359609659599E+02   -0.24932E-02   -0.47687E-02  3264   0.107E+00    0.869E-02
DAV:   2    -0.359610566816E+02   -0.90722E-04   -0.10615E-03  4344   0.164E-01    0.291E-02
DAV:   3    -0.359610568230E+02   -0.14139E-06   -0.49268E-05  4232   0.373E-02    0.224E-02
DAV:   4    -0.359610564564E+02    0.36659E-06   -0.13205E-05  4880   0.211E-02    0.182E-02
DAV:   5    -0.359610566369E+02   -0.18047E-06   -0.17289E-05  4744   0.214E-02    0.124E-02
DAV:   6    -0.359610554227E+02    0.12141E-05   -0.84053E-06  4032   0.158E-02    0.197E-03
DAV:   7    -0.359610554813E+02   -0.58564E-07   -0.63417E-07  2304   0.515E-03
  21 F= -.35961055E+02 E0= -.35957150E+02  d E =-.258271E-02
quench:  g(F)=  0.000E+00 g(S)=  0.000E+00 dE (1.order)= 0.000E+00
 bond charge predicted
       N       E                     dE             d eps       ncg     rms          rms(c)
DAV:   1    -0.359639450701E+02   -0.28896E-02   -0.54785E-02  3280   0.114E+00    0.775E-02
DAV:   2    -0.359640844706E+02   -0.13940E-03   -0.14956E-03  4336   0.188E-01    0.313E-02
DAV:   3    -0.359640846046E+02   -0.13401E-06   -0.35120E-05  5152   0.310E-02    0.229E-02
DAV:   4    -0.359640849067E+02   -0.30210E-06   -0.12482E-05  4720   0.189E-02    0.132E-02
DAV:   5    -0.359640847386E+02    0.16809E-06   -0.21527E-05  4872   0.244E-02    0.784E-03
DAV:   6    -0.359640839559E+02    0.78270E-06   -0.43835E-06  3216   0.116E-02
  22 F= -.35964084E+02 E0= -.35960168E+02  d E =-.302847E-02
quench:  g(F)=  0.000E+00 g(S)=  0.000E+00 dE (1.order)= 0.000E+00
 bond charge predicted
       N       E                     dE             d eps       ncg     rms          rms(c)
DAV:   1    -0.359671672684E+02   -0.30825E-02   -0.80121E-02  3288   0.137E+00    0.941E-02
DAV:   2    -0.359673833878E+02   -0.21612E-03   -0.23126E-03  4368   0.234E-01    0.373E-02
DAV:   3    -0.359673837640E+02   -0.37614E-06   -0.52359E-05  5064   0.375E-02    0.273E-02
DAV:   4    -0.359673821704E+02    0.15936E-05   -0.68180E-06  4352   0.142E-02    0.108E-02
DAV:   5    -0.359673829621E+02   -0.79167E-06   -0.31340E-06  3144   0.994E-03
  23 F= -.35967383E+02 E0= -.35963451E+02  d E =-.329901E-02
quench:  g(F)=  0.000E+00 g(S)=  0.000E+00 dE (1.order)= 0.000E+00
 bond charge predicted
       N       E                     dE             d eps       ncg     rms          rms(c)
DAV:   1    -0.359702097422E+02   -0.28276E-02   -0.10512E-01  3312   0.157E+00    0.104E-01
DAV:   2    -0.359704923011E+02   -0.28256E-03   -0.30158E-03  4368   0.267E-01    0.402E-02
DAV:   3    -0.359704930614E+02   -0.76036E-06   -0.68544E-05  5120   0.436E-02    0.294E-02
DAV:   4    -0.359704957364E+02   -0.26750E-05   -0.36060E-05  4936   0.318E-02    0.200E-02
DAV:   5    -0.359704918734E+02    0.38630E-05   -0.40171E-05  4944   0.334E-02    0.642E-03
DAV:   6    -0.359704915445E+02    0.32893E-06   -0.35008E-06  2848   0.109E-02
  24 F= -.35970492E+02 E0= -.35966533E+02  d E =-.310858E-02
quench:  g(F)=  0.000E+00 g(S)=  0.000E+00 dE (1.order)= 0.000E+00
 bond charge predicted
       N       E                     dE             d eps       ncg     rms          rms(c)
DAV:   1    -0.359727466355E+02   -0.22548E-02   -0.12883E-01  3304   0.174E+00    0.110E-01
DAV:   2    -0.359730844303E+02   -0.33779E-03   -0.35983E-03  4352   0.292E-01    0.430E-02
DAV:   3    -0.359730851006E+02   -0.67035E-06   -0.84614E-05  5160   0.493E-02    0.319E-02
DAV:   4    -0.359730901127E+02   -0.50121E-05   -0.58359E-05  4952   0.401E-02    0.262E-02
DAV:   5    -0.359730825500E+02    0.75627E-05   -0.56244E-05  4936   0.393E-02    0.630E-03
DAV:   6    -0.359730824485E+02    0.10148E-06   -0.43476E-06  3168   0.122E-02
  25 F= -.35973082E+02 E0= -.35969092E+02  d E =-.259090E-02
quench:  g(F)=  0.000E+00 g(S)=  0.000E+00 dE (1.order)= 0.000E+00
 bond charge predicted
       N       E                     dE             d eps       ncg     rms          rms(c)
DAV:   1    -0.359746006285E+02   -0.15181E-02   -0.15314E-01  3280   0.191E+00    0.114E-01
DAV:   2    -0.359749655088E+02   -0.36488E-03   -0.39188E-03  4352   0.306E-01    0.447E-02
DAV:   3    -0.359749648615E+02    0.64728E-06   -0.85635E-05  5048   0.481E-02    0.335E-02
DAV:   4    -0.359749628092E+02    0.20523E-05   -0.22417E-05  4680   0.257E-02    0.153E-02
DAV:   5    -0.359749624201E+02    0.38910E-06   -0.28083E-05  4880   0.284E-02    0.855E-03
DAV:   6    -0.359749613057E+02    0.11144E-05   -0.75549E-06  3976   0.151E-02    0.298E-03
DAV:   7    -0.359749612769E+02    0.28765E-07   -0.60773E-07  2392   0.486E-03
  26 F= -.35974961E+02 E0= -.35970943E+02  d E =-.187883E-02
quench:  g(F)=  0.000E+00 g(S)=  0.000E+00 dE (1.order)= 0.000E+00
 bond charge predicted
       N       E                     dE             d eps       ncg     rms          rms(c)
DAV:   1    -0.359752487169E+02   -0.28741E-03   -0.16025E-01  3264   0.195E+00    0.158E-01
DAV:   2    -0.359755047158E+02   -0.25600E-03   -0.31581E-03  4344   0.286E-01    0.545E-02
DAV:   3    -0.359755052942E+02   -0.57844E-06   -0.24304E-04  4464   0.862E-02    0.436E-02
DAV:   4    -0.359754984521E+02    0.68422E-05   -0.96727E-05  4920   0.553E-02    0.351E-02
DAV:   5    -0.359754937213E+02    0.47308E-05   -0.40520E-05  4768   0.331E-02    0.211E-02
DAV:   6    -0.359754914067E+02    0.23146E-05   -0.12887E-05  4152   0.208E-02    0.292E-03
DAV:   7    -0.359754914954E+02   -0.88744E-07   -0.10863E-06  2776   0.622E-03
  27 F= -.35975491E+02 E0= -.35971456E+02  d E =-.530219E-03
quench:  g(F)=  0.000E+00 g(S)=  0.000E+00 dE (1.order)= 0.000E+00
 bond charge predicted
       N       E                     dE             d eps       ncg     rms          rms(c)
DAV:   1    -0.359757194811E+02   -0.22807E-03   -0.52988E-03  3264   0.353E-01    0.338E-02
DAV:   2    -0.359757237331E+02   -0.42520E-05   -0.73948E-05  4376   0.473E-02    0.106E-02
DAV:   3    -0.359757238270E+02   -0.93910E-07   -0.12587E-05  4272   0.194E-02    0.959E-03
DAV:   4    -0.359757232269E+02    0.60013E-06   -0.40251E-06  3272   0.119E-02
  28 F= -.35975723E+02 E0= -.35971688E+02  d E =-.231731E-03
quench:  g(F)=  0.000E+00 g(S)=  0.000E+00 dE (1.order)= 0.000E+00
 bond charge predicted
       N       E                     dE             d eps       ncg     rms          rms(c)
DAV:   1    -0.359759902579E+02   -0.26643E-03   -0.13912E-02  3264   0.574E-01    0.535E-02
DAV:   2    -0.359760031018E+02   -0.12844E-04   -0.21553E-04  4368   0.801E-02    0.195E-02
DAV:   3    -0.359760031386E+02   -0.36801E-07   -0.37780E-05  4400   0.339E-02    0.172E-02
DAV:   4    -0.359760013150E+02    0.18236E-05   -0.14532E-05  4576   0.213E-02    0.129E-02
DAV:   5    -0.359760007948E+02    0.52020E-06   -0.33923E-06  3168   0.104E-02
  29 F= -.35976001E+02 E0= -.35971966E+02  d E =-.277568E-03
quench:  g(F)=  0.000E+00 g(S)=  0.000E+00 dE (1.order)= 0.000E+00
 bond charge predicted
       N       E                     dE             d eps       ncg     rms          rms(c)
DAV:   1    -0.359761997555E+02   -0.19844E-03   -0.86130E-03  3264   0.453E-01    0.366E-02
DAV:   2    -0.359762182853E+02   -0.18530E-04   -0.21226E-04  4360   0.732E-02    0.138E-02
DAV:   3    -0.359762184987E+02   -0.21340E-06   -0.12958E-05  4600   0.203E-02    0.106E-02
DAV:   4    -0.359762182545E+02    0.24415E-06   -0.64137E-06  3896   0.143E-02
  30 F= -.35976218E+02 E0= -.35972184E+02  d E =-.217460E-03
quench:  g(F)=  0.000E+00 g(S)=  0.000E+00 dE (1.order)= 0.000E+00
 bond charge predicted
       N       E                     dE             d eps       ncg     rms          rms(c)
DAV:   1    -0.359763878300E+02   -0.16933E-03   -0.88086E-03  3336   0.452E-01    0.317E-02
DAV:   2    -0.359764145663E+02   -0.26736E-04   -0.28409E-04  4376   0.821E-02    0.150E-02
DAV:   3    -0.359764148355E+02   -0.26922E-06   -0.99240E-06  4880   0.182E-02
  31 F= -.35976415E+02 E0= -.35972380E+02  d E =-.196581E-03
quench:  g(F)=  0.000E+00 g(S)=  0.000E+00 dE (1.order)= 0.000E+00
 bond charge predicted
       N       E                     dE             d eps       ncg     rms          rms(c)
DAV:   1    -0.359765294133E+02   -0.11485E-03   -0.12488E-02  3352   0.538E-01    0.353E-02
DAV:   2    -0.359765682566E+02   -0.38843E-04   -0.41246E-04  4392   0.101E-01    0.214E-02
DAV:   3    -0.359765681530E+02    0.10352E-06   -0.29234E-05  5152   0.323E-02    0.163E-02
DAV:   4    -0.359765675917E+02    0.56134E-06   -0.15094E-05  4664   0.204E-02    0.131E-02
DAV:   5    -0.359765671655E+02    0.42618E-06   -0.55497E-06  3608   0.130E-02
  32 F= -.35976567E+02 E0= -.35972531E+02  d E =-.152330E-03
quench:  g(F)=  0.000E+00 g(S)=  0.000E+00 dE (1.order)= 0.000E+00
 bond charge predicted
       N       E                     dE             d eps       ncg     rms          rms(c)
DAV:   1    -0.359765964112E+02   -0.28819E-04   -0.16316E-02  3336   0.617E-01    0.409E-02
DAV:   2    -0.359766448576E+02   -0.48446E-04   -0.51491E-04  4352   0.110E-01    0.162E-02
DAV:   3    -0.359766452372E+02   -0.37960E-06   -0.13368E-05  5080   0.202E-02    0.118E-02
DAV:   4    -0.359766461833E+02   -0.94606E-06   -0.10347E-05  4384   0.171E-02    0.111E-02
DAV:   5    -0.359766450419E+02    0.11414E-05   -0.74058E-06  4008   0.147E-02    0.179E-03
DAV:   6    -0.359766451110E+02   -0.69111E-07   -0.60946E-07  2360   0.489E-03
  33 F= -.35976645E+02 E0= -.35972607E+02  d E =-.779455E-04
quench:  g(F)=  0.000E+00 g(S)=  0.000E+00 dE (1.order)= 0.000E+00
 bond charge predicted
       N       E                     dE             d eps       ncg     rms          rms(c)
DAV:   1    -0.359765773621E+02    0.67680E-04   -0.21769E-02  3296   0.720E-01    0.430E-02
DAV:   2    -0.359766316452E+02   -0.54283E-04   -0.58405E-04  4352   0.118E-01    0.169E-02
DAV:   3    -0.359766315924E+02    0.52846E-07   -0.13022E-05  5040   0.188E-02    0.128E-02
DAV:   4    -0.359766313397E+02    0.25261E-06   -0.27545E-06  3256   0.952E-03
  34 F= -.35976631E+02 E0= -.35972590E+02  d E =0.137712E-04
quench:  g(F)=  0.000E+00 g(S)=  0.000E+00 dE (1.order)= 0.000E+00
 bond charge predicted
       N       E                     dE             d eps       ncg     rms          rms(c)
DAV:   1    -0.359765110008E+02    0.12059E-03   -0.21135E-02  3264   0.711E-01    0.524E-02
DAV:   2    -0.359765467179E+02   -0.35717E-04   -0.42949E-04  4400   0.103E-01    0.179E-02
DAV:   3    -0.359765462232E+02    0.49470E-06   -0.15155E-05  4352   0.198E-02    0.138E-02
DAV:   4    -0.359765457613E+02    0.46194E-06   -0.80576E-07  3144   0.533E-03
  35 F= -.35976546E+02 E0= -.35972499E+02  d E =0.855785E-04
quench:  g(F)=  0.000E+00 g(S)=  0.000E+00 dE (1.order)= 0.000E+00
 bond charge predicted
       N       E                     dE             d eps       ncg     rms          rms(c)
DAV:   1    -0.359765657658E+02   -0.19543E-04   -0.48822E-04  3320   0.107E-01    0.118E-02
DAV:   2    -0.359765664521E+02   -0.68633E-06   -0.11102E-05  4408   0.194E-02    0.565E-03
DAV:   3    -0.359765664102E+02    0.41907E-07   -0.70511E-06  3896   0.150E-02
  36 F= -.35976566E+02 E0= -.35972520E+02  d E =-.206489E-04
quench:  g(F)=  0.000E+00 g(S)=  0.000E+00 dE (1.order)= 0.000E+00
 bond charge predicted
       N       E                     dE             d eps       ncg     rms          rms(c)
DAV:   1    -0.359765779665E+02   -0.11514E-04   -0.13254E-03  3272   0.177E-01    0.172E-02
DAV:   2    -0.359765790308E+02   -0.10643E-05   -0.19589E-05  4416   0.239E-02    0.656E-03
DAV:   3    -0.359765790093E+02    0.21502E-07   -0.33818E-06  3000   0.106E-02
  37 F= -.35976579E+02 E0= -.35972533E+02  d E =-.125991E-04
quench:  g(F)=  0.000E+00 g(S)=  0.000E+00 dE (1.order)= 0.000E+00
 bond charge predicted
       N       E                     dE             d eps       ncg     rms          rms(c)
DAV:   1    -0.359765594866E+02    0.19544E-04   -0.65226E-04  3272   0.124E-01    0.109E-02
DAV:   2    -0.359765606217E+02   -0.11350E-05   -0.15007E-05  4360   0.195E-02    0.559E-03
DAV:   3    -0.359765606057E+02    0.15913E-07   -0.61950E-07  2872   0.472E-03
  38 F= -.35976561E+02 E0= -.35972515E+02  d E =0.184035E-04
quench:  g(F)=  0.000E+00 g(S)=  0.000E+00 dE (1.order)= 0.000E+00
 bond charge predicted
       N       E                     dE             d eps       ncg     rms          rms(c)
DAV:   1    -0.359765281639E+02    0.32458E-04   -0.44947E-04  3368   0.101E-01    0.800E-03
DAV:   2    -0.359765299844E+02   -0.18205E-05   -0.19558E-05  4472   0.228E-02    0.601E-03
DAV:   3    -0.359765297706E+02    0.21388E-06   -0.42688E-06  3336   0.125E-02
  39 F= -.35976530E+02 E0= -.35972485E+02  d E =0.308352E-04
quench:  g(F)=  0.000E+00 g(S)=  0.000E+00 dE (1.order)= 0.000E+00
 bond charge predicted
       N       E                     dE             d eps       ncg     rms          rms(c)
DAV:   1    -0.359764916982E+02    0.38286E-04   -0.65454E-04  3328   0.123E-01    0.767E-03
DAV:   2    -0.359764937791E+02   -0.20809E-05   -0.21005E-05  4352   0.222E-02    0.483E-03
DAV:   3    -0.359764938229E+02   -0.43766E-07   -0.37579E-07  2536   0.372E-03
  40 F= -.35976494E+02 E0= -.35972449E+02  d E =0.359477E-04
quench:  g(F)=  0.000E+00 g(S)=  0.000E+00 dE (1.order)= 0.000E+00
 bond charge predicted
       N       E                     dE             d eps       ncg     rms          rms(c)
DAV:   1    -0.359764634023E+02    0.30377E-04   -0.11233E-03  3264   0.163E-01    0.807E-03
DAV:   2    -0.359764654747E+02   -0.20723E-05   -0.22490E-05  4360   0.233E-02    0.354E-03
DAV:   3    -0.359764654568E+02    0.17862E-07   -0.58195E-07  2800   0.487E-03
  41 F= -.35976465E+02 E0= -.35972421E+02  d E =0.283661E-04
quench:  g(F)=  0.000E+00 g(S)=  0.000E+00 dE (1.order)= 0.000E+00
 bond charge predicted
       N       E                     dE             d eps       ncg     rms          rms(c)
DAV:   1    -0.359764635438E+02    0.19309E-05   -0.14756E-03  3264   0.187E-01    0.779E-03
DAV:   2    -0.359764648188E+02   -0.12750E-05   -0.16354E-05  4304   0.210E-02    0.464E-03
DAV:   3    -0.359764646871E+02    0.13166E-06   -0.10042E-06  2744   0.631E-03
  42 F= -.35976465E+02 E0= -.35972420E+02  d E =0.769708E-06
quench:  g(F)=  0.000E+00 g(S)=  0.000E+00 dE (1.order)= 0.000E+00
 bond charge predicted
       N       E                     dE             d eps       ncg     rms          rms(c)
DAV:   1    -0.359764801190E+02   -0.15300E-04   -0.94189E-04  3264   0.150E-01    0.853E-03
DAV:   2    -0.359764810397E+02   -0.92075E-06   -0.13040E-05  4352   0.188E-02    0.455E-03
DAV:   3    -0.359764809198E+02    0.11997E-06   -0.17223E-06  2960   0.812E-03
  43 F= -.35976481E+02 E0= -.35972435E+02  d E =-.162327E-04
quench:  g(F)=  0.000E+00 g(S)=  0.000E+00 dE (1.order)= 0.000E+00
 bond charge predicted
       N       E                     dE             d eps       ncg     rms          rms(c)
DAV:   1    -0.359764939796E+02   -0.12940E-04   -0.66975E-04  3264   0.126E-01    0.961E-03
DAV:   2    -0.359764946416E+02   -0.66201E-06   -0.96889E-06  4328   0.161E-02
  44 F= -.35976495E+02 E0= -.35972449E+02  d E =-.137218E-04
quench:  g(F)=  0.000E+00 g(S)=  0.000E+00 dE (1.order)= 0.000E+00
 bond charge predicted
       N       E                     dE             d eps       ncg     rms          rms(c)
DAV:   1    -0.359765020080E+02   -0.80284E-05   -0.23304E-04  3264   0.744E-02    0.702E-03
DAV:   2    -0.359765022011E+02   -0.19317E-06   -0.34751E-06  3832   0.996E-03
  45 F= -.35976502E+02 E0= -.35972456E+02  d E =-.755955E-05
quench:  g(F)=  0.000E+00 g(S)=  0.000E+00 dE (1.order)= 0.000E+00
 bond charge predicted
       N       E                     dE             d eps       ncg     rms          rms(c)
DAV:   1    -0.359765098229E+02   -0.78150E-05   -0.13699E-04  3264   0.570E-02    0.363E-03
DAV:   2    -0.359765099467E+02   -0.12373E-06   -0.20340E-06  2896   0.758E-03
  46 F= -.35976510E+02 E0= -.35972464E+02  d E =-.774553E-05
quench:  g(F)=  0.000E+00 g(S)=  0.000E+00 dE (1.order)= 0.000E+00
 reached required accuracy - stopping structural energy minimisation
