 vasp.5.4.4.18Apr17-6-g9f103f2a35 (build Sep 16 2021 13:51:27) complex          
  
 executed on             LinuxIFC date 2023.03.16  12:57:39
 running on   24 total cores
 distrk:  each k-point on   24 cores,    1 groups
 distr:  one band on NCORES_PER_BAND=  24 cores,    1 groups


--------------------------------------------------------------------------------------------------------


 INCAR:
 POTCAR:    PAW_PBE Sn 08Apr2002                  
 POTCAR:    PAW_PBE Se 06Sep2000                  

 ----------------------------------------------------------------------------- 
|                                                                             |
|           W    W    AA    RRRRR   N    N  II  N    N   GGGG   !!!           |
|           W    W   A  A   R    R  NN   N  II  NN   N  G    G  !!!           |
|           W    W  A    A  R    R  N N  N  II  N N  N  G       !!!           |
|           W WW W  AAAAAA  RRRRR   N  N N  II  N  N N  G  GGG   !            |
|           WW  WW  A    A  R   R   N   NN  II  N   NN  G    G                |
|           W    W  A    A  R    R  N    N  II  N    N   GGGG   !!!           |
|                                                                             |
|      For optimal performance we recommend to set                            |
|        NCORE= 4 - approx SQRT( number of cores)                             |
|      NCORE specifies how many cores store one orbital (NPAR=cpu/NCORE).     |
|      This setting can  greatly improve the performance of VASP for DFT.     |
|      The default,   NCORE=1            might be grossly inefficient         |
|      on modern multi-core architectures or massively parallel machines.     |
|      Do your own testing !!!!                                               |
|      Unfortunately you need to use the default for GW and RPA calculations. |
|      (for HF NCORE is supported but not extensively tested yet)             |
|                                                                             |
 ----------------------------------------------------------------------------- 

 POTCAR:    PAW_PBE Sn 08Apr2002                  
   VRHFIN =Sn: s2p2                                                             
   LEXCH  = PE                                                                  
   EATOM  =    94.0860 eV,    6.9151 Ry                                         
                                                                                
   TITEL  = PAW_PBE Sn 08Apr2002                                                
   LULTRA =        F    use ultrasoft PP ?                                      
   IUNSCR =        1    unscreen: 0-lin 1-nonlin 2-no                           
   RPACOR =    2.000    partial core radius                                     
   POMASS =  118.710; ZVAL   =    4.000    mass and valenz                      
   RCORE  =    3.000    outmost cutoff radius                                   
   RWIGS  =    2.960; RWIGS  =    1.566    wigner-seitz radius (au A)           
   ENMAX  =  103.236; ENMIN  =   77.427 eV                                      
   ICORE  =        3    local potential                                         
   LCOR   =        T    correct aug charges                                     
   LPAW   =        T    paw PP                                                  
   EAUG   =  263.585                                                            
   DEXC   =    0.000                                                            
   RMAX   =    3.078    core radius for proj-oper                               
   RAUG   =    1.300    factor for augmentation sphere                          
   RDEP   =    3.022    radius for radial grids                                 
   RDEPT  =    2.655    core radius for aug-charge                              
                                                                                
   Atomic configuration                                                         
   13 entries                                                                   
     n  l   j            E        occ.                                          
     1  0  0.50    -29007.2859   2.0000                                         
     2  0  0.50     -4378.8056   2.0000                                         
     2  1  1.50     -3930.4293   6.0000                                         
     3  0  0.50      -845.0264   2.0000                                         
     3  1  1.50      -698.5725   6.0000                                         
     3  2  2.50      -473.2839  10.0000                                         
     4  0  0.50      -133.9036   2.0000                                         
     4  1  1.50       -89.6752   6.0000                                         
     4  2  2.50       -25.8375  10.0000                                         
     5  0  0.50       -10.5484   2.0000                                         
     5  1  0.50        -3.6940   2.0000                                         
     5  2  1.50        -1.3606   0.0000                                         
     4  3  2.50        -4.0817   0.0000                                         
   Description                                                                  
     l       E           TYP  RCUT    TYP  RCUT                                 
     0    -10.5483727     23  3.000                                             
     0     27.2116520     23  3.000                                             
     1     -3.6939829     23  3.000                                             
     1      1.9821976     23  3.000                                             
     2     -1.3605826     23  3.000                                             
     3     -2.7211652     23  3.000                                             
  local pseudopotential read in
  partial core-charges read in
  partial kinetic energy density read in
  atomic valenz-charges read in
  non local Contribution for L=           0  read in
    real space projection operators read in
  non local Contribution for L=           0  read in
    real space projection operators read in
  non local Contribution for L=           1  read in
    real space projection operators read in
  non local Contribution for L=           1  read in
    real space projection operators read in
  non local Contribution for L=           2  read in
    real space projection operators read in
    PAW grid and wavefunctions read in
 
   number of l-projection  operators is LMAX  =           5
   number of lm-projection operators is LMMAX =          13
 
 POTCAR:    PAW_PBE Se 06Sep2000                  
   VRHFIN =Se: s2p4                                                             
   LEXCH  = PE                                                                  
   EATOM  =   257.1286 eV,   18.8984 Ry                                         
                                                                                
   TITEL  = PAW_PBE Se 06Sep2000                                                
   LULTRA =        F    use ultrasoft PP ?                                      
   IUNSCR =        1    unscreen: 0-lin 1-nonlin 2-no                           
   RPACOR =    1.900    partial core radius                                     
   POMASS =   78.960; ZVAL   =    6.000    mass and valenz                      
   RCORE  =    2.100    outmost cutoff radius                                   
   RWIGS  =    2.200; RWIGS  =    1.164    wigner-seitz radius (au A)           
   ENMAX  =  211.555; ENMIN  =  158.666 eV                                      
   ICORE  =        3    local potential                                         
   LCOR   =        T    correct aug charges                                     
   LPAW   =        T    paw PP                                                  
   EAUG   =  446.842                                                            
   DEXC   =    0.000                                                            
   RMAX   =    2.147    core radius for proj-oper                               
   RAUG   =    1.300    factor for augmentation sphere                          
   RDEP   =    2.177    radius for radial grids                                 
   RDEPT  =    1.928    core radius for aug-charge                              
                                                                                
   Atomic configuration                                                         
   10 entries                                                                   
     n  l   j            E        occ.                                          
     1  0  0.50    -12503.4787   2.0000                                         
     2  0  0.50     -1606.9547   2.0000                                         
     2  1  1.50     -1413.3140   6.0000                                         
     3  0  0.50      -213.4885   2.0000                                         
     3  1  1.50      -152.9538   6.0000                                         
     3  2  2.50       -53.1221  10.0000                                         
     4  0  0.50       -17.2865   2.0000                                         
     4  1  0.50        -6.5110   4.0000                                         
     4  2  2.50        -6.8029   0.0000                                         
     4  3  2.50        -6.8029   0.0000                                         
   Description                                                                  
     l       E           TYP  RCUT    TYP  RCUT                                 
     0    -17.2865377     23  2.100                                             
     0    -15.3094411     23  2.100                                             
     1     -6.5110275     23  2.100                                             
     1     -0.0695192     23  2.100                                             
     2     -6.8029130     23  2.100                                             
     3     -1.3605826      7  2.100                                             
  local pseudopotential read in
  partial core-charges read in
  partial kinetic energy density read in
  atomic valenz-charges read in
  non local Contribution for L=           0  read in
    real space projection operators read in
  non local Contribution for L=           0  read in
    real space projection operators read in
  non local Contribution for L=           1  read in
    real space projection operators read in
  non local Contribution for L=           1  read in
    real space projection operators read in
  non local Contribution for L=           2  read in
    real space projection operators read in
    PAW grid and wavefunctions read in
 
   number of l-projection  operators is LMAX  =           5
   number of lm-projection operators is LMMAX =          13
 
 WARNING: PSMAXN for non-local potential too small
          PSMAXN should be >   12.5490833729506       NTYP=           1
  PAW_PBE Sn 08Apr2002                  :
 energy of atom  1       EATOM=  -94.0860
 kinetic energy error for atom=    0.0000 (will be added to EATOM!!)
  PAW_PBE Se 06Sep2000                  :
 energy of atom  2       EATOM= -257.1286
 kinetic energy error for atom=    0.0006 (will be added to EATOM!!)
 
 
 POSCAR:  POSCAR with strain of 0.005            
  positions in direct lattice
  No initial velocities read in
 exchange correlation table for  LEXCH =        8
   RHO(1)=    0.500       N(1)  =     2000
   RHO(2)=  100.500       N(2)  =     4000
 


--------------------------------------------------------------------------------------------------------


 ion  position               nearest neighbor table
   1  0.581  0.750  0.569-   4 2.72   3 2.93   3 2.93   3 3.23   3 3.23
   2  0.081  0.250  0.431-   3 2.72   4 2.93   4 2.93   4 3.23   4 3.23
   3  0.033  0.250  0.567-   2 2.72   1 2.93   1 2.93   1 3.23   1 3.23
   4  0.533  0.750  0.433-   1 2.72   2 2.93   2 2.93   2 3.23   2 3.23
 

IMPORTANT INFORMATION: All symmetrisations will be switched off!
NOSYMM: (Re-)initialisation of all symmetry stuff for point group C_1.

 
 
 KPOINTS: KMesh Grid                              

Automatic generation of k-mesh.
Space group operators:
 irot       det(A)        alpha          n_x          n_y          n_z        tau_x        tau_y        tau_z
    1     1.000000     0.000000     1.000000     0.000000     0.000000     0.000000     0.000000     0.000000
 
 Subroutine IBZKPT returns following result:
 ===========================================
 
 Found    113 irreducible k-points:
 
 Following reciprocal coordinates:
            Coordinates               Weight
  0.000000  0.000000  0.000000      1.000000
  0.066667  0.000000  0.000000      2.000000
  0.133333  0.000000  0.000000      2.000000
  0.200000  0.000000  0.000000      2.000000
  0.266667  0.000000  0.000000      2.000000
  0.333333  0.000000  0.000000      2.000000
  0.400000  0.000000  0.000000      2.000000
  0.466667  0.000000  0.000000      2.000000
  0.000000  0.066667  0.000000      2.000000
  0.066667  0.066667  0.000000      2.000000
  0.133333  0.066667  0.000000      2.000000
  0.200000  0.066667  0.000000      2.000000
  0.266667  0.066667  0.000000      2.000000
  0.333333  0.066667  0.000000      2.000000
  0.400000  0.066667  0.000000      2.000000
  0.466667  0.066667  0.000000      2.000000
 -0.466667  0.066667  0.000000      2.000000
 -0.400000  0.066667  0.000000      2.000000
 -0.333333  0.066667  0.000000      2.000000
 -0.266667  0.066667  0.000000      2.000000
 -0.200000  0.066667  0.000000      2.000000
 -0.133333  0.066667  0.000000      2.000000
 -0.066667  0.066667  0.000000      2.000000
  0.000000  0.133333  0.000000      2.000000
  0.066667  0.133333  0.000000      2.000000
  0.133333  0.133333  0.000000      2.000000
  0.200000  0.133333  0.000000      2.000000
  0.266667  0.133333  0.000000      2.000000
  0.333333  0.133333  0.000000      2.000000
  0.400000  0.133333  0.000000      2.000000
  0.466667  0.133333  0.000000      2.000000
 -0.466667  0.133333  0.000000      2.000000
 -0.400000  0.133333  0.000000      2.000000
 -0.333333  0.133333  0.000000      2.000000
 -0.266667  0.133333  0.000000      2.000000
 -0.200000  0.133333  0.000000      2.000000
 -0.133333  0.133333  0.000000      2.000000
 -0.066667  0.133333  0.000000      2.000000
  0.000000  0.200000  0.000000      2.000000
  0.066667  0.200000  0.000000      2.000000
  0.133333  0.200000  0.000000      2.000000
  0.200000  0.200000  0.000000      2.000000
  0.266667  0.200000  0.000000      2.000000
  0.333333  0.200000  0.000000      2.000000
  0.400000  0.200000  0.000000      2.000000
  0.466667  0.200000  0.000000      2.000000
 -0.466667  0.200000  0.000000      2.000000
 -0.400000  0.200000  0.000000      2.000000
 -0.333333  0.200000  0.000000      2.000000
 -0.266667  0.200000  0.000000      2.000000
 -0.200000  0.200000  0.000000      2.000000
 -0.133333  0.200000  0.000000      2.000000
 -0.066667  0.200000  0.000000      2.000000
  0.000000  0.266667  0.000000      2.000000
  0.066667  0.266667  0.000000      2.000000
  0.133333  0.266667  0.000000      2.000000
  0.200000  0.266667  0.000000      2.000000
  0.266667  0.266667  0.000000      2.000000
  0.333333  0.266667  0.000000      2.000000
  0.400000  0.266667  0.000000      2.000000
  0.466667  0.266667  0.000000      2.000000
 -0.466667  0.266667  0.000000      2.000000
 -0.400000  0.266667  0.000000      2.000000
 -0.333333  0.266667  0.000000      2.000000
 -0.266667  0.266667  0.000000      2.000000
 -0.200000  0.266667  0.000000      2.000000
 -0.133333  0.266667  0.000000      2.000000
 -0.066667  0.266667  0.000000      2.000000
  0.000000  0.333333  0.000000      2.000000
  0.066667  0.333333  0.000000      2.000000
  0.133333  0.333333  0.000000      2.000000
  0.200000  0.333333  0.000000      2.000000
  0.266667  0.333333  0.000000      2.000000
  0.333333  0.333333  0.000000      2.000000
  0.400000  0.333333  0.000000      2.000000
  0.466667  0.333333  0.000000      2.000000
 -0.466667  0.333333  0.000000      2.000000
 -0.400000  0.333333  0.000000      2.000000
 -0.333333  0.333333  0.000000      2.000000
 -0.266667  0.333333  0.000000      2.000000
 -0.200000  0.333333  0.000000      2.000000
 -0.133333  0.333333  0.000000      2.000000
 -0.066667  0.333333  0.000000      2.000000
  0.000000  0.400000  0.000000      2.000000
  0.066667  0.400000  0.000000      2.000000
  0.133333  0.400000  0.000000      2.000000
  0.200000  0.400000  0.000000      2.000000
  0.266667  0.400000  0.000000      2.000000
  0.333333  0.400000  0.000000      2.000000
  0.400000  0.400000  0.000000      2.000000
  0.466667  0.400000  0.000000      2.000000
 -0.466667  0.400000  0.000000      2.000000
 -0.400000  0.400000  0.000000      2.000000
 -0.333333  0.400000  0.000000      2.000000
 -0.266667  0.400000  0.000000      2.000000
 -0.200000  0.400000  0.000000      2.000000
 -0.133333  0.400000  0.000000      2.000000
 -0.066667  0.400000  0.000000      2.000000
  0.000000  0.466667  0.000000      2.000000
  0.066667  0.466667  0.000000      2.000000
  0.133333  0.466667  0.000000      2.000000
  0.200000  0.466667  0.000000      2.000000
  0.266667  0.466667  0.000000      2.000000
  0.333333  0.466667  0.000000      2.000000
  0.400000  0.466667  0.000000      2.000000
  0.466667  0.466667  0.000000      2.000000
 -0.466667  0.466667  0.000000      2.000000
 -0.400000  0.466667  0.000000      2.000000
 -0.333333  0.466667  0.000000      2.000000
 -0.266667  0.466667  0.000000      2.000000
 -0.200000  0.466667  0.000000      2.000000
 -0.133333  0.466667  0.000000      2.000000
 -0.066667  0.466667  0.000000      2.000000
 
 Following cartesian coordinates:
            Coordinates               Weight
  0.000000  0.000000  0.000000      1.000000
  0.015213  0.000000  0.000000      2.000000
  0.030425  0.000000  0.000000      2.000000
  0.045638  0.000000  0.000000      2.000000
  0.060850  0.000000  0.000000      2.000000
  0.076063  0.000000  0.000000      2.000000
  0.091275  0.000000  0.000000      2.000000
  0.106488  0.000000  0.000000      2.000000
  0.000000  0.015454  0.000000      2.000000
  0.015213  0.015454  0.000000      2.000000
  0.030425  0.015454  0.000000      2.000000
  0.045638  0.015454  0.000000      2.000000
  0.060850  0.015454  0.000000      2.000000
  0.076063  0.015454  0.000000      2.000000
  0.091275  0.015454  0.000000      2.000000
  0.106488  0.015454  0.000000      2.000000
 -0.106488  0.015454  0.000000      2.000000
 -0.091275  0.015454  0.000000      2.000000
 -0.076063  0.015454  0.000000      2.000000
 -0.060850  0.015454  0.000000      2.000000
 -0.045638  0.015454  0.000000      2.000000
 -0.030425  0.015454  0.000000      2.000000
 -0.015213  0.015454  0.000000      2.000000
  0.000000  0.030908  0.000000      2.000000
  0.015213  0.030908  0.000000      2.000000
  0.030425  0.030908  0.000000      2.000000
  0.045638  0.030908  0.000000      2.000000
  0.060850  0.030908  0.000000      2.000000
  0.076063  0.030908  0.000000      2.000000
  0.091275  0.030908  0.000000      2.000000
  0.106488  0.030908  0.000000      2.000000
 -0.106488  0.030908  0.000000      2.000000
 -0.091275  0.030908  0.000000      2.000000
 -0.076063  0.030908  0.000000      2.000000
 -0.060850  0.030908  0.000000      2.000000
 -0.045638  0.030908  0.000000      2.000000
 -0.030425  0.030908  0.000000      2.000000
 -0.015213  0.030908  0.000000      2.000000
  0.000000  0.046361  0.000000      2.000000
  0.015213  0.046361  0.000000      2.000000
  0.030425  0.046361  0.000000      2.000000
  0.045638  0.046361  0.000000      2.000000
  0.060850  0.046361  0.000000      2.000000
  0.076063  0.046361  0.000000      2.000000
  0.091275  0.046361  0.000000      2.000000
  0.106488  0.046361  0.000000      2.000000
 -0.106488  0.046361  0.000000      2.000000
 -0.091275  0.046361  0.000000      2.000000
 -0.076063  0.046361  0.000000      2.000000
 -0.060850  0.046361  0.000000      2.000000
 -0.045638  0.046361  0.000000      2.000000
 -0.030425  0.046361  0.000000      2.000000
 -0.015213  0.046361  0.000000      2.000000
  0.000000  0.061815  0.000000      2.000000
  0.015213  0.061815  0.000000      2.000000
  0.030425  0.061815  0.000000      2.000000
  0.045638  0.061815  0.000000      2.000000
  0.060850  0.061815  0.000000      2.000000
  0.076063  0.061815  0.000000      2.000000
  0.091275  0.061815  0.000000      2.000000
  0.106488  0.061815  0.000000      2.000000
 -0.106488  0.061815  0.000000      2.000000
 -0.091275  0.061815  0.000000      2.000000
 -0.076063  0.061815  0.000000      2.000000
 -0.060850  0.061815  0.000000      2.000000
 -0.045638  0.061815  0.000000      2.000000
 -0.030425  0.061815  0.000000      2.000000
 -0.015213  0.061815  0.000000      2.000000
  0.000000  0.077269  0.000000      2.000000
  0.015213  0.077269  0.000000      2.000000
  0.030425  0.077269  0.000000      2.000000
  0.045638  0.077269  0.000000      2.000000
  0.060850  0.077269  0.000000      2.000000
  0.076063  0.077269  0.000000      2.000000
  0.091275  0.077269  0.000000      2.000000
  0.106488  0.077269  0.000000      2.000000
 -0.106488  0.077269  0.000000      2.000000
 -0.091275  0.077269  0.000000      2.000000
 -0.076063  0.077269  0.000000      2.000000
 -0.060850  0.077269  0.000000      2.000000
 -0.045638  0.077269  0.000000      2.000000
 -0.030425  0.077269  0.000000      2.000000
 -0.015213  0.077269  0.000000      2.000000
  0.000000  0.092723  0.000000      2.000000
  0.015213  0.092723  0.000000      2.000000
  0.030425  0.092723  0.000000      2.000000
  0.045638  0.092723  0.000000      2.000000
  0.060850  0.092723  0.000000      2.000000
  0.076063  0.092723  0.000000      2.000000
  0.091275  0.092723  0.000000      2.000000
  0.106488  0.092723  0.000000      2.000000
 -0.106488  0.092723  0.000000      2.000000
 -0.091275  0.092723  0.000000      2.000000
 -0.076063  0.092723  0.000000      2.000000
 -0.060850  0.092723  0.000000      2.000000
 -0.045638  0.092723  0.000000      2.000000
 -0.030425  0.092723  0.000000      2.000000
 -0.015213  0.092723  0.000000      2.000000
  0.000000  0.108176  0.000000      2.000000
  0.015213  0.108176  0.000000      2.000000
  0.030425  0.108176  0.000000      2.000000
  0.045638  0.108176  0.000000      2.000000
  0.060850  0.108176  0.000000      2.000000
  0.076063  0.108176  0.000000      2.000000
  0.091275  0.108176  0.000000      2.000000
  0.106488  0.108176  0.000000      2.000000
 -0.106488  0.108176  0.000000      2.000000
 -0.091275  0.108176  0.000000      2.000000
 -0.076063  0.108176  0.000000      2.000000
 -0.060850  0.108176  0.000000      2.000000
 -0.045638  0.108176  0.000000      2.000000
 -0.030425  0.108176  0.000000      2.000000
 -0.015213  0.108176  0.000000      2.000000
 


--------------------------------------------------------------------------------------------------------




 Dimension of arrays:
   k-points           NKPTS =    113   k-points in BZ     NKDIM =    113   number of bands    NBANDS=     14
   number of dos      NEDOS =    301   number of ions     NIONS =      4
   non local maximal  LDIM  =      5   non local SUM 2l+1 LMDIM =     13
   total plane-waves  NPLWV = 207360
   max r-space proj   IRMAX =      1   max aug-charges    IRDMAX=  52983
   dimension x,y,z NGX =    36 NGY =   36 NGZ =  160
   dimension x,y,z NGXF=    72 NGYF=   72 NGZF=  320
   support grid    NGXF=    72 NGYF=   72 NGZF=  320
   ions per type =               2   2
   NGX,Y,Z   is equivalent  to a cutoff of  13.66, 13.87, 13.30 a.u.
   NGXF,Y,Z  is equivalent  to a cutoff of  27.31, 27.75, 26.60 a.u.

 SYSTEM =  SnSe                                    
 POSCAR =   POSCAR with strain of 0.005            

 Startparameter for this run:
   NWRITE =      2    write-flag & timer
   PREC   = accura    normal or accurate (medium, high low for compatibility)
   ISTART =      0    job   : 0-new  1-cont  2-samecut
   ICHARG =      2    charge: 1-file 2-atom 10-const
   ISPIN  =      1    spin polarized calculation?
   LNONCOLLINEAR =      F non collinear calculations
   LSORBIT =      F    spin-orbit coupling
   INIWAV =      1    electr: 0-lowe 1-rand  2-diag
   LASPH  =      F    aspherical Exc in radial PAW
   METAGGA=      F    non-selfconsistent MetaGGA calc.

 Electronic Relaxation 1
   ENCUT  =  600.0 eV  44.10 Ry    6.64 a.u.   8.75  8.62 39.94*2*pi/ulx,y,z
   ENINI  =  600.0     initial cutoff
   ENAUG  =  446.8 eV  augmentation charge cutoff
   NELM   =     60;   NELMIN=  2; NELMDL= -5     # of ELM steps 
   EDIFF  = 0.1E-05   stopping-criterion for ELM
   LREAL  =      F    real-space projection
   NLSPLINE    = F    spline interpolate recip. space projectors
   LCOMPAT=      F    compatible to vasp.4.4
   GGA_COMPAT  = T    GGA compatible to vasp.4.4-vasp.4.6
   LMAXPAW     = -100 max onsite density
   LMAXMIX     =    2 max onsite mixed and CHGCAR
   VOSKOWN=      0    Vosko Wilk Nusair interpolation
   ROPT   =    0.00000   0.00000
 Ionic relaxation
   EDIFFG = -.1E-02   stopping-criterion for IOM
   NSW    =    100    number of steps for IOM
   NBLOCK =      1;   KBLOCK =    100    inner block; outer block 
   IBRION =      2    ionic relax: 0-MD 1-quasi-New 2-CG
   NFREE  =      1    steps in history (QN), initial steepest desc. (CG)
   ISIF   =      2    stress and relaxation
   IWAVPR =     11    prediction:  0-non 1-charg 2-wave 3-comb
   ISYM   =      0    0-nonsym 1-usesym 2-fastsym
   LCORR  =      T    Harris-Foulkes like correction to forces

   POTIM  = 0.5000    time-step for ionic-motion
   TEIN   =    0.0    initial temperature
   TEBEG  =    0.0;   TEEND  =   0.0 temperature during run
   SMASS  =  -3.00    Nose mass-parameter (am)
   estimated Nose-frequenzy (Omega)   =  0.10E-29 period in steps =****** mass=  -0.439E-27a.u.
   SCALEE = 1.0000    scale energy and forces
   NPACO  =    256;   APACO  = 16.0  distance and # of slots for P.C.
   PSTRESS=    0.0 pullay stress

  Mass of Ions in am
   POMASS = 118.71 78.96
  Ionic Valenz
   ZVAL   =   4.00  6.00
  Atomic Wigner-Seitz radii
   RWIGS  =  -1.00 -1.00
  virtual crystal weights 
   VCA    =   1.00  1.00
   NELECT =      20.0000    total number of electrons
   NUPDOWN=      -1.0000    fix difference up-down

 DOS related values:
   EMIN   =  10.00;   EMAX   =-10.00  energy-range for DOS
   EFERMI =   0.00
   ISMEAR =     0;   SIGMA  =   0.10  broadening in eV -4-tet -1-fermi 0-gaus

 Electronic relaxation 2 (details)
   IALGO  =     38    algorithm
   LDIAG  =      T    sub-space diagonalisation (order eigenvalues)
   LSUBROT=      F    optimize rotation matrix (better conditioning)
   TURBO    =      0    0=normal 1=particle mesh
   IRESTART =      0    0=no restart 2=restart with 2 vectors
   NREBOOT  =      0    no. of reboots
   NMIN     =      0    reboot dimension
   EREF     =   0.00    reference energy to select bands
   IMIX   =      4    mixing-type and parameters
     AMIX     =   0.40;   BMIX     =  1.00
     AMIX_MAG =   1.60;   BMIX_MAG =  1.00
     AMIN     =   0.10
     WC   =   100.;   INIMIX=   1;  MIXPRE=   1;  MAXMIX= -45

 Intra band minimization:
   WEIMIN = 0.0010     energy-eigenvalue tresh-hold
   EBREAK =  0.18E-07  absolut break condition
   DEPER  =   0.30     relativ break condition  

   TIME   =   0.40     timestep for ELM

  volume/ion in A,a.u.               =      94.53       637.89
  Fermi-wavevector in a.u.,A,eV,Ry     =   0.614536  1.161305  5.138306  0.377655
  Thomas-Fermi vector in A             =   1.671582
 
 Write flags
   LWAVE        =      T    write WAVECAR
   LDOWNSAMPLE  =      F    k-point downsampling of WAVECAR
   LCHARG       =      T    write CHGCAR
   LVTOT        =      F    write LOCPOT, total local potential
   LVHAR        =      F    write LOCPOT, Hartree potential only
   LELF         =      F    write electronic localiz. function (ELF)
   LORBIT       =      0    0 simple, 1 ext, 2 COOP (PROOUT), +10 PAW based schemes


 Dipole corrections
   LMONO  =      F    monopole corrections only (constant potential shift)
   LDIPOL =      F    correct potential (dipole corrections)
   IDIPOL =      0    1-x, 2-y, 3-z, 4-all directions 
   EPSILON=  1.0000000 bulk dielectric constant

 Exchange correlation treatment:
   GGA     =    PE    GGA type
   LEXCH   =     8    internal setting for exchange type
   VOSKOWN=      0    Vosko Wilk Nusair interpolation
   LHFCALC =     F    Hartree Fock is set to
   LHFONE  =     F    Hartree Fock one center treatment
   AEXX    =    0.0000 exact exchange contribution

 Linear response parameters
   LEPSILON=     F    determine dielectric tensor
   LRPA    =     F    only Hartree local field effects (RPA)
   LNABLA  =     F    use nabla operator in PAW spheres
   LVEL    =     F    velocity operator in full k-point grid
   LINTERFAST=   F  fast interpolation
   KINTER  =     0    interpolate to denser k-point grid
   CSHIFT  =0.1000    complex shift for real part using Kramers Kronig
   OMEGAMAX=  -1.0    maximum frequency
   DEG_THRESHOLD= 0.2000000E-02 threshold for treating states as degnerate
   RTIME   =   -0.100 relaxation time in fs
  (WPLASMAI=    0.000 imaginary part of plasma frequency in eV, 0.658/RTIME)
   DFIELD  = 0.0000000 0.0000000 0.0000000 field for delta impulse in time
 
 Orbital magnetization related:
   ORBITALMAG=     F  switch on orbital magnetization
   LCHIMAG   =     F  perturbation theory with respect to B field
   DQ        =  0.001000  dq finite difference perturbation B field
   LLRAUG    =     F  two centre corrections for induced B field



--------------------------------------------------------------------------------------------------------


 conjugate gradient relaxation of ions
 charge density and potential will be updated during run
 non-spin polarized calculation
 Variant of blocked Davidson
 Davidson routine will perform the subspace rotation
 perform sub-space diagonalisation
    after iterative eigenvector-optimisation
 modified Broyden-mixing scheme, WC =      100.0
 initial mixing is a Kerker type mixing with AMIX =  0.4000 and BMIX =      1.0000
 Hartree-type preconditioning will be used
 using additional bands            4
 reciprocal scheme for non local part
 use partial core corrections
 calculate Harris-corrections to forces 
   (improved forces if not selfconsistent)
 use gradient corrections 
 use of overlap-Matrix (Vanderbilt PP)
 Gauss-broadening in eV      SIGMA  =   0.10


--------------------------------------------------------------------------------------------------------


  energy-cutoff  :      600.00
  volume of cell :      378.10
      direct lattice vectors                 reciprocal lattice vectors
     4.382356765  0.000000000  0.000000000     0.228187720  0.000000000  0.000000000
     0.000000000  4.313940246  0.000000000     0.000000000  0.231806641  0.000000000
     0.000000000  0.000000000 20.000000000     0.000000000  0.000000000  0.050000000

  length of vectors
     4.382356765  4.313940246 20.000000000     0.228187720  0.231806641  0.050000000


 
 k-points in units of 2pi/SCALE and weight: KMesh Grid                              
   0.00000000  0.00000000  0.00000000       0.004
   0.01521251  0.00000000  0.00000000       0.009
   0.03042503  0.00000000  0.00000000       0.009
   0.04563754  0.00000000  0.00000000       0.009
   0.06085006  0.00000000  0.00000000       0.009
   0.07606257  0.00000000  0.00000000       0.009
   0.09127509  0.00000000  0.00000000       0.009
   0.10648760  0.00000000  0.00000000       0.009
   0.00000000  0.01545378  0.00000000       0.009
   0.01521251  0.01545378  0.00000000       0.009
   0.03042503  0.01545378  0.00000000       0.009
   0.04563754  0.01545378  0.00000000       0.009
   0.06085006  0.01545378  0.00000000       0.009
   0.07606257  0.01545378  0.00000000       0.009
   0.09127509  0.01545378  0.00000000       0.009
   0.10648760  0.01545378  0.00000000       0.009
  -0.10648760  0.01545378  0.00000000       0.009
  -0.09127509  0.01545378  0.00000000       0.009
  -0.07606257  0.01545378  0.00000000       0.009
  -0.06085006  0.01545378  0.00000000       0.009
  -0.04563754  0.01545378  0.00000000       0.009
  -0.03042503  0.01545378  0.00000000       0.009
  -0.01521251  0.01545378  0.00000000       0.009
   0.00000000  0.03090755  0.00000000       0.009
   0.01521251  0.03090755  0.00000000       0.009
   0.03042503  0.03090755  0.00000000       0.009
   0.04563754  0.03090755  0.00000000       0.009
   0.06085006  0.03090755  0.00000000       0.009
   0.07606257  0.03090755  0.00000000       0.009
   0.09127509  0.03090755  0.00000000       0.009
   0.10648760  0.03090755  0.00000000       0.009
  -0.10648760  0.03090755  0.00000000       0.009
  -0.09127509  0.03090755  0.00000000       0.009
  -0.07606257  0.03090755  0.00000000       0.009
  -0.06085006  0.03090755  0.00000000       0.009
  -0.04563754  0.03090755  0.00000000       0.009
  -0.03042503  0.03090755  0.00000000       0.009
  -0.01521251  0.03090755  0.00000000       0.009
   0.00000000  0.04636133  0.00000000       0.009
   0.01521251  0.04636133  0.00000000       0.009
   0.03042503  0.04636133  0.00000000       0.009
   0.04563754  0.04636133  0.00000000       0.009
   0.06085006  0.04636133  0.00000000       0.009
   0.07606257  0.04636133  0.00000000       0.009
   0.09127509  0.04636133  0.00000000       0.009
   0.10648760  0.04636133  0.00000000       0.009
  -0.10648760  0.04636133  0.00000000       0.009
  -0.09127509  0.04636133  0.00000000       0.009
  -0.07606257  0.04636133  0.00000000       0.009
  -0.06085006  0.04636133  0.00000000       0.009
  -0.04563754  0.04636133  0.00000000       0.009
  -0.03042503  0.04636133  0.00000000       0.009
  -0.01521251  0.04636133  0.00000000       0.009
   0.00000000  0.06181510  0.00000000       0.009
   0.01521251  0.06181510  0.00000000       0.009
   0.03042503  0.06181510  0.00000000       0.009
   0.04563754  0.06181510  0.00000000       0.009
   0.06085006  0.06181510  0.00000000       0.009
   0.07606257  0.06181510  0.00000000       0.009
   0.09127509  0.06181510  0.00000000       0.009
   0.10648760  0.06181510  0.00000000       0.009
  -0.10648760  0.06181510  0.00000000       0.009
  -0.09127509  0.06181510  0.00000000       0.009
  -0.07606257  0.06181510  0.00000000       0.009
  -0.06085006  0.06181510  0.00000000       0.009
  -0.04563754  0.06181510  0.00000000       0.009
  -0.03042503  0.06181510  0.00000000       0.009
  -0.01521251  0.06181510  0.00000000       0.009
   0.00000000  0.07726888  0.00000000       0.009
   0.01521251  0.07726888  0.00000000       0.009
   0.03042503  0.07726888  0.00000000       0.009
   0.04563754  0.07726888  0.00000000       0.009
   0.06085006  0.07726888  0.00000000       0.009
   0.07606257  0.07726888  0.00000000       0.009
   0.09127509  0.07726888  0.00000000       0.009
   0.10648760  0.07726888  0.00000000       0.009
  -0.10648760  0.07726888  0.00000000       0.009
  -0.09127509  0.07726888  0.00000000       0.009
  -0.07606257  0.07726888  0.00000000       0.009
  -0.06085006  0.07726888  0.00000000       0.009
  -0.04563754  0.07726888  0.00000000       0.009
  -0.03042503  0.07726888  0.00000000       0.009
  -0.01521251  0.07726888  0.00000000       0.009
   0.00000000  0.09272266  0.00000000       0.009
   0.01521251  0.09272266  0.00000000       0.009
   0.03042503  0.09272266  0.00000000       0.009
   0.04563754  0.09272266  0.00000000       0.009
   0.06085006  0.09272266  0.00000000       0.009
   0.07606257  0.09272266  0.00000000       0.009
   0.09127509  0.09272266  0.00000000       0.009
   0.10648760  0.09272266  0.00000000       0.009
  -0.10648760  0.09272266  0.00000000       0.009
  -0.09127509  0.09272266  0.00000000       0.009
  -0.07606257  0.09272266  0.00000000       0.009
  -0.06085006  0.09272266  0.00000000       0.009
  -0.04563754  0.09272266  0.00000000       0.009
  -0.03042503  0.09272266  0.00000000       0.009
  -0.01521251  0.09272266  0.00000000       0.009
   0.00000000  0.10817643  0.00000000       0.009
   0.01521251  0.10817643  0.00000000       0.009
   0.03042503  0.10817643  0.00000000       0.009
   0.04563754  0.10817643  0.00000000       0.009
   0.06085006  0.10817643  0.00000000       0.009
   0.07606257  0.10817643  0.00000000       0.009
   0.09127509  0.10817643  0.00000000       0.009
   0.10648760  0.10817643  0.00000000       0.009
  -0.10648760  0.10817643  0.00000000       0.009
  -0.09127509  0.10817643  0.00000000       0.009
  -0.07606257  0.10817643  0.00000000       0.009
  -0.06085006  0.10817643  0.00000000       0.009
  -0.04563754  0.10817643  0.00000000       0.009
  -0.03042503  0.10817643  0.00000000       0.009
  -0.01521251  0.10817643  0.00000000       0.009
 
 k-points in reciprocal lattice and weights: KMesh Grid                              
   0.00000000  0.00000000  0.00000000       0.004
   0.06666667  0.00000000  0.00000000       0.009
   0.13333333  0.00000000  0.00000000       0.009
   0.20000000  0.00000000  0.00000000       0.009
   0.26666667  0.00000000  0.00000000       0.009
   0.33333333  0.00000000  0.00000000       0.009
   0.40000000  0.00000000  0.00000000       0.009
   0.46666667  0.00000000  0.00000000       0.009
   0.00000000  0.06666667  0.00000000       0.009
   0.06666667  0.06666667  0.00000000       0.009
   0.13333333  0.06666667  0.00000000       0.009
   0.20000000  0.06666667  0.00000000       0.009
   0.26666667  0.06666667  0.00000000       0.009
   0.33333333  0.06666667  0.00000000       0.009
   0.40000000  0.06666667  0.00000000       0.009
   0.46666667  0.06666667  0.00000000       0.009
  -0.46666667  0.06666667  0.00000000       0.009
  -0.40000000  0.06666667  0.00000000       0.009
  -0.33333333  0.06666667  0.00000000       0.009
  -0.26666667  0.06666667  0.00000000       0.009
  -0.20000000  0.06666667  0.00000000       0.009
  -0.13333333  0.06666667  0.00000000       0.009
  -0.06666667  0.06666667  0.00000000       0.009
   0.00000000  0.13333333  0.00000000       0.009
   0.06666667  0.13333333  0.00000000       0.009
   0.13333333  0.13333333  0.00000000       0.009
   0.20000000  0.13333333  0.00000000       0.009
   0.26666667  0.13333333  0.00000000       0.009
   0.33333333  0.13333333  0.00000000       0.009
   0.40000000  0.13333333  0.00000000       0.009
   0.46666667  0.13333333  0.00000000       0.009
  -0.46666667  0.13333333  0.00000000       0.009
  -0.40000000  0.13333333  0.00000000       0.009
  -0.33333333  0.13333333  0.00000000       0.009
  -0.26666667  0.13333333  0.00000000       0.009
  -0.20000000  0.13333333  0.00000000       0.009
  -0.13333333  0.13333333  0.00000000       0.009
  -0.06666667  0.13333333  0.00000000       0.009
   0.00000000  0.20000000  0.00000000       0.009
   0.06666667  0.20000000  0.00000000       0.009
   0.13333333  0.20000000  0.00000000       0.009
   0.20000000  0.20000000  0.00000000       0.009
   0.26666667  0.20000000  0.00000000       0.009
   0.33333333  0.20000000  0.00000000       0.009
   0.40000000  0.20000000  0.00000000       0.009
   0.46666667  0.20000000  0.00000000       0.009
  -0.46666667  0.20000000  0.00000000       0.009
  -0.40000000  0.20000000  0.00000000       0.009
  -0.33333333  0.20000000  0.00000000       0.009
  -0.26666667  0.20000000  0.00000000       0.009
  -0.20000000  0.20000000  0.00000000       0.009
  -0.13333333  0.20000000  0.00000000       0.009
  -0.06666667  0.20000000  0.00000000       0.009
   0.00000000  0.26666667  0.00000000       0.009
   0.06666667  0.26666667  0.00000000       0.009
   0.13333333  0.26666667  0.00000000       0.009
   0.20000000  0.26666667  0.00000000       0.009
   0.26666667  0.26666667  0.00000000       0.009
   0.33333333  0.26666667  0.00000000       0.009
   0.40000000  0.26666667  0.00000000       0.009
   0.46666667  0.26666667  0.00000000       0.009
  -0.46666667  0.26666667  0.00000000       0.009
  -0.40000000  0.26666667  0.00000000       0.009
  -0.33333333  0.26666667  0.00000000       0.009
  -0.26666667  0.26666667  0.00000000       0.009
  -0.20000000  0.26666667  0.00000000       0.009
  -0.13333333  0.26666667  0.00000000       0.009
  -0.06666667  0.26666667  0.00000000       0.009
   0.00000000  0.33333333  0.00000000       0.009
   0.06666667  0.33333333  0.00000000       0.009
   0.13333333  0.33333333  0.00000000       0.009
   0.20000000  0.33333333  0.00000000       0.009
   0.26666667  0.33333333  0.00000000       0.009
   0.33333333  0.33333333  0.00000000       0.009
   0.40000000  0.33333333  0.00000000       0.009
   0.46666667  0.33333333  0.00000000       0.009
  -0.46666667  0.33333333  0.00000000       0.009
  -0.40000000  0.33333333  0.00000000       0.009
  -0.33333333  0.33333333  0.00000000       0.009
  -0.26666667  0.33333333  0.00000000       0.009
  -0.20000000  0.33333333  0.00000000       0.009
  -0.13333333  0.33333333  0.00000000       0.009
  -0.06666667  0.33333333  0.00000000       0.009
   0.00000000  0.40000000  0.00000000       0.009
   0.06666667  0.40000000  0.00000000       0.009
   0.13333333  0.40000000  0.00000000       0.009
   0.20000000  0.40000000  0.00000000       0.009
   0.26666667  0.40000000  0.00000000       0.009
   0.33333333  0.40000000  0.00000000       0.009
   0.40000000  0.40000000  0.00000000       0.009
   0.46666667  0.40000000  0.00000000       0.009
  -0.46666667  0.40000000  0.00000000       0.009
  -0.40000000  0.40000000  0.00000000       0.009
  -0.33333333  0.40000000  0.00000000       0.009
  -0.26666667  0.40000000  0.00000000       0.009
  -0.20000000  0.40000000  0.00000000       0.009
  -0.13333333  0.40000000  0.00000000       0.009
  -0.06666667  0.40000000  0.00000000       0.009
   0.00000000  0.46666667  0.00000000       0.009
   0.06666667  0.46666667  0.00000000       0.009
   0.13333333  0.46666667  0.00000000       0.009
   0.20000000  0.46666667  0.00000000       0.009
   0.26666667  0.46666667  0.00000000       0.009
   0.33333333  0.46666667  0.00000000       0.009
   0.40000000  0.46666667  0.00000000       0.009
   0.46666667  0.46666667  0.00000000       0.009
  -0.46666667  0.46666667  0.00000000       0.009
  -0.40000000  0.46666667  0.00000000       0.009
  -0.33333333  0.46666667  0.00000000       0.009
  -0.26666667  0.46666667  0.00000000       0.009
  -0.20000000  0.46666667  0.00000000       0.009
  -0.13333333  0.46666667  0.00000000       0.009
  -0.06666667  0.46666667  0.00000000       0.009
 
 position of ions in fractional coordinates (direct lattice) 
   0.58124336  0.75000000  0.56874314
   0.08124336  0.25000000  0.43125686
   0.03286064  0.25000000  0.56707387
   0.53286061  0.75000000  0.43292613
 
 position of ions in cartesian coordinates  (Angst):
   2.54721576  3.23545518 11.37486283
   0.35603738  1.07848506  8.62513717
   0.14400706  1.07848506 11.34147733
   2.33518532  3.23545518  8.65852267
 


--------------------------------------------------------------------------------------------------------


 k-point  1 :   0.0000 0.0000 0.0000  plane waves:   12699
 k-point  2 :   0.0667 0.0000 0.0000  plane waves:   12677
 k-point  3 :   0.1333 0.0000 0.0000  plane waves:   12637
 k-point  4 :   0.2000 0.0000 0.0000  plane waves:   12613
 k-point  5 :   0.2667 0.0000 0.0000  plane waves:   12594
 k-point  6 :   0.3333 0.0000 0.0000  plane waves:   12618
 k-point  7 :   0.4000 0.0000 0.0000  plane waves:   12650
 k-point  8 :   0.4667 0.0000 0.0000  plane waves:   12646
 k-point  9 :   0.0000 0.0667 0.0000  plane waves:   12643
 k-point 10 :   0.0667 0.0667 0.0000  plane waves:   12656
 k-point 11 :   0.1333 0.0667 0.0000  plane waves:   12650
 k-point 12 :   0.2000 0.0667 0.0000  plane waves:   12607
 k-point 13 :   0.2667 0.0667 0.0000  plane waves:   12609
 k-point 14 :   0.3333 0.0667 0.0000  plane waves:   12634
 k-point 15 :   0.4000 0.0667 0.0000  plane waves:   12639
 k-point 16 :   0.4667 0.0667 0.0000  plane waves:   12630
 k-point 17 :  -0.4667 0.0667 0.0000  plane waves:   12630
 k-point 18 :  -0.4000 0.0667 0.0000  plane waves:   12639
 k-point 19 :  -0.3333 0.0667 0.0000  plane waves:   12634
 k-point 20 :  -0.2667 0.0667 0.0000  plane waves:   12609
 k-point 21 :  -0.2000 0.0667 0.0000  plane waves:   12607
 k-point 22 :  -0.1333 0.0667 0.0000  plane waves:   12650
 k-point 23 :  -0.0667 0.0667 0.0000  plane waves:   12656
 k-point 24 :   0.0000 0.1333 0.0000  plane waves:   12615
 k-point 25 :   0.0667 0.1333 0.0000  plane waves:   12626
 k-point 26 :   0.1333 0.1333 0.0000  plane waves:   12622
 k-point 27 :   0.2000 0.1333 0.0000  plane waves:   12611
 k-point 28 :   0.2667 0.1333 0.0000  plane waves:   12614
 k-point 29 :   0.3333 0.1333 0.0000  plane waves:   12632
 k-point 30 :   0.4000 0.1333 0.0000  plane waves:   12642
 k-point 31 :   0.4667 0.1333 0.0000  plane waves:   12645
 k-point 32 :  -0.4667 0.1333 0.0000  plane waves:   12645
 k-point 33 :  -0.4000 0.1333 0.0000  plane waves:   12642
 k-point 34 :  -0.3333 0.1333 0.0000  plane waves:   12632
 k-point 35 :  -0.2667 0.1333 0.0000  plane waves:   12614
 k-point 36 :  -0.2000 0.1333 0.0000  plane waves:   12611
 k-point 37 :  -0.1333 0.1333 0.0000  plane waves:   12622
 k-point 38 :  -0.0667 0.1333 0.0000  plane waves:   12626
 k-point 39 :   0.0000 0.2000 0.0000  plane waves:   12643
 k-point 40 :   0.0667 0.2000 0.0000  plane waves:   12618
 k-point 41 :   0.1333 0.2000 0.0000  plane waves:   12608
 k-point 42 :   0.2000 0.2000 0.0000  plane waves:   12612
 k-point 43 :   0.2667 0.2000 0.0000  plane waves:   12601
 k-point 44 :   0.3333 0.2000 0.0000  plane waves:   12625
 k-point 45 :   0.4000 0.2000 0.0000  plane waves:   12623
 k-point 46 :   0.4667 0.2000 0.0000  plane waves:   12641
 k-point 47 :  -0.4667 0.2000 0.0000  plane waves:   12641
 k-point 48 :  -0.4000 0.2000 0.0000  plane waves:   12623
 k-point 49 :  -0.3333 0.2000 0.0000  plane waves:   12625
 k-point 50 :  -0.2667 0.2000 0.0000  plane waves:   12601
 k-point 51 :  -0.2000 0.2000 0.0000  plane waves:   12612
 k-point 52 :  -0.1333 0.2000 0.0000  plane waves:   12608
 k-point 53 :  -0.0667 0.2000 0.0000  plane waves:   12618
 k-point 54 :   0.0000 0.2667 0.0000  plane waves:   12627
 k-point 55 :   0.0667 0.2667 0.0000  plane waves:   12612
 k-point 56 :   0.1333 0.2667 0.0000  plane waves:   12623
 k-point 57 :   0.2000 0.2667 0.0000  plane waves:   12612
 k-point 58 :   0.2667 0.2667 0.0000  plane waves:   12615
 k-point 59 :   0.3333 0.2667 0.0000  plane waves:   12617
 k-point 60 :   0.4000 0.2667 0.0000  plane waves:   12619
 k-point 61 :   0.4667 0.2667 0.0000  plane waves:   12623
 k-point 62 :  -0.4667 0.2667 0.0000  plane waves:   12623
 k-point 63 :  -0.4000 0.2667 0.0000  plane waves:   12619
 k-point 64 :  -0.3333 0.2667 0.0000  plane waves:   12617
 k-point 65 :  -0.2667 0.2667 0.0000  plane waves:   12615
 k-point 66 :  -0.2000 0.2667 0.0000  plane waves:   12612
 k-point 67 :  -0.1333 0.2667 0.0000  plane waves:   12623
 k-point 68 :  -0.0667 0.2667 0.0000  plane waves:   12612
 k-point 69 :   0.0000 0.3333 0.0000  plane waves:   12587
 k-point 70 :   0.0667 0.3333 0.0000  plane waves:   12597
 k-point 71 :   0.1333 0.3333 0.0000  plane waves:   12608
 k-point 72 :   0.2000 0.3333 0.0000  plane waves:   12614
 k-point 73 :   0.2667 0.3333 0.0000  plane waves:   12618
 k-point 74 :   0.3333 0.3333 0.0000  plane waves:   12602
 k-point 75 :   0.4000 0.3333 0.0000  plane waves:   12610
 k-point 76 :   0.4667 0.3333 0.0000  plane waves:   12614
 k-point 77 :  -0.4667 0.3333 0.0000  plane waves:   12614
 k-point 78 :  -0.4000 0.3333 0.0000  plane waves:   12610
 k-point 79 :  -0.3333 0.3333 0.0000  plane waves:   12602
 k-point 80 :  -0.2667 0.3333 0.0000  plane waves:   12618
 k-point 81 :  -0.2000 0.3333 0.0000  plane waves:   12614
 k-point 82 :  -0.1333 0.3333 0.0000  plane waves:   12608
 k-point 83 :  -0.0667 0.3333 0.0000  plane waves:   12597
 k-point 84 :   0.0000 0.4000 0.0000  plane waves:   12580
 k-point 85 :   0.0667 0.4000 0.0000  plane waves:   12599
 k-point 86 :   0.1333 0.4000 0.0000  plane waves:   12594
 k-point 87 :   0.2000 0.4000 0.0000  plane waves:   12594
 k-point 88 :   0.2667 0.4000 0.0000  plane waves:   12613
 k-point 89 :   0.3333 0.4000 0.0000  plane waves:   12598
 k-point 90 :   0.4000 0.4000 0.0000  plane waves:   12609
 k-point 91 :   0.4667 0.4000 0.0000  plane waves:   12604
 k-point 92 :  -0.4667 0.4000 0.0000  plane waves:   12604
 k-point 93 :  -0.4000 0.4000 0.0000  plane waves:   12609
 k-point 94 :  -0.3333 0.4000 0.0000  plane waves:   12598
 k-point 95 :  -0.2667 0.4000 0.0000  plane waves:   12613
 k-point 96 :  -0.2000 0.4000 0.0000  plane waves:   12594
 k-point 97 :  -0.1333 0.4000 0.0000  plane waves:   12594
 k-point 98 :  -0.0667 0.4000 0.0000  plane waves:   12599
 k-point 99 :   0.0000 0.4667 0.0000  plane waves:   12598
 k-point ** :   0.0667 0.4667 0.0000  plane waves:   12602
 k-point ** :   0.1333 0.4667 0.0000  plane waves:   12622
 k-point ** :   0.2000 0.4667 0.0000  plane waves:   12614
 k-point ** :   0.2667 0.4667 0.0000  plane waves:   12592
 k-point ** :   0.3333 0.4667 0.0000  plane waves:   12600
 k-point ** :   0.4000 0.4667 0.0000  plane waves:   12604
 k-point ** :   0.4667 0.4667 0.0000  plane waves:   12609
 k-point ** :  -0.4667 0.4667 0.0000  plane waves:   12609
 k-point ** :  -0.4000 0.4667 0.0000  plane waves:   12604
 k-point ** :  -0.3333 0.4667 0.0000  plane waves:   12600
 k-point ** :  -0.2667 0.4667 0.0000  plane waves:   12592
 k-point ** :  -0.2000 0.4667 0.0000  plane waves:   12614
 k-point ** :  -0.1333 0.4667 0.0000  plane waves:   12622
 k-point ** :  -0.0667 0.4667 0.0000  plane waves:   12602

 maximum and minimum number of plane-waves per node :       549      501

 maximum number of plane-waves:     12699
 maximum index in each direction: 
   IXMAX=    9   IYMAX=    8   IZMAX=   39
   IXMIN=   -9   IYMIN=   -9   IZMIN=  -39


 parallel 3D FFT for wavefunctions:
    minimum data exchange during FFTs selected (reduces bandwidth)
 parallel 3D FFT for charge:
    minimum data exchange during FFTs selected (reduces bandwidth)


 total amount of memory used by VASP MPI-rank0    63318. kBytes
=======================================================================

   base      :      30000. kBytes
   nonl-proj :      12514. kBytes
   fftplans  :       2678. kBytes
   grid      :       4349. kBytes
   one-center:          8. kBytes
   wavefun   :      13769. kBytes
 
     INWAV:  cpu time    0.0001: real time    0.0004
 Broyden mixing: mesh for mixing (old mesh)
   NGX = 17   NGY = 17   NGZ = 79
  (NGX  = 72   NGY  = 72   NGZ  =320)
  gives a total of  22831 points

 initial charge density was supplied:
 charge density of overlapping atoms calculated
 number of electron      20.0000000 magnetization 
 keeping initial charge density in first step


--------------------------------------------------------------------------------------------------------


 Maximum index for augmentation-charges         2220 (set IRDMAX)


--------------------------------------------------------------------------------------------------------


 First call to EWALD:  gamma=   0.245
 Maximum number of real-space cells 4x 4x 1
 Maximum number of reciprocal cells 2x 2x 7

    FEWALD:  cpu time    0.0018: real time    0.0018


--------------------------------------- Iteration      1(   1)  ---------------------------------------


    POTLOK:  cpu time    0.0489: real time    0.0851
    SETDIJ:  cpu time    0.0049: real time    0.0057
     EDDAV:  cpu time    2.5746: real time    2.5898
       DOS:  cpu time    0.0054: real time    0.0055
    --------------------------------------------
      LOOP:  cpu time    2.6338: real time    2.6861

 eigenvalue-minimisations  :  3164
 total energy-change (2. order) : 0.1440985E+03  (-0.6248929E+03)
 number of electron      20.0000000 magnetization 
 augmentation part       20.0000000 magnetization 

 Free energy of the ion-electron system (eV)
  ---------------------------------------------------
  alpha Z        PSCENC =         9.45693288
  Ewald energy   TEWEN  =      1144.70842458
  -Hartree energ DENC   =     -1746.50625057
  -exchange      EXHF   =         0.00000000
  -V(xc)+E(xc)   XCENC  =      -238.62187974
  PAW double counting   =       799.43158084     -524.17639913
  entropy T*S    EENTRO =        -0.01101758
  eigenvalues    EBANDS =        -2.61074487
  atomic energy  EATOM  =       702.42789710
  Solvation  Ediel_sol  =         0.00000000
  ---------------------------------------------------
  free energy    TOTEN  =       144.09854351 eV

  energy without entropy =      144.10956109  energy(sigma->0) =      144.10405230


--------------------------------------------------------------------------------------------------------




--------------------------------------- Iteration      1(   2)  ---------------------------------------


     EDDAV:  cpu time    3.6491: real time    3.6554
       DOS:  cpu time    0.0054: real time    0.0054
    --------------------------------------------
      LOOP:  cpu time    3.6545: real time    3.6608

 eigenvalue-minimisations  :  5260
 total energy-change (2. order) :-0.1394160E+03  (-0.1349325E+03)
 number of electron      20.0000000 magnetization 
 augmentation part       20.0000000 magnetization 

 Free energy of the ion-electron system (eV)
  ---------------------------------------------------
  alpha Z        PSCENC =         9.45693288
  Ewald energy   TEWEN  =      1144.70842458
  -Hartree energ DENC   =     -1746.50625057
  -exchange      EXHF   =         0.00000000
  -V(xc)+E(xc)   XCENC  =      -238.62187974
  PAW double counting   =       799.43158084     -524.17639913
  entropy T*S    EENTRO =        -0.00267550
  eigenvalues    EBANDS =      -142.03513684
  atomic energy  EATOM  =       702.42789710
  Solvation  Ediel_sol  =         0.00000000
  ---------------------------------------------------
  free energy    TOTEN  =         4.68249362 eV

  energy without entropy =        4.68516912  energy(sigma->0) =        4.68383137


--------------------------------------------------------------------------------------------------------




--------------------------------------- Iteration      1(   3)  ---------------------------------------


     EDDAV:  cpu time    2.8897: real time    2.8946
       DOS:  cpu time    0.0037: real time    0.0037
    --------------------------------------------
      LOOP:  cpu time    2.8934: real time    2.8982

 eigenvalue-minimisations  :  4006
 total energy-change (2. order) :-0.2066961E+02  (-0.2046515E+02)
 number of electron      20.0000000 magnetization 
 augmentation part       20.0000000 magnetization 

 Free energy of the ion-electron system (eV)
  ---------------------------------------------------
  alpha Z        PSCENC =         9.45693288
  Ewald energy   TEWEN  =      1144.70842458
  -Hartree energ DENC   =     -1746.50625057
  -exchange      EXHF   =         0.00000000
  -V(xc)+E(xc)   XCENC  =      -238.62187974
  PAW double counting   =       799.43158084     -524.17639913
  entropy T*S    EENTRO =        -0.00000000
  eigenvalues    EBANDS =      -162.70741898
  atomic energy  EATOM  =       702.42789710
  Solvation  Ediel_sol  =         0.00000000
  ---------------------------------------------------
  free energy    TOTEN  =       -15.98711301 eV

  energy without entropy =      -15.98711301  energy(sigma->0) =      -15.98711301


--------------------------------------------------------------------------------------------------------




--------------------------------------- Iteration      1(   4)  ---------------------------------------


     EDDAV:  cpu time    3.1602: real time    3.1652
       DOS:  cpu time    0.0038: real time    0.0038
    --------------------------------------------
      LOOP:  cpu time    3.1639: real time    3.1690

 eigenvalue-minimisations  :  4486
 total energy-change (2. order) :-0.7958152E+00  (-0.7931800E+00)
 number of electron      20.0000000 magnetization 
 augmentation part       20.0000000 magnetization 

 Free energy of the ion-electron system (eV)
  ---------------------------------------------------
  alpha Z        PSCENC =         9.45693288
  Ewald energy   TEWEN  =      1144.70842458
  -Hartree energ DENC   =     -1746.50625057
  -exchange      EXHF   =         0.00000000
  -V(xc)+E(xc)   XCENC  =      -238.62187974
  PAW double counting   =       799.43158084     -524.17639913
  entropy T*S    EENTRO =        -0.00000000
  eigenvalues    EBANDS =      -163.50323416
  atomic energy  EATOM  =       702.42789710
  Solvation  Ediel_sol  =         0.00000000
  ---------------------------------------------------
  free energy    TOTEN  =       -16.78292820 eV

  energy without entropy =      -16.78292820  energy(sigma->0) =      -16.78292820


--------------------------------------------------------------------------------------------------------




--------------------------------------- Iteration      1(   5)  ---------------------------------------


     EDDAV:  cpu time    2.9985: real time    3.0033
       DOS:  cpu time    0.0037: real time    0.0037
    CHARGE:  cpu time    0.2108: real time    0.2115
    MIXING:  cpu time    0.0047: real time    0.0047
    --------------------------------------------
      LOOP:  cpu time    3.2177: real time    3.2231

 eigenvalue-minimisations  :  4144
 total energy-change (2. order) :-0.1825585E-01  (-0.1824314E-01)
 number of electron      20.0000000 magnetization 
 augmentation part       -4.5216841 magnetization 

 Broyden mixing:
  rms(total) = 0.44905E+00    rms(broyden)= 0.44905E+00
  rms(prec ) = 0.49032E+00
  weight for this iteration     100.00

 Free energy of the ion-electron system (eV)
  ---------------------------------------------------
  alpha Z        PSCENC =         9.45693288
  Ewald energy   TEWEN  =      1144.70842458
  -Hartree energ DENC   =     -1746.50625057
  -exchange      EXHF   =         0.00000000
  -V(xc)+E(xc)   XCENC  =      -238.62187974
  PAW double counting   =       799.43158084     -524.17639913
  entropy T*S    EENTRO =        -0.00000000
  eigenvalues    EBANDS =      -163.52149002
  atomic energy  EATOM  =       702.42789710
  Solvation  Ediel_sol  =         0.00000000
  ---------------------------------------------------
  free energy    TOTEN  =       -16.80118405 eV

  energy without entropy =      -16.80118405  energy(sigma->0) =      -16.80118405


--------------------------------------------------------------------------------------------------------




--------------------------------------- Iteration      1(   6)  ---------------------------------------


    POTLOK:  cpu time    0.0481: real time    0.0482
    SETDIJ:  cpu time    0.0064: real time    0.0069
     EDDAV:  cpu time    2.8553: real time    2.8600
       DOS:  cpu time    0.0038: real time    0.0038
    CHARGE:  cpu time    0.2059: real time    0.2061
    MIXING:  cpu time    0.0013: real time    0.0019
    --------------------------------------------
      LOOP:  cpu time    3.1209: real time    3.1270

 eigenvalue-minimisations  :  3920
 total energy-change (2. order) : 0.4970752E+00  (-0.1274119E+00)
 number of electron      20.0000000 magnetization 
 augmentation part       -4.4888849 magnetization 

 Broyden mixing:
  rms(total) = 0.27510E+00    rms(broyden)= 0.27510E+00
  rms(prec ) = 0.28430E+00
  weight for this iteration     100.00

 eigenvalues of (default mixing * dielectric matrix)
  average eigenvalue GAMMA=   1.7807
  1.7807

 Free energy of the ion-electron system (eV)
  ---------------------------------------------------
  alpha Z        PSCENC =         9.45693288
  Ewald energy   TEWEN  =      1144.70842458
  -Hartree energ DENC   =     -1754.40859816
  -exchange      EXHF   =         0.00000000
  -V(xc)+E(xc)   XCENC  =      -238.13744961
  PAW double counting   =       922.95482651     -647.87869756
  entropy T*S    EENTRO =        -0.00000000
  eigenvalues    EBANDS =      -155.42744462
  atomic energy  EATOM  =       702.42789710
  Solvation  Ediel_sol  =         0.00000000
  ---------------------------------------------------
  free energy    TOTEN  =       -16.30410888 eV

  energy without entropy =      -16.30410888  energy(sigma->0) =      -16.30410888


--------------------------------------------------------------------------------------------------------




--------------------------------------- Iteration      1(   7)  ---------------------------------------


    POTLOK:  cpu time    0.0388: real time    0.0389
    SETDIJ:  cpu time    0.0032: real time    0.0032
     EDDAV:  cpu time    2.9836: real time    2.9885
       DOS:  cpu time    0.0038: real time    0.0038
    CHARGE:  cpu time    0.2082: real time    0.2085
    MIXING:  cpu time    0.0013: real time    0.0014
    --------------------------------------------
      LOOP:  cpu time    3.2389: real time    3.2444

 eigenvalue-minimisations  :  4148
 total energy-change (2. order) : 0.2696608E-01  (-0.3100598E-01)
 number of electron      20.0000000 magnetization 
 augmentation part       -4.4810826 magnetization 

 Broyden mixing:
  rms(total) = 0.10535E+00    rms(broyden)= 0.10535E+00
  rms(prec ) = 0.11073E+00
  weight for this iteration     100.00

 eigenvalues of (default mixing * dielectric matrix)
  average eigenvalue GAMMA=   1.7265
  1.3673  2.0857

 Free energy of the ion-electron system (eV)
  ---------------------------------------------------
  alpha Z        PSCENC =         9.45693288
  Ewald energy   TEWEN  =      1144.70842458
  -Hartree energ DENC   =     -1759.34798075
  -exchange      EXHF   =         0.00000000
  -V(xc)+E(xc)   XCENC  =      -237.81800277
  PAW double counting   =      1061.19044849     -786.24814903
  entropy T*S    EENTRO =        -0.00000000
  eigenvalues    EBANDS =      -150.64671330
  atomic energy  EATOM  =       702.42789710
  Solvation  Ediel_sol  =         0.00000000
  ---------------------------------------------------
  free energy    TOTEN  =       -16.27714280 eV

  energy without entropy =      -16.27714280  energy(sigma->0) =      -16.27714280


--------------------------------------------------------------------------------------------------------




--------------------------------------- Iteration      1(   8)  ---------------------------------------


    POTLOK:  cpu time    0.0419: real time    0.0420
    SETDIJ:  cpu time    0.0033: real time    0.0033
     EDDAV:  cpu time    3.1361: real time    3.1412
       DOS:  cpu time    0.0038: real time    0.0038
    CHARGE:  cpu time    0.2018: real time    0.2021
    MIXING:  cpu time    0.0011: real time    0.0011
    --------------------------------------------
      LOOP:  cpu time    3.3880: real time    3.3935

 eigenvalue-minimisations  :  4462
 total energy-change (2. order) : 0.9402703E-02  (-0.3740060E-02)
 number of electron      20.0000000 magnetization 
 augmentation part       -4.4853104 magnetization 

 Broyden mixing:
  rms(total) = 0.20430E-01    rms(broyden)= 0.20430E-01
  rms(prec ) = 0.27859E-01
  weight for this iteration     100.00

 eigenvalues of (default mixing * dielectric matrix)
  average eigenvalue GAMMA=   1.7029
  2.5279  1.2903  1.2903

 Free energy of the ion-electron system (eV)
  ---------------------------------------------------
  alpha Z        PSCENC =         9.45693288
  Ewald energy   TEWEN  =      1144.70842458
  -Hartree energ DENC   =     -1761.06584966
  -exchange      EXHF   =         0.00000000
  -V(xc)+E(xc)   XCENC  =      -237.73745213
  PAW double counting   =      1127.25023357     -852.34624919
  entropy T*S    EENTRO =        -0.00000000
  eigenvalues    EBANDS =      -148.96167725
  atomic energy  EATOM  =       702.42789710
  Solvation  Ediel_sol  =         0.00000000
  ---------------------------------------------------
  free energy    TOTEN  =       -16.26774010 eV

  energy without entropy =      -16.26774010  energy(sigma->0) =      -16.26774010


--------------------------------------------------------------------------------------------------------




--------------------------------------- Iteration      1(   9)  ---------------------------------------


    POTLOK:  cpu time    0.0359: real time    0.0360
    SETDIJ:  cpu time    0.0031: real time    0.0031
     EDDAV:  cpu time    3.0312: real time    3.0365
       DOS:  cpu time    0.0038: real time    0.0039
    CHARGE:  cpu time    0.2042: real time    0.2044
    MIXING:  cpu time    0.0013: real time    0.0013
    --------------------------------------------
      LOOP:  cpu time    3.2795: real time    3.2852

 eigenvalue-minimisations  :  4286
 total energy-change (2. order) : 0.3728883E-02  (-0.6569075E-03)
 number of electron      20.0000000 magnetization 
 augmentation part       -4.4834454 magnetization 

 Broyden mixing:
  rms(total) = 0.10151E-01    rms(broyden)= 0.10151E-01
  rms(prec ) = 0.15672E-01
  weight for this iteration     100.00

 eigenvalues of (default mixing * dielectric matrix)
  average eigenvalue GAMMA=   1.6942
  2.2026  2.2026  1.1859  1.1859

 Free energy of the ion-electron system (eV)
  ---------------------------------------------------
  alpha Z        PSCENC =         9.45693288
  Ewald energy   TEWEN  =      1144.70842458
  -Hartree energ DENC   =     -1763.03822440
  -exchange      EXHF   =         0.00000000
  -V(xc)+E(xc)   XCENC  =      -237.66425639
  PAW double counting   =      1145.32853601     -870.43626032
  entropy T*S    EENTRO =        -0.00000000
  eigenvalues    EBANDS =      -147.04706068
  atomic energy  EATOM  =       702.42789710
  Solvation  Ediel_sol  =         0.00000000
  ---------------------------------------------------
  free energy    TOTEN  =       -16.26401122 eV

  energy without entropy =      -16.26401122  energy(sigma->0) =      -16.26401122


--------------------------------------------------------------------------------------------------------




--------------------------------------- Iteration      1(  10)  ---------------------------------------


    POTLOK:  cpu time    0.0374: real time    0.0375
    SETDIJ:  cpu time    0.0032: real time    0.0032
     EDDAV:  cpu time    3.0965: real time    3.1022
       DOS:  cpu time    0.0039: real time    0.0039
    CHARGE:  cpu time    0.2015: real time    0.2018
    MIXING:  cpu time    0.0013: real time    0.0013
    --------------------------------------------
      LOOP:  cpu time    3.3438: real time    3.3500

 eigenvalue-minimisations  :  4376
 total energy-change (2. order) : 0.1234611E-02  (-0.1136977E-03)
 number of electron      20.0000000 magnetization 
 augmentation part       -4.4822055 magnetization 

 Broyden mixing:
  rms(total) = 0.51240E-02    rms(broyden)= 0.51240E-02
  rms(prec ) = 0.94728E-02
  weight for this iteration     100.00

 eigenvalues of (default mixing * dielectric matrix)
  average eigenvalue GAMMA=   1.8616
  3.3381  2.5988  1.2339  1.2339  0.9036

 Free energy of the ion-electron system (eV)
  ---------------------------------------------------
  alpha Z        PSCENC =         9.45693288
  Ewald energy   TEWEN  =      1144.70842458
  -Hartree energ DENC   =     -1764.26491325
  -exchange      EXHF   =         0.00000000
  -V(xc)+E(xc)   XCENC  =      -237.65354318
  PAW double counting   =      1135.06537900     -860.16335148
  entropy T*S    EENTRO =        -0.00000000
  eigenvalues    EBANDS =      -145.83960226
  atomic energy  EATOM  =       702.42789710
  Solvation  Ediel_sol  =         0.00000000
  ---------------------------------------------------
  free energy    TOTEN  =       -16.26277661 eV

  energy without entropy =      -16.26277661  energy(sigma->0) =      -16.26277661


--------------------------------------------------------------------------------------------------------




--------------------------------------- Iteration      1(  11)  ---------------------------------------


    POTLOK:  cpu time    0.0371: real time    0.0373
    SETDIJ:  cpu time    0.0032: real time    0.0032
     EDDAV:  cpu time    3.0836: real time    3.0896
       DOS:  cpu time    0.0038: real time    0.0038
    CHARGE:  cpu time    0.2041: real time    0.2049
    MIXING:  cpu time    0.0014: real time    0.0014
    --------------------------------------------
      LOOP:  cpu time    3.3333: real time    3.3402

 eigenvalue-minimisations  :  4274
 total energy-change (2. order) : 0.7727938E-03  (-0.1307596E-03)
 number of electron      20.0000000 magnetization 
 augmentation part       -4.4808183 magnetization 

 Broyden mixing:
  rms(total) = 0.32817E-02    rms(broyden)= 0.32817E-02
  rms(prec ) = 0.50186E-02
  weight for this iteration     100.00

 eigenvalues of (default mixing * dielectric matrix)
  average eigenvalue GAMMA=   1.8185
  3.3909  2.3478  1.9182  1.1888  1.1888  0.8762

 Free energy of the ion-electron system (eV)
  ---------------------------------------------------
  alpha Z        PSCENC =         9.45693288
  Ewald energy   TEWEN  =      1144.70842458
  -Hartree energ DENC   =     -1765.88780246
  -exchange      EXHF   =         0.00000000
  -V(xc)+E(xc)   XCENC  =      -237.62197576
  PAW double counting   =      1136.22792811     -861.32452686
  entropy T*S    EENTRO =        -0.00000000
  eigenvalues    EBANDS =      -144.24888140
  atomic energy  EATOM  =       702.42789710
  Solvation  Ediel_sol  =         0.00000000
  ---------------------------------------------------
  free energy    TOTEN  =       -16.26200381 eV

  energy without entropy =      -16.26200381  energy(sigma->0) =      -16.26200381


--------------------------------------------------------------------------------------------------------




--------------------------------------- Iteration      1(  12)  ---------------------------------------


    POTLOK:  cpu time    0.0368: real time    0.0369
    SETDIJ:  cpu time    0.0031: real time    0.0031
     EDDAV:  cpu time    2.7021: real time    2.7072
       DOS:  cpu time    0.0038: real time    0.0038
    CHARGE:  cpu time    0.2037: real time    0.2040
    MIXING:  cpu time    0.0013: real time    0.0013
    --------------------------------------------
      LOOP:  cpu time    2.9509: real time    2.9564

 eigenvalue-minimisations  :  3656
 total energy-change (2. order) :-0.7888500E-03  (-0.2807269E-04)
 number of electron      20.0000000 magnetization 
 augmentation part       -4.4802078 magnetization 

 Broyden mixing:
  rms(total) = 0.18395E-02    rms(broyden)= 0.18395E-02
  rms(prec ) = 0.28596E-02
  weight for this iteration     100.00

 eigenvalues of (default mixing * dielectric matrix)
  average eigenvalue GAMMA=   2.0641
  4.6084  3.0688  2.4973  1.2009  1.2009  1.0269  0.8454

 Free energy of the ion-electron system (eV)
  ---------------------------------------------------
  alpha Z        PSCENC =         9.45693288
  Ewald energy   TEWEN  =      1144.70842458
  -Hartree energ DENC   =     -1766.50755756
  -exchange      EXHF   =         0.00000000
  -V(xc)+E(xc)   XCENC  =      -237.61235497
  PAW double counting   =      1138.13452881     -863.23377261
  entropy T*S    EENTRO =        -0.00000000
  eigenvalues    EBANDS =      -143.63689089
  atomic energy  EATOM  =       702.42789710
  Solvation  Ediel_sol  =         0.00000000
  ---------------------------------------------------
  free energy    TOTEN  =       -16.26279266 eV

  energy without entropy =      -16.26279266  energy(sigma->0) =      -16.26279266


--------------------------------------------------------------------------------------------------------




--------------------------------------- Iteration      1(  13)  ---------------------------------------


    POTLOK:  cpu time    0.0375: real time    0.0376
    SETDIJ:  cpu time    0.0031: real time    0.0031
     EDDAV:  cpu time    2.7559: real time    2.7611
       DOS:  cpu time    0.0038: real time    0.0038
    CHARGE:  cpu time    0.2027: real time    0.2030
    MIXING:  cpu time    0.0013: real time    0.0013
    --------------------------------------------
      LOOP:  cpu time    3.0044: real time    3.0100

 eigenvalue-minimisations  :  3698
 total energy-change (2. order) :-0.4610468E-03  (-0.8353364E-05)
 number of electron      20.0000000 magnetization 
 augmentation part       -4.4799785 magnetization 

 Broyden mixing:
  rms(total) = 0.11117E-02    rms(broyden)= 0.11117E-02
  rms(prec ) = 0.14945E-02
  weight for this iteration     100.00

 eigenvalues of (default mixing * dielectric matrix)
  average eigenvalue GAMMA=   2.2271
  5.5776  3.3206  2.5124  2.1212  1.1566  1.1566  1.0670  0.9052

 Free energy of the ion-electron system (eV)
  ---------------------------------------------------
  alpha Z        PSCENC =         9.45693288
  Ewald energy   TEWEN  =      1144.70842458
  -Hartree energ DENC   =     -1766.94372378
  -exchange      EXHF   =         0.00000000
  -V(xc)+E(xc)   XCENC  =      -237.61080592
  PAW double counting   =      1136.92117894     -862.01924344
  entropy T*S    EENTRO =        -0.00000000
  eigenvalues    EBANDS =      -143.20391407
  atomic energy  EATOM  =       702.42789710
  Solvation  Ediel_sol  =         0.00000000
  ---------------------------------------------------
  free energy    TOTEN  =       -16.26325371 eV

  energy without entropy =      -16.26325371  energy(sigma->0) =      -16.26325371


--------------------------------------------------------------------------------------------------------




--------------------------------------- Iteration      1(  14)  ---------------------------------------


    POTLOK:  cpu time    0.0391: real time    0.0392
    SETDIJ:  cpu time    0.0031: real time    0.0031
     EDDAV:  cpu time    2.8597: real time    2.8649
       DOS:  cpu time    0.0038: real time    0.0038
    CHARGE:  cpu time    0.2032: real time    0.2034
    MIXING:  cpu time    0.0016: real time    0.0016
    --------------------------------------------
      LOOP:  cpu time    3.1104: real time    3.1162

 eigenvalue-minimisations  :  3932
 total energy-change (2. order) :-0.2670113E-03  (-0.4079638E-05)
 number of electron      20.0000000 magnetization 
 augmentation part       -4.4799437 magnetization 

 Broyden mixing:
  rms(total) = 0.39441E-03    rms(broyden)= 0.39441E-03
  rms(prec ) = 0.61416E-03
  weight for this iteration     100.00

 eigenvalues of (default mixing * dielectric matrix)
  average eigenvalue GAMMA=   2.2413
  6.7432  3.0753  2.5295  2.5295  1.1794  1.1794  1.0585  0.9382  0.9382

 Free energy of the ion-electron system (eV)
  ---------------------------------------------------
  alpha Z        PSCENC =         9.45693288
  Ewald energy   TEWEN  =      1144.70842458
  -Hartree energ DENC   =     -1767.15342991
  -exchange      EXHF   =         0.00000000
  -V(xc)+E(xc)   XCENC  =      -237.61061969
  PAW double counting   =      1137.20001506     -862.29760112
  entropy T*S    EENTRO =        -0.00000000
  eigenvalues    EBANDS =      -142.99513961
  atomic energy  EATOM  =       702.42789710
  Solvation  Ediel_sol  =         0.00000000
  ---------------------------------------------------
  free energy    TOTEN  =       -16.26352072 eV

  energy without entropy =      -16.26352072  energy(sigma->0) =      -16.26352072


--------------------------------------------------------------------------------------------------------




--------------------------------------- Iteration      1(  15)  ---------------------------------------


    POTLOK:  cpu time    0.0392: real time    0.0393
    SETDIJ:  cpu time    0.0032: real time    0.0032
     EDDAV:  cpu time    2.7905: real time    2.7958
       DOS:  cpu time    0.0038: real time    0.0039
    CHARGE:  cpu time    0.2030: real time    0.2033
    MIXING:  cpu time    0.0015: real time    0.0015
    --------------------------------------------
      LOOP:  cpu time    3.0412: real time    3.0469

 eigenvalue-minimisations  :  3818
 total energy-change (2. order) :-0.5556072E-04  (-0.1945433E-06)
 number of electron      20.0000000 magnetization 
 augmentation part       -4.4799606 magnetization 

 Broyden mixing:
  rms(total) = 0.31625E-03    rms(broyden)= 0.31625E-03
  rms(prec ) = 0.49478E-03
  weight for this iteration     100.00

 eigenvalues of (default mixing * dielectric matrix)
  average eigenvalue GAMMA=   2.3481
  6.5446  4.2285  2.6983  2.6983  1.9642  1.1414  1.1414  1.1972  0.9333  0.9333

 Free energy of the ion-electron system (eV)
  ---------------------------------------------------
  alpha Z        PSCENC =         9.45693288
  Ewald energy   TEWEN  =      1144.70842458
  -Hartree energ DENC   =     -1767.16852344
  -exchange      EXHF   =         0.00000000
  -V(xc)+E(xc)   XCENC  =      -237.61098097
  PAW double counting   =      1137.00834090     -862.10577939
  entropy T*S    EENTRO =        -0.00000000
  eigenvalues    EBANDS =      -142.97988793
  atomic energy  EATOM  =       702.42789710
  Solvation  Ediel_sol  =         0.00000000
  ---------------------------------------------------
  free energy    TOTEN  =       -16.26357628 eV

  energy without entropy =      -16.26357628  energy(sigma->0) =      -16.26357628


--------------------------------------------------------------------------------------------------------




--------------------------------------- Iteration      1(  16)  ---------------------------------------


    POTLOK:  cpu time    0.0390: real time    0.0392
    SETDIJ:  cpu time    0.0032: real time    0.0032
     EDDAV:  cpu time    2.6373: real time    2.6422
       DOS:  cpu time    0.0039: real time    0.0039
    CHARGE:  cpu time    0.2022: real time    0.2025
    MIXING:  cpu time    0.0017: real time    0.0017
    --------------------------------------------
      LOOP:  cpu time    2.8872: real time    2.8926

 eigenvalue-minimisations  :  3522
 total energy-change (2. order) :-0.4799855E-04  (-0.8354780E-06)
 number of electron      20.0000000 magnetization 
 augmentation part       -4.4799777 magnetization 

 Broyden mixing:
  rms(total) = 0.12936E-03    rms(broyden)= 0.12936E-03
  rms(prec ) = 0.22934E-03
  weight for this iteration     100.00

 eigenvalues of (default mixing * dielectric matrix)
  average eigenvalue GAMMA=   2.2782
  6.8044  4.4864  2.6551  2.6551  2.2473  1.1550  1.1550  1.1783  0.9297  0.9297
  0.8643

 Free energy of the ion-electron system (eV)
  ---------------------------------------------------
  alpha Z        PSCENC =         9.45693288
  Ewald energy   TEWEN  =      1144.70842458
  -Hartree energ DENC   =     -1767.21942609
  -exchange      EXHF   =         0.00000000
  -V(xc)+E(xc)   XCENC  =      -237.61111947
  PAW double counting   =      1136.84863109     -861.94604446
  entropy T*S    EENTRO =        -0.00000000
  eigenvalues    EBANDS =      -142.92891990
  atomic energy  EATOM  =       702.42789710
  Solvation  Ediel_sol  =         0.00000000
  ---------------------------------------------------
  free energy    TOTEN  =       -16.26362428 eV

  energy without entropy =      -16.26362428  energy(sigma->0) =      -16.26362428


--------------------------------------------------------------------------------------------------------




--------------------------------------- Iteration      1(  17)  ---------------------------------------


    POTLOK:  cpu time    0.0362: real time    0.0363
    SETDIJ:  cpu time    0.0032: real time    0.0032
     EDDAV:  cpu time    2.4413: real time    2.4460
       DOS:  cpu time    0.0039: real time    0.0039
    CHARGE:  cpu time    0.2035: real time    0.2038
    MIXING:  cpu time    0.0018: real time    0.0018
    --------------------------------------------
[...]
  band No.  band energies     occupation 
      1     -14.5701      2.00000
      2     -14.3191      2.00000
      3      -8.8485      2.00000
      4      -8.6284      2.00000
      5      -6.0649      2.00000
      6      -5.1227      2.00000
      7      -4.8341      2.00000
      8      -4.1126      2.00000
      9      -3.8707      2.00000
     10      -3.1020      2.00000
     11       0.1050      0.00000
     12       1.0522      0.00000
     13       1.1441      0.00000
     14       1.5599      0.00000

 k-point    96 :      -0.2000    0.4000    0.0000
  band No.  band energies     occupation 
      1     -14.6386      2.00000
      2     -14.3412      2.00000
      3      -9.0111      2.00000
      4      -8.7303      2.00000
      5      -5.6316      2.00000
      6      -4.8427      2.00000
      7      -4.5625      2.00000
      8      -3.9814      2.00000
      9      -3.5075      2.00000
     10      -2.7313      2.00000
     11      -0.3613      0.00000
     12       0.5439      0.00000
     13       0.6963      0.00000
     14       1.1991      0.00000

 k-point    97 :      -0.1333    0.4000    0.0000
  band No.  band energies     occupation 
      1     -14.6934      2.00000
      2     -14.3634      2.00000
      3      -9.1372      2.00000
      4      -8.8141      2.00000
      5      -5.1197      2.00000
      6      -4.7835      2.00000
      7      -4.1508      2.00000
      8      -3.9372      2.00000
      9      -2.9516      2.00000
     10      -2.5087      2.00000
     11      -0.6318      0.00000
     12      -0.1763      0.00000
     13       0.4794      0.00000
     14       0.7675      0.00000

 k-point    98 :      -0.0667    0.4000    0.0000
  band No.  band energies     occupation 
      1     -14.7287      2.00000
      2     -14.3793      2.00000
      3      -9.2162      2.00000
      4      -8.8685      2.00000
      5      -4.7881      2.00000
      6      -4.5929      2.00000
      7      -3.9602      2.00000
      8      -3.7468      2.00000
      9      -2.6719      2.00000
     10      -2.3895      2.00000
     11      -0.7647      0.00000
     12      -0.3894      0.00000
     13       0.2196      0.00000
     14       0.3622      0.00000

 k-point    99 :       0.0000    0.4667    0.0000
  band No.  band energies     occupation 
      1     -14.5987      2.00000
      2     -14.4764      2.00000
      3      -9.2271      2.00000
      4      -9.1048      2.00000
      5      -4.5528      2.00000
      6      -4.3373      2.00000
      7      -3.8627      2.00000
      8      -3.6708      2.00000
      9      -2.5816      2.00000
     10      -2.2464      2.00000
     11      -0.9012      0.00000
     12      -0.4705      0.00000
     13      -0.0712      0.00000
     14       0.1245      0.00000

 k-point   100 :       0.0667    0.4667    0.0000
  band No.  band energies     occupation 
      1     -14.5887      2.00000
      2     -14.4686      2.00000
      3      -9.1995      2.00000
      4      -9.0801      2.00000
      5      -4.5664      2.00000
      6      -4.4448      2.00000
      7      -4.0158      2.00000
      8      -3.8782      2.00000
      9      -2.5004      2.00000
     10      -2.3998      2.00000
     11      -0.8051      0.00000
     12      -0.6955      0.00000
     13       0.2797      0.00000
     14       0.5826      0.00000

 k-point   101 :       0.1333    0.4667    0.0000
  band No.  band energies     occupation 
      1     -14.5600      2.00000
      2     -14.4466      2.00000
      3      -9.1181      2.00000
      4      -9.0071      2.00000
      5      -4.8462      2.00000
      6      -4.6715      2.00000
      7      -4.2493      2.00000
      8      -4.1382      2.00000
      9      -2.8582      2.00000
     10      -2.6558      2.00000
     11      -0.5573      0.00000
     12      -0.3263      0.00000
     13       0.7768      0.00000
     14       0.8727      0.00000

 k-point   102 :       0.2000    0.4667    0.0000
  band No.  band energies     occupation 
      1     -14.5161      2.00000
      2     -14.4140      2.00000
      3      -8.9866      2.00000
      4      -8.8904      2.00000
      5      -5.3542      2.00000
      6      -5.0357      2.00000
      7      -4.4449      2.00000
      8      -4.2153      2.00000
      9      -3.3660      2.00000
     10      -3.0721      2.00000
     11      -0.0413      0.00000
     12       0.3163      0.00000
     13       0.9985      0.00000
     14       1.2238      0.00000

 k-point   103 :       0.2667    0.4667    0.0000
  band No.  band energies     occupation 
      1     -14.4631      2.00000
      2     -14.3770      2.00000
      3      -8.8135      2.00000
      4      -8.7388      2.00000
      5      -5.8255      2.00000
      6      -5.4890      2.00000
      7      -4.6380      2.00000
      8      -4.3804      2.00000
      9      -3.7062      2.00000
     10      -3.4370      2.00000
     11       0.4675      0.00000
     12       0.8241      0.00000
     13       1.3939      0.00000
     14       1.6428      0.00000

 k-point   104 :       0.3333    0.4667    0.0000
  band No.  band energies     occupation 
      1     -14.4087      2.00000
      2     -14.3431      2.00000
      3      -8.6156      2.00000
      4      -8.5682      2.00000
      5      -6.2110      2.00000
      6      -5.9039      2.00000
      7      -4.9305      2.00000
      8      -4.6758      2.00000
      9      -3.8174      2.00000
     10      -3.6216      2.00000
     11       0.8144      0.00000
     12       1.0866      0.00000
     13       1.9367      0.00000
     14       2.2121      0.00000

 k-point   105 :       0.4000    0.4667    0.0000
  band No.  band energies     occupation 
      1     -14.3610      2.00000
      2     -14.3198      2.00000
      3      -8.4267      2.00000
      4      -8.4068      2.00000
      5      -6.4761      2.00000
      6      -6.2503      2.00000
      7      -5.1824      2.00000
      8      -4.9924      2.00000
      9      -3.8136      2.00000
     10      -3.6949      2.00000
     11       1.0510      0.00000
     12       1.2205      0.00000
     13       2.4163      0.00000
     14       2.6452      0.00000

 k-point   106 :       0.4667    0.4667    0.0000
  band No.  band energies     occupation 
      1     -14.3277      2.00000
      2     -14.3136      2.00000
      3      -8.3040      2.00000
      4      -8.3006      2.00000
      5      -6.5800      2.00000
      6      -6.4946      2.00000
      7      -5.2874      2.00000
      8      -5.2167      2.00000
      9      -3.7772      2.00000
     10      -3.7372      2.00000
     11       1.2041      0.00000
     12       1.2617      0.00000
     13       2.6648      0.00000
     14       2.7845      0.00000

 k-point   107 :      -0.4667    0.4667    0.0000
  band No.  band energies     occupation 
      1     -14.3277      2.00000
      2     -14.3136      2.00000
      3      -8.3040      2.00000
      4      -8.3006      2.00000
      5      -6.5800      2.00000
      6      -6.4946      2.00000
      7      -5.2874      2.00000
      8      -5.2167      2.00000
      9      -3.7772      2.00000
     10      -3.7372      2.00000
     11       1.2041      0.00000
     12       1.2617      0.00000
     13       2.6648      0.00000
     14       2.7845      0.00000

 k-point   108 :      -0.4000    0.4667    0.0000
  band No.  band energies     occupation 
      1     -14.3610      2.00000
      2     -14.3198      2.00000
      3      -8.4267      2.00000
      4      -8.4068      2.00000
      5      -6.4761      2.00000
      6      -6.2503      2.00000
      7      -5.1824      2.00000
      8      -4.9924      2.00000
      9      -3.8136      2.00000
     10      -3.6949      2.00000
     11       1.0510      0.00000
     12       1.2205      0.00000
     13       2.4163      0.00000
     14       2.6452      0.00000

 k-point   109 :      -0.3333    0.4667    0.0000
  band No.  band energies     occupation 
      1     -14.4087      2.00000
      2     -14.3431      2.00000
      3      -8.6156      2.00000
      4      -8.5682      2.00000
      5      -6.2110      2.00000
      6      -5.9039      2.00000
      7      -4.9305      2.00000
      8      -4.6758      2.00000
      9      -3.8174      2.00000
     10      -3.6216      2.00000
     11       0.8144      0.00000
     12       1.0866      0.00000
     13       1.9367      0.00000
     14       2.2121      0.00000

 k-point   110 :      -0.2667    0.4667    0.0000
  band No.  band energies     occupation 
      1     -14.4631      2.00000
      2     -14.3770      2.00000
      3      -8.8135      2.00000
      4      -8.7388      2.00000
      5      -5.8255      2.00000
      6      -5.4890      2.00000
      7      -4.6380      2.00000
      8      -4.3804      2.00000
      9      -3.7062      2.00000
     10      -3.4370      2.00000
     11       0.4675      0.00000
     12       0.8241      0.00000
     13       1.3939      0.00000
     14       1.6428      0.00000

 k-point   111 :      -0.2000    0.4667    0.0000
  band No.  band energies     occupation 
      1     -14.5161      2.00000
      2     -14.4140      2.00000
      3      -8.9866      2.00000
      4      -8.8904      2.00000
      5      -5.3542      2.00000
      6      -5.0357      2.00000
      7      -4.4449      2.00000
      8      -4.2153      2.00000
      9      -3.3660      2.00000
     10      -3.0721      2.00000
     11      -0.0413      0.00000
     12       0.3163      0.00000
     13       0.9985      0.00000
     14       1.2238      0.00000

 k-point   112 :      -0.1333    0.4667    0.0000
  band No.  band energies     occupation 
      1     -14.5600      2.00000
      2     -14.4466      2.00000
      3      -9.1181      2.00000
      4      -9.0071      2.00000
      5      -4.8462      2.00000
      6      -4.6715      2.00000
      7      -4.2493      2.00000
      8      -4.1382      2.00000
      9      -2.8582      2.00000
     10      -2.6558      2.00000
     11      -0.5573      0.00000
     12      -0.3263      0.00000
     13       0.7768      0.00000
     14       0.8727      0.00000

 k-point   113 :      -0.0667    0.4667    0.0000
  band No.  band energies     occupation 
      1     -14.5887      2.00000
      2     -14.4686      2.00000
      3      -9.1995      2.00000
      4      -9.0801      2.00000
      5      -4.5664      2.00000
      6      -4.4448      2.00000
      7      -4.0158      2.00000
      8      -3.8782      2.00000
      9      -2.5004      2.00000
     10      -2.3998      2.00000
     11      -0.8051      0.00000
     12      -0.6955      0.00000
     13       0.2797      0.00000
     14       0.5826      0.00000


--------------------------------------------------------------------------------------------------------


 soft charge-density along one line, spin component           1
         0         1         2         3         4         5         6         7         8         9
 total charge-density along one line
 
 pseudopotential strength for first ion, spin component:           1
 30.095 -23.441  -0.000  -0.089   0.035  -0.000  -0.141   0.055
-23.441  28.121   0.000   0.051  -0.019   0.000   0.082  -0.032
 -0.000   0.000   6.333  -0.000  -0.000   9.798  -0.000  -0.000
 -0.089   0.051  -0.000   6.331   0.002  -0.000   9.794   0.003
  0.035  -0.019  -0.000   0.002   6.333  -0.000   0.003   9.797
 -0.000   0.000   9.798  -0.000  -0.000  15.229  -0.000  -0.000
 -0.141   0.082  -0.000   9.794   0.003  -0.000  15.222   0.004
  0.055  -0.032  -0.000   0.003   9.797  -0.000   0.004  15.228
 -0.000   0.000   0.007   0.000  -0.000   0.011   0.000  -0.000
 -0.000   0.000  -0.020  -0.000   0.000  -0.031  -0.000   0.000
 -0.003   0.004   0.000  -0.023  -0.004   0.000  -0.035  -0.006
  0.003  -0.002   0.000   0.008  -0.020   0.000   0.013  -0.031
 -0.000   0.000   0.000  -0.000   0.008   0.000  -0.000   0.013
 total augmentation occupancy for first ion, spin component:           1
  2.025  -0.015   0.000   0.238  -0.089  -0.000  -0.042   0.017   0.000  -0.000   0.022   0.002   0.001
 -0.015   0.009   0.000  -0.073   0.027  -0.000   0.019  -0.006  -0.000   0.000  -0.002   0.001  -0.001
  0.000   0.000   1.497  -0.000   0.000  -0.402   0.000  -0.000   0.124  -0.043  -0.000  -0.000  -0.000
  0.238  -0.073  -0.000   1.844   0.003   0.000  -0.486  -0.015   0.000  -0.000  -0.268  -0.020  -0.000
 -0.089   0.027   0.000   0.003   1.475  -0.000  -0.016  -0.389  -0.000   0.000  -0.080  -0.045  -0.007
 -0.000  -0.000  -0.402   0.000  -0.000   0.117  -0.000   0.000  -0.033   0.012  -0.000   0.000   0.000
 -0.042   0.019   0.000  -0.486  -0.016  -0.000   0.140   0.008  -0.000   0.000   0.074   0.005   0.000
  0.017  -0.006  -0.000  -0.015  -0.389   0.000   0.008   0.111  -0.000   0.000   0.021   0.012   0.002
  0.000  -0.000   0.124   0.000  -0.000  -0.033  -0.000  -0.000   0.075   0.001  -0.000  -0.000   0.000
 -0.000   0.000  -0.043  -0.000   0.000   0.012   0.000   0.000   0.001   0.021   0.000   0.000  -0.000
  0.022  -0.002  -0.000  -0.268  -0.080  -0.000   0.074   0.021  -0.000   0.000   0.077   0.006   0.002
  0.002   0.001  -0.000  -0.020  -0.045   0.000   0.005   0.012  -0.000   0.000   0.006   0.022   0.001
  0.001  -0.001  -0.000  -0.000  -0.007   0.000   0.000   0.002   0.000  -0.000   0.002   0.001   0.017


------------------------ aborting loop because EDIFF is reached ----------------------------------------


    CHARGE:  cpu time    0.1715: real time    0.1716
    FORLOC:  cpu time    0.0017: real time    0.0017
    FORNL :  cpu time    0.3191: real time    0.3193
    STRESS:  cpu time    0.6599: real time    0.6618
    FORCOR:  cpu time    0.0409: real time    0.0410
    FORHAR:  cpu time    0.0102: real time    0.0102
    MIXING:  cpu time    0.0009: real time    0.0009
    OFIELD:  cpu time    0.0000: real time    0.0000

  FORCE on cell =-STRESS in cart. coord.  units (eV):
  Direction    XX          YY          ZZ          XY          YZ          ZX
  --------------------------------------------------------------------------------------
  Alpha Z     9.45693     9.45693     9.45693
  Ewald    1597.03682  1602.47831 -2054.09897     0.00000     0.00000    -0.00008
  Hartree  1719.11873  1720.81318 -1672.06183     0.00000    -0.00000    -0.00001
  E(xc)     -77.62580   -77.63229   -78.85975    -0.00000    -0.00000     0.00000
  Local   -3568.83761 -3575.32184  3471.44112    -0.00000    -0.00000     0.00009
  n-local   162.34994   162.57324   167.22135     0.00000     0.00000    -0.00001
  augment   -31.87448   -31.80426   -32.81334    -0.00000    -0.00000    -0.00000
  Kinetic   190.26591   189.18686   189.71220    -0.00000    -0.00000     0.00001
  Fock        0.00000     0.00000     0.00000     0.00000     0.00000     0.00000
  -------------------------------------------------------------------------------------
  Total      -0.10957    -0.24986    -0.00229     0.00000    -0.00000    -0.00000
  in kB      -0.46428    -1.05875    -0.00970     0.00000    -0.00000    -0.00000
  external pressure =       -0.51 kB  Pullay stress =        0.00 kB


 VOLUME and BASIS-vectors are now :
 -----------------------------------------------------------------------------
  energy-cutoff  :      600.00
  volume of cell :      378.10
      direct lattice vectors                 reciprocal lattice vectors
     4.382356765  0.000000000  0.000000000     0.228187720  0.000000000  0.000000000
     0.000000000  4.313940246  0.000000000     0.000000000  0.231806641  0.000000000
     0.000000000  0.000000000 20.000000000     0.000000000  0.000000000  0.050000000

  length of vectors
     4.382356765  4.313940246 20.000000000     0.228187720  0.231806641  0.050000000


 FORCES acting on ions
    electron-ion (+dipol)            ewald-force                    non-local-force                 convergence-correction
 -----------------------------------------------------------------------------------------------
   0.425E+01 -.385E-06 -.143E+03   -.577E+01 0.333E-06 0.147E+03   0.152E+01 0.704E-07 -.381E+01   -.996E-04 -.131E-07 0.298E-03
   0.425E+01 0.127E-05 0.143E+03   -.577E+01 -.151E-05 -.147E+03   0.152E+01 0.231E-06 0.381E+01   -.983E-04 -.484E-09 -.247E-03
   -.532E+01 0.148E-06 -.205E+03   0.577E+01 -.255E-06 0.207E+03   -.451E+00 0.285E-08 -.205E+01   -.241E-03 0.574E-07 0.161E-03
   -.532E+01 -.126E-05 0.205E+03   0.577E+01 0.144E-05 -.207E+03   -.451E+00 -.106E-06 0.205E+01   -.236E-03 -.550E-07 -.574E-04
 -----------------------------------------------------------------------------------------------
   -.213E+01 -.226E-06 -.172E-03   -.533E-14 -.216E-16 0.284E-13   0.213E+01 0.198E-06 0.250E-04   -.675E-03 -.112E-07 0.155E-03
 
 
 POSITION                                       TOTAL-FORCE (eV/Angst)
 -----------------------------------------------------------------------------------
      2.55052      3.23546     11.37277         0.000150      0.000000      0.000250
      0.35934      1.07849      8.62723         0.000151     -0.000000     -0.000282
      0.14071      1.07849     11.34144        -0.000151     -0.000000     -0.000706
      2.33188      3.23546      8.65856        -0.000151      0.000000      0.000739
 -----------------------------------------------------------------------------------
    total drift:                               -0.000283     -0.000000      0.000008


--------------------------------------------------------------------------------------------------------



  FREE ENERGIE OF THE ION-ELECTRON SYSTEM (eV)
  ---------------------------------------------------
  free  energy   TOTEN  =       -16.26377765 eV

  energy  without entropy=      -16.26377765  energy(sigma->0) =      -16.26377765
 
 d Force = 0.3895916E-06[ 0.865E-07, 0.693E-06]  d Energy =-0.9182907E-07 0.481E-06
 d Force = 0.7061314E-01[ 0.706E-01, 0.706E-01]  d Ewald  = 0.7061314E-01-0.909E-11


--------------------------------------------------------------------------------------------------------


    POTLOK:  cpu time    0.0421: real time    0.0421


--------------------------------------------------------------------------------------------------------


 Conjugate gradient step on ions:
 trial-energy change:    0.000000  1 .order   -0.000000   -0.000001   -0.000000
  (g-gl).g =-0.173E-06      g.g   = 0.245E-06  gl.gl    = 0.625E-05
 g(Force)  = 0.245E-06   g(Stress)= 0.000E+00 ortho     =-0.283E-07
 gamma     =  -0.02774
 trial     =   2.81600
 opt step  =   3.21786  (harmonic =   3.21786) maximal distance =0.00025270
 next E    =   -16.263778   (d E  =  -0.00000)


--------------------------------------------------------------------------------------------------------


  
 reached required accuracy - stopping structural energy minimisation
 writing wavefunctions
     LOOP+:  cpu time    7.6338: real time    8.1268
    4ORBIT:  cpu time    0.0000: real time    0.0000

 total amount of memory used by VASP MPI-rank0    63318. kBytes
=======================================================================

   base      :      30000. kBytes
   nonl-proj :      12514. kBytes
   fftplans  :       2678. kBytes
   grid      :       4349. kBytes
   one-center:          8. kBytes
   wavefun   :      13769. kBytes
 
  
  
 General timing and accounting informations for this job:
 ========================================================
  
                  Total CPU time used (sec):      155.325
                            User time (sec):      154.421
                          System time (sec):        0.904
                         Elapsed time (sec):      163.604
  
                   Maximum memory used (kb):      217848.
                   Average memory used (kb):           0.
  
                          Minor page faults:       133536
                          Major page faults:          130
                 Voluntary context switches:        10851
