Si_2x2x2                                
           1
    10.937455    0.000000    0.000000
     0.000000   10.937455    0.000000
     0.000000    0.000000   10.937455
   Si
  64
Direct configuration=     1
   0.22590016  0.22937006  0.97120966
   0.23056169  0.20962025  0.45751754
   0.17208435  0.66813837  0.96591694
   0.20722756  0.73218632  0.52174929
   0.72970828  0.23567251  0.03863834
   0.74881159  0.25609287  0.48944311
   0.69547378  0.75946135  0.00428295
   0.78688276  0.75737845  0.44076206
   0.38627411  0.00015628  0.23416003
   0.25980451  0.96942207  0.76543328
   0.23368473  0.50290902  0.23744735
   0.23852532  0.44846045  0.71158211
   0.72070732  0.98296855  0.39326674
   0.80209196  0.06222740  0.83949600
   0.77900292  0.54830388  0.26676049
   0.76484112  0.47155375  0.77207807
   0.00501110  0.31442773  0.23429427
   0.99272789  0.23840583  0.74723853
   0.01996728  0.79108603  0.15941089
   0.92487840  0.79343620  0.76844952
   0.45364624  0.22691428  0.26758894
   0.52648684  0.19902418  0.74230256
   0.47659889  0.73186708  0.27072866
   0.45044821  0.69112495  0.75426130
   0.04138742  0.00060396  0.05831033
   0.01258948  0.01520777  0.49857026
   0.99116248  0.52288315  0.95305874
   0.96193893  0.51578024  0.49364960
   0.50552507  0.95828014  0.02601162
   0.54040146  0.02978835  0.59195254
   0.47273208  0.49262976  0.99984572
   0.50613034  0.47273666  0.48683137
   0.10599557  0.14035346  0.30480239
   0.10058841  0.09778676  0.86013366
   0.09020082  0.65729940  0.33165999
   0.09950354  0.62637099  0.74339908
   0.59088639  0.15598269  0.43967174
   0.59910067  0.10560138  0.92677596
   0.61392021  0.62435527  0.36638637
   0.63149204  0.58825539  0.86526119
   0.15237718  0.39883980  0.07274709
   0.10809239  0.35624022  0.56229598
   0.24260772  0.87174173  0.07932918
   0.08698355  0.86628303  0.68999887
   0.69766585  0.49488668  0.05642451
   0.66293389  0.38576254  0.63150549
   0.59160920  0.88387676  0.21353853
   0.67209232  0.90904791  0.70197493
   0.42942768  0.16076891  0.05640908
   0.34133685  0.08619520  0.58586216
   0.36274725  0.62405336  0.10417011
   0.35765345  0.59357737  0.57202148
   0.89093033  0.13599129  0.20018458
   0.84955574  0.10969181  0.62199197
   0.87688793  0.66688032  0.10118229
   0.84360536  0.61941454  0.64334454
   0.35070504  0.38656413  0.38937198
   0.34126939  0.34603679  0.85692438
   0.46020292  0.87512031  0.43394797
   0.41385434  0.87904269  0.86170303
   0.85028108  0.38857752  0.37105816
   0.87671333  0.35557177  0.90293698
   0.96518226  0.88488502  0.33783294
   0.88038304  0.89682706  0.95290459
Direct configuration=     2
   0.22769617  0.22825814  0.97049604
   0.23210401  0.20547095  0.46029521
   0.16966408  0.66741734  0.96431872
   0.20543603  0.73216559  0.52020817
   0.73004369  0.23560849  0.04207833
   0.74761184  0.25606544  0.48697933
   0.69493140  0.75972497  0.00477059
   0.78636549  0.75644551  0.44104512
   0.39242942 -0.00023700  0.23563463
   0.26012868  0.96931066  0.76842007
   0.23547027  0.50533063  0.23941187
   0.23799273  0.44719372  0.71141482
   0.71758464  0.98161101  0.39761578
   0.80474070  0.06493122  0.84061405
   0.77906160  0.54916045  0.26610941
   0.76343216  0.47211899  0.76982105
   0.00422221  0.31564735  0.23536686
   0.99252461  0.23753613  0.74654878
   0.02297151  0.78857827  0.15444742
   0.92147562  0.79541428  0.76873925
   0.45269150  0.22242134  0.26707840
   0.52773178  0.19728049  0.74009429
   0.47648154  0.73043220  0.27031527
   0.45043084  0.69096620  0.75680459
   0.04293553  0.00235663  0.05920670
   0.01252948  0.01996742  0.50050188
   0.99180033  0.52450774  0.94918641
   0.96319878  0.51817862  0.49430621
   0.50656780  0.95700391  0.02698400
   0.54220470  0.03170303  0.59893713
   0.47548293  0.49128432  0.99965595
   0.50794601  0.47134551  0.48718613
   0.10382597  0.13972283  0.30512763
   0.09940192  0.09852474  0.85781643
   0.08766226  0.65835810  0.33167859
   0.09923562  0.62583340  0.74058184
   0.59145489  0.15841371  0.44110761
   0.59703625  0.10673700  0.92479351
   0.61271507  0.62350890  0.36731626
   0.62964541  0.58920452  0.86798858
   0.15143083  0.39970567  0.06904607
   0.10506675  0.35370487  0.56106386
   0.24769226  0.86933210  0.07692298
   0.08594619  0.86431919  0.69104441
   0.69854117  0.49782041  0.05421007
   0.65900166  0.38452168  0.63190582
   0.59033959  0.88340588  0.21773899
   0.67338949  0.91228051  0.70326495
   0.43213306  0.16397509  0.05555970
   0.34119923  0.08696359  0.58290400
   0.36081511  0.62466801  0.10183274
   0.35944865  0.59104974  0.57013649
   0.88907803  0.13782309  0.20138153
   0.84817349  0.10753880  0.62061374
   0.87565311  0.66882455  0.10034431
   0.84357140  0.62086101  0.64261854
   0.35313399  0.38714842  0.39093277
   0.34042962  0.34593938  0.85471359
   0.46056245  0.87563512  0.43594069
   0.41475623  0.87818183  0.85875185
   0.84911525  0.38728802  0.37215149
   0.87924085  0.35234156  0.90348405
   0.96575502  0.88584197  0.34028889
   0.87866111  0.89532675  0.95214554
Direct configuration=     3
   0.22946474  0.22690344  0.97018528
   0.23345749  0.20193286  0.46281726
   0.16750175  0.66689212  0.96287177
   0.20352511  0.73228448  0.51859703
   0.73064301  0.23577397  0.04548498
   0.74704521  0.25619226  0.48523988
   0.69463049  0.76014178  0.00536570
   0.78567831  0.75543045  0.44142064
   0.39837068 -0.00050889  0.23722098
   0.25979340  0.96978941  0.77085012
   0.23739334  0.50779992  0.24125074
   0.23725041  0.44633909  0.71071691
   0.71447405  0.98002385  0.40170734
   0.80716432  0.06766072  0.84145929
   0.77899261  0.55010947  0.26500353
   0.76246296  0.47293488  0.76784654
   0.00346486  0.31686714  0.23636408
   0.99209126  0.23686891  0.74546952
   0.02668168  0.78635935  0.14978333
   0.91754095  0.79690631  0.76904104
   0.45176350  0.21787716  0.26677744
   0.52876875  0.19612744  0.73792853
   0.47568984  0.72870858  0.26959806
   0.45065788  0.69049650  0.75928690
   0.04442645  0.00429024  0.06011666
   0.01261048  0.02456708  0.50243464
   0.99264171  0.52627766  0.94571351
   0.96474124  0.52049352  0.49487822
   0.50750175  0.95538790  0.02816445
   0.54379937  0.03366671  0.60583403
   0.47838357  0.48951445  0.99911549
   0.51044541  0.47020518  0.48779667
   0.10172920  0.13879224  0.30556347
   0.09852415  0.09895362  0.85582919
   0.08527089  0.65930030  0.33206497
   0.09900361  0.62530658  0.73798888
   0.59129415  0.16034343  0.44175862
   0.59540217  0.10835838  0.92251719
   0.61187849  0.62253740  0.36854755
   0.62735770  0.59065638  0.87067430
   0.15005824  0.40069784  0.06562323
   0.10207788  0.35110776  0.56023799
   0.25244549  0.86688170  0.07450162
   0.08574240  0.86258530  0.69128269
   0.69925106  0.50025232  0.05239864
   0.65433294  0.38265666  0.63179845
   0.58958910  0.88336729  0.22185019
   0.67503647  0.91530925  0.70476698
   0.43441810  0.16729398  0.05479482
   0.34108678  0.08723562  0.58059934
   0.35852937  0.62556686  0.09988152
   0.36096793  0.58874560  0.56886223
   0.88714590  0.13947603  0.20240529
   0.84685001  0.10544824  0.61924601
   0.87389637  0.67012391  0.09926649
   0.84376176  0.62265206  0.64179733
   0.35508867  0.38721780  0.39195633
   0.34049350  0.34596077  0.85236975
   0.46075104  0.87616305  0.43784173
   0.41591126  0.87715608  0.85605376
   0.84843404  0.38622671  0.37285140
   0.88164314  0.34890893  0.90393100
   0.96609529  0.88679951  0.34291870
   0.87687633  0.89360443  0.95147981
Direct configuration=     4
   0.23117730  0.22535998  0.97022541
   0.23444344  0.19919800  0.46484227
   0.16561898  0.66658175  0.96158019
   0.20156985  0.73246074  0.51694606
   0.73148310  0.23613519  0.04880416
   0.74716544  0.25646106  0.48429367
   0.69452517  0.76075729  0.00604970
   0.78485166  0.75437145  0.44184543
   0.40408050 -0.00065724  0.23887321
   0.25885655  0.97076929  0.77270825
   0.23939112  0.51028142  0.24291126
   0.23628764  0.44589106  0.70945383
   0.71134089  0.97817149  0.40558656
   0.80937877  0.07044076  0.84207010
   0.77879218  0.55110943  0.26352155
   0.76186773  0.47396687  0.76619163
   0.00274333  0.31808436  0.23726314
   0.99142430  0.23638925  0.74398696
   0.03100363  0.78442895  0.14545274
   0.91316094  0.79794258  0.76919920
   0.45084097  0.21335261  0.26674496
   0.52957388  0.19570756  0.73589312
   0.47424163  0.72673518  0.26862975
   0.45111056  0.68969376  0.76167343
   0.04580211  0.00638101  0.06104538
   0.01283637  0.02896712  0.50433042
   0.99358867  0.52811145  0.94260961
   0.96650788  0.52266647  0.49532011
   0.50833737  0.95355047  0.02946382
   0.54508655  0.03571031  0.61242465
   0.48127770  0.48738379  0.99832274
   0.51362219  0.46934004  0.48865464
   0.09971114  0.13760363  0.30612620
   0.09795639  0.09908678  0.85422074
   0.08303748  0.66012280  0.33276942
   0.09881042  0.62479619  0.73559859
   0.59026908  0.16163952  0.44170020
   0.59418717  0.11038223  0.92008597
   0.61142411  0.62144286  0.37003751
   0.62477282  0.59253541  0.87314624
   0.14834522  0.40182768  0.06255880
   0.09916001  0.34845123  0.55979796
   0.25693643  0.86439198  0.07205937
   0.08628124  0.86104976  0.69082798
   0.69985278  0.50215771  0.05104942
   0.64905278  0.38018394  0.63129600
   0.58937542  0.88375174  0.22590379
   0.67712070  0.91806550  0.70651628
   0.43635147  0.17063195  0.05410668
   0.34123239  0.08680709  0.57911154
   0.35597595  0.62667385  0.09825905
   0.36211426  0.58671330  0.56817808
   0.88512727  0.14096412  0.20325032
   0.84555079  0.10344748  0.61790952
   0.87169577  0.67083695  0.09800451
   0.84414899  0.62476868  0.64092355
   0.35653579  0.38667938  0.39241393
   0.34142686  0.34605700  0.84994458
   0.46081720  0.87667451  0.43962507
   0.41730433  0.87608471  0.85365890
   0.84829649  0.38555712  0.37309826
   0.88386461  0.34540733  0.90424377
   0.96622565  0.88771329  0.34562663
   0.87505057  0.89175080  0.95103322
Direct configuration=     5
   0.23282004  0.22369827  0.97055172
   0.23491289  0.19742201  0.46619019
   0.16403647  0.66651112  0.96044900
   0.19963133  0.73263465  0.51528817
   0.73254045  0.23665809  0.05198909
   0.74791131  0.25680487  0.48413657
   0.69456322  0.76160599  0.00679824
   0.78391045  0.75329490  0.44229403
   0.40949899 -0.00070217  0.24054802
   0.25744022  0.97213858  0.77400219
   0.24139583  0.51274707  0.24435788
   0.23512549  0.44583612  0.70763626
   0.70814765  0.97603964  0.40930111
   0.81141428  0.07326778  0.84250874
   0.77845829  0.55212254  0.26174044
   0.76152992  0.47515609  0.76483048
   0.00208513  0.31927050  0.23803880
   0.99053685  0.23606628  0.74211554
   0.03580799  0.78272978  0.14142289
   0.90847560  0.79858203  0.76903903
   0.44990876  0.20892405  0.26700972
   0.53011326  0.19618482  0.73409810
   0.47222411  0.72457196  0.26747367
   0.45174414  0.68858275  0.76395686
   0.04701832  0.00860700  0.06199209
   0.01320579  0.03313399  0.50615799
   0.99454509  0.52992833  0.93983050
   0.96846698  0.52466074  0.49558761
   0.50908774  0.95160250  0.03082713
   0.54601695  0.03777550  0.61850691
   0.48401440  0.48494590  0.99737119
   0.51734900  0.46875893  0.48971394
   0.09777429  0.13620985  0.30681173
   0.09766797  0.09896652  0.85302258
   0.08095656  0.66081573  0.33374049
   0.09865607  0.62430509  0.73338134
   0.58839655  0.16226910  0.44102934
   0.59337107  0.11273346  0.91764077
   0.61133328  0.62026763  0.37171120
   0.62204167  0.59478081  0.87527910
   0.14636510  0.40308122  0.05990582
   0.09633374  0.34573247  0.55970317
   0.26123015  0.86186770  0.06960342
   0.08739956  0.85965610  0.68980804
   0.70039281  0.50352036  0.05018846
   0.64335095  0.37716367  0.63058462
   0.58970108  0.88447520  0.22992061
   0.67972328  0.92051120  0.70852245
   0.43801166  0.17392478  0.05349758
   0.34181172  0.08552776  0.57856910
   0.35324407  0.62791992  0.09690385
   0.36283616  0.58494295  0.56803940
   0.88301600  0.14230225  0.20390954
   0.84424391  0.10155460  0.61662476
   0.86918780  0.67106008  0.09662440
   0.84469844  0.62718550  0.64003022
   0.35751810  0.38550821  0.39233799
   0.34317191  0.34618114  0.84748233
   0.46079370  0.87713851  0.44125257
   0.41888221  0.87505827  0.85156405
   0.84873078  0.38539574  0.37286449
   0.88587362  0.34194281  0.90440642
   0.96615765  0.88856505  0.34835741
   0.87319120  0.88987573  0.95091861
Direct configuration=     6
   0.23439521  0.22199353  0.97110035
   0.23479514  0.19665701  0.46678603
   0.16277330  0.66670596  0.95947578
   0.19777546  0.73276572  0.51366868
   0.73378952  0.23732643  0.05499256
   0.74913483  0.25712900  0.48471088
   0.69468101  0.76271318  0.00758347
   0.78287200  0.75219967  0.44275807
   0.41455741 -0.00067841  0.24221480
   0.25569000  0.97379126  0.77474693
   0.24333464  0.51517962  0.24556753
   0.23380357  0.44614977  0.70531092
   0.70487235  0.97363738  0.41289457
   0.81331403  0.07612130  0.84284555
   0.77798879  0.55311819  0.25973801
   0.76131514  0.47642911  0.76371242
   0.00153084  0.32038108  0.23866012
   0.98944985  0.23585782  0.73988363
   0.04095636  0.78118901  0.13762659
   0.90363739  0.79890301  0.76841527
   0.44895602  0.20468457  0.26756370
   0.53033661  0.19772708  0.73265808
   0.46977175  0.72229016  0.26619334
   0.45248655  0.68718528  0.76610264
   0.04804823  0.01093640  0.06296524
   0.01371749  0.03703349  0.50788984
   0.99541772  0.53165356  0.93733125
   0.97059949  0.52644718  0.49565171
   0.50977074  0.94961883  0.03221760
   0.54658953  0.03972091  0.62391742
   0.48645874  0.48224584  0.99634373
   0.52138407  0.46843892  0.49086660
   0.09592614  0.13466274  0.30760478
   0.09761285  0.09865817  0.85225114
   0.07901900  0.66136328  0.33492332
   0.09853854  0.62383602  0.73131668
   0.58581870  0.16229187  0.43986423
   0.59293326  0.11534874  0.91530840
   0.61157756  0.61909056  0.37347279
   0.61931643  0.59733326  0.87700192
   0.14418922  0.40443794  0.05770855
   0.09360463  0.34296191  0.55991461
   0.26536694  0.85931413  0.06714174
   0.08891290  0.85833777  0.68833795
   0.70090686  0.50432867  0.04980650
   0.63746144  0.37366239  0.62987742
   0.59055911  0.88540278  0.23391148
   0.68289233  0.92264146  0.71076517
   0.43946582  0.17714328  0.05296722
   0.34288673  0.08334282  0.57900200
   0.35041002  0.62924275  0.09575307
   0.36312420  0.58342863  0.56841453
   0.88081937  0.14350407  0.20439199
   0.84289103  0.09977878  0.61540365
   0.86654716  0.67090002  0.09519015
   0.84537172  0.62985857  0.63913217
   0.35814162  0.38373779  0.39180892
   0.34564665  0.34629036  0.84501573
   0.46068475  0.87753092  0.44270075
   0.42058567  0.87414940  0.84975235
   0.84972514  0.38581056  0.37215992
   0.88764499  0.33860570  0.90441541
   0.96590501  0.88935859  0.35108129
   0.87131040  0.88809420  0.95121083
Direct configuration=     7
   0.23593403  0.22037418  0.97184952
   0.23414455  0.19686094  0.46668531
   0.16182888  0.66717572  0.95866670
   0.19606780  0.73278485  0.51208731
   0.73520584  0.23812438  0.05776533
   0.75067828  0.25736224  0.48585470
   0.69479984  0.76407805  0.00835488
   0.78173963  0.75103295  0.44325416
   0.41919460 -0.00063228  0.24389939
   0.25381609  0.97568782  0.77502073
   0.24510602  0.51754652  0.24651031
   0.23235940  0.44676999  0.70252685
   0.70155020  0.97097172  0.41639309
   0.81507386  0.07898414  0.84314044
   0.77739239  0.55407240  0.25759279
   0.76106893  0.47772224  0.76278985
   0.00115849  0.32138768  0.23903602
   0.98819009  0.23573034  0.73733597
   0.04636272  0.77979289  0.13405255
   0.89880829  0.79903552  0.76725519
   0.44795725  0.20074213  0.26837131
   0.53018093  0.20046891  0.73168969
   0.46704060  0.71996745  0.26486037
   0.45325044  0.68550154  0.76804085
   0.04886409  0.01333209  0.06397882
   0.01432018  0.04062962  0.50948994
   0.99612804  0.53325940  0.93508848
   0.97299067  0.52805857  0.49543758
   0.51040236  0.94769264  0.03357243
   0.54681495  0.04136783  0.62857375
   0.48855748  0.47928597  0.99531540
   0.52542669  0.46834528  0.49196266
   0.09416089  0.13299572  0.30845909
   0.09773906  0.09823833  0.85192436
   0.07720860  0.66167236  0.33633783
   0.09845644  0.62339574  0.72938035
   0.58274899  0.16187346  0.43834469
   0.59289058  0.11813441  0.91316782
   0.61212636  0.61801806  0.37521557
   0.61674123  0.60017617  0.87826285
   0.14188724  0.40581377  0.05603626
   0.09099064  0.34017873  0.56041080
   0.26934104  0.85672706  0.06469471
   0.09057144  0.85695762  0.68651421
   0.70141056  0.50456120  0.04986164
   0.63162181  0.36978074  0.62942218
   0.59195814  0.88638224  0.23789934
   0.68664678  0.92449193  0.71322928
   0.44072909  0.18030182  0.05247434
   0.34440304  0.08029307  0.58030258
   0.34751090  0.63061276  0.09477378
   0.36298360  0.58219615  0.56929082
   0.87854371  0.14456867  0.20470361
   0.84144713  0.09808147  0.61422766
   0.86393345  0.67042389  0.09374386
   0.84611353  0.63274862  0.63819302
   0.35854225  0.38141080  0.39092513
   0.34873493  0.34628023  0.84254339
   0.46043585  0.87787279  0.44398331
   0.42237415  0.87341897  0.84820863
   0.85118178  0.38677807  0.37104215
   0.88917464  0.33544817  0.90429872
   0.96553292  0.89013286  0.35374803
   0.86944561  0.88652036  0.95192764
Direct configuration=     8
   0.23744551  0.21894259  0.97275463
   0.23307993  0.19792633  0.46600278
   0.16121985  0.66792252  0.95799380
   0.19453734  0.73268897  0.51061518
   0.73675885  0.23908660  0.06027894
   0.75234812  0.25742551  0.48747253
   0.69482639  0.76573684  0.00909464
   0.78050854  0.74979725  0.44378602
   0.42334199 -0.00061530  0.24559541
   0.25194694  0.97770183  0.77484626
   0.24665193  0.51984120  0.24726510
   0.23085951  0.44761494  0.69937325
   0.69820355  0.96804416  0.41984853
   0.81669629  0.08183540  0.84343536
   0.77665326  0.55494344  0.25536340
   0.76068753  0.47899397  0.76201431
   0.00101126  0.32226226  0.23911916
   0.98679122  0.23562814  0.73453358
   0.05188487  0.77850174  0.13066420
   0.89409825  0.79909355  0.76556419
   0.44691905  0.19722275  0.26941193
   0.52956644  0.20447884  0.73125347
   0.46417999  0.71766319  0.26355043
   0.45392422  0.68358258  0.76969720
   0.04944731  0.01576069  0.06504465
   0.01502243  0.04387394  0.51095997
   0.99660599  0.53472244  0.93304204
   0.97563507  0.52947362  0.49497452
   0.51102313  0.94587890  0.03481444
   0.54672747  0.04258263  0.63244962
   0.49027772  0.47610842  0.99435698
   0.52919509  0.46846291  0.49285415
   0.09247467  0.13123754  0.30934513
   0.09798854  0.09778127  0.85202758
   0.07557163  0.66172786  0.33791207
   0.09838775  0.62302353  0.72757843
   0.57937921  0.16114223  0.43657481
   0.59324155  0.12099484  0.91130728
   0.61294164  0.61713753  0.37683163
   0.61445672  0.60323520  0.87906703
   0.13952535  0.40714741  0.05488701
   0.08849744  0.33742632  0.56114686
   0.27316440  0.85410826  0.06225375
   0.09228000  0.85545572  0.68436735
   0.70192457  0.50417236  0.05032740
   0.62609058  0.36556667  0.62939082
   0.59389575  0.88724224  0.24188155
   0.69098733  0.92611459  0.71589871
   0.44183425  0.18339771  0.05201700
   0.34622643  0.07649010  0.58231770
   0.34460758  0.63197098  0.09391388
   0.36245717  0.58126132  0.57063015
   0.87620415  0.14548741  0.20486472
   0.83988111  0.09647971  0.61310290
   0.86151381  0.66971727  0.09231978
   0.84688674  0.63575880  0.63719335
   0.35881241  0.37861471  0.38974910
   0.35229778  0.34610228  0.84006098
   0.46003773  0.87816221  0.44510299
   0.42417789  0.87292176  0.84689515
   0.85302001  0.38829090  0.36957999
   0.89045445  0.33252440  0.90406812
   0.96507514  0.89092651  0.35634513
   0.86763119  0.88519751  0.95301100
Direct configuration=     9
   0.23894726  0.21780634  0.97376680
   0.23177134  0.19968978  0.46489588
   0.16098030  0.66894151  0.95741957
   0.19319828  0.73247713  0.50929398
   0.73842389  0.24025264  0.06252593
   0.75398782  0.25729530  0.48946715
   0.69465886  0.76771980  0.00979575
   0.77918653  0.74852059  0.44436387
   0.42694108 -0.00071303  0.24731143
   0.25021125  0.97971015  0.77425348
   0.24792893  0.52204863  0.24790814
   0.22937561  0.44857793  0.69595935
   0.69486025  0.96487877  0.42332122
   0.81817382  0.08466002  0.84375833
   0.77576696  0.55568691  0.25314487
   0.76010850  0.48020438  0.76135456
   0.00113071  0.32297199  0.23885973
   0.98528088  0.23548618  0.73154082
   0.05742153  0.77730665  0.12746074
   0.88958067  0.79919011  0.76339819
   0.44583329  0.19426239  0.27062538
   0.52841149  0.20963637  0.73136725
   0.46132268  0.71544204  0.26234691
   0.45437613  0.68152000  0.77100760
   0.04977960  0.01818841  0.06617486
   0.01582811  0.04673544  0.51230575
   0.99678841  0.53600921  0.93113192
   0.97852032  0.53067207  0.49431051
   0.51169677  0.94422126  0.03586369
   0.54635748  0.04334980  0.63560587
   0.49162393  0.47274918  0.99351300
   0.53244632  0.46877772  0.49342402
   0.09086331  0.12940702  0.31024363
   0.09829678  0.09737010  0.85253698
   0.07414481  0.66155336  0.33957505
   0.09830069  0.62275333  0.72591871
   0.57589886  0.16018491  0.43467336
   0.59398580  0.12383807  0.90978042
   0.61397832  0.61651394  0.37822037
   0.61260529  0.60641896  0.87945901
   0.13715713  0.40838623  0.05425440
   0.08613047  0.33475636  0.56207980
   0.27684345  0.85146551  0.05980651
   0.09397351  0.85380748  0.68191655
   0.70243752  0.50311329  0.05114527
   0.62111614  0.36110129  0.62985030
   0.59635556  0.88782012  0.24585335
   0.69590936  0.92755792  0.71877383
   0.44280173  0.18643544  0.05162006
   0.34816998  0.07209882  0.58485052
   0.34174035  0.63326433  0.09312139
   0.36160766  0.58062691  0.57236249
   0.87380583  0.14625761  0.20489989
   0.83818994  0.09499455  0.61203109
   0.85942895  0.66885204  0.09092538
   0.84765598  0.63877187  0.63608630
   0.35903279  0.37545108  0.38833938
   0.35618019  0.34573036  0.83755507
   0.45947605  0.87839832  0.44606048
   0.42593334  0.87268459  0.84574311
   0.85512424  0.39031572  0.36787301
   0.89148068  0.32987570  0.90372534
   0.96455445  0.89176049  0.35886980
   0.86590190  0.88415858  0.95437256
Direct configuration=    10
   0.24044709  0.21702325  0.97482378
   0.23037210  0.20193724  0.46350937
   0.16119432  0.67023102  0.95692962
   0.19208839  0.73216245  0.50817084
   0.74016823  0.24166369  0.06448544
   0.75548176  0.25699827  0.49173909
   0.69418162  0.77000016  0.01046088
   0.77782525  0.74729038  0.44497616
   0.42998496 -0.00105807  0.24907394
   0.24871942  0.98159732  0.77326573
   0.24892489  0.52413988  0.24849665
   0.22793131  0.44955442  0.69239480
   0.69153016  0.96155936  0.42690102
   0.81953410  0.08744361  0.84413921
   0.77474016  0.55626376  0.25109467
   0.75933761  0.48132468  0.76078944
   0.00155316  0.32345364  0.23822166
   0.98369258  0.23524917  0.72845540
   0.06290192  0.77620843  0.12446861
   0.88531378  0.79945226  0.76085819
   0.44466708  0.19200141  0.27191470
   0.52661412  0.21560245  0.73203947
   0.45856490  0.71338361  0.26134313
   0.45446079  0.67942090  0.77192080
   0.04985224  0.02060077  0.06737097
   0.01676619  0.04919278  0.51352108
   0.99657352  0.53704526  0.92931489
   0.98160584  0.53164003  0.49353809
   0.51250606  0.94273256  0.03671443
   0.54577856  0.04375445  0.63813278
   0.49258878  0.46922740  0.99276770
   0.53499930  0.46926291  0.49362766
   0.08932375  0.12754190  0.31114525
   0.09860399  0.09708865  0.85343823
   0.07290886  0.66123489  0.34121572
   0.09816736  0.62258051  0.72435000
   0.57251706  0.15898808  0.43281308
   0.59510868  0.12659970  0.90861928
   0.61518462  0.61618438  0.37930289
   0.61132622  0.60963805  0.87957252
   0.13482017  0.40951291  0.05413640
   0.08390701  0.33223841  0.56318379
   0.28037354  0.84882368  0.05733355
   0.09559264  0.85202819  0.67920659
   0.70287229  0.50138473  0.05217366
   0.61692828  0.35655431  0.63069451
   0.59927326  0.88800869  0.24975186
   0.70137801  0.92888531  0.72182535
   0.44364328  0.18943928  0.05133856
   0.35001060  0.06727843  0.58767018
   0.33895507  0.63442257  0.09234004
   0.36053786  0.58029618  0.57439354
   0.87139285  0.14686957  0.20485237
   0.83636303  0.09364198  0.61100994
   0.85778899  0.66790149  0.08951523
   0.84840995  0.64161606  0.63482139
   0.35927286  0.37202942  0.38674430
   0.36028984  0.34520118  0.83505270
   0.45870276  0.87857692  0.44683173
   0.42758781  0.87269103  0.84465830
   0.85736004  0.39278928  0.36602613
   0.89223819  0.32755030  0.90325522
   0.96395940  0.89260262  0.36134339
   0.86430154  0.88344183  0.95592409
Direct configuration=    11
   0.24194200  0.21657402  0.97586686
   0.22897612  0.20446047  0.46194843
   0.16191387  0.67175623  0.95649201
   0.19124268  0.73177393  0.50730080
   0.74194588  0.24336133  0.06612233
   0.75675386  0.25652297  0.49419314
   0.69330405  0.77251818  0.01111038
   0.77643679  0.74620463  0.44557878
   0.43251371 -0.00177835  0.25087251
   0.24753253  0.98324510  0.77189588
   0.24964852  0.52608783  0.24907440
   0.22648588  0.45047409  0.68877936
   0.68824201  0.95813872  0.43069184
   0.82082260  0.09016756  0.84460250
   0.77358154  0.55665165  0.24934676
   0.75842016  0.48235672  0.76029195
   0.00227576  0.32363018  0.23718876
   0.98202943  0.23485287  0.72538396
   0.06823511  0.77520577  0.12168525
   0.88136586  0.80001986  0.75812342
   0.44337103  0.19056361  0.27315304
   0.52405212  0.22189625  0.73333740
   0.45596237  0.71153197  0.26062491
   0.45408182  0.67734871  0.77242667
   0.04966738  0.02300243  0.06865056
   0.01789019  0.05123975  0.51459725
   0.99590987  0.53777784  0.92757075
   0.98478569  0.53238525  0.49280503
   0.51350195  0.94140248  0.03741399
   0.54518161  0.04389977  0.64017644
   0.49311224  0.46555341  0.99207112
   0.53671630  0.46986560  0.49350946
   0.08785484  0.12568216  0.31202427
   0.09887604  0.09702471  0.85474211
   0.07184671  0.66089487  0.34270004
   0.09797833  0.62245472  0.72282429
   0.56942188  0.15754061  0.43117191
   0.59658564  0.12927299  0.90783962
   0.61649732  0.61619661  0.38004031
   0.61068785  0.61284108  0.87951480
   0.13253020  0.41056138  0.05452625
   0.08186053  0.32992535  0.56440544
   0.28377641  0.84623816  0.05480584
   0.09712696  0.85017029  0.67627952
   0.70316729  0.49899755  0.05326788
   0.61371303  0.35219646  0.63169270
   0.60255740  0.88774132  0.25348219
   0.70727421  0.93022034  0.72497165
   0.44436248  0.19244106  0.05123210
   0.35154370  0.06216667  0.59056566
   0.33630498  0.63536293  0.09150383
   0.35937327  0.58029010  0.57662033
   0.86905947  0.14730738  0.20478113
   0.83437207  0.09241828  0.61004777
   0.85669600  0.66697027  0.08800306
   0.84917609  0.64403552  0.63333349
   0.35958616  0.36844833  0.38499972
   0.36457105  0.34459416  0.83262144
   0.45766665  0.87868481  0.44741417
   0.42909172  0.87290440  0.84357495
   0.85964004  0.39566069  0.36409843
   0.89272805  0.32557780  0.90265444
   0.96327511  0.89343929  0.36380807
   0.86289759  0.88304884  0.95756663
Direct configuration=    12
   0.24344107  0.21645770  0.97684981
   0.22764058  0.20711972  0.46028548
   0.16309952  0.67342490  0.95597165
   0.19067354  0.73132698  0.50671284
   0.74372611  0.24538105  0.06740987
   0.75776266  0.25586253  0.49672747
   0.69196797  0.77524096  0.01176231
   0.77497939  0.74528170  0.44615411
   0.43458876 -0.00294213  0.25267553
   0.24666106  0.98454022  0.77016920
   0.25010056  0.52785899  0.24969472
   0.22502790  0.45127928  0.68520559
   0.68504262  0.95460873  0.43477672
   0.82207073  0.09282281  0.84517408
   0.77231238  0.55683022  0.24793554
   0.75737545  0.48331702  0.75984611
   0.00327235  0.32345111  0.23574887
   0.98027171  0.23422352  0.72244523
   0.07331448  0.77432707  0.11910280
   0.87781815  0.80099226  0.75539013
   0.44189025  0.19000012  0.27421140
   0.52060226  0.22794520  0.73540571
   0.45354722  0.70987459  0.26024638
   0.45318982  0.67534499  0.77253807
   0.04921801  0.02537128  0.07004519
   0.01920378  0.05287259  0.51554826
   0.99485463  0.53823731  0.92587236
   0.98794677  0.53291638  0.49222844
   0.51468265  0.94023146  0.03798882
   0.54477636  0.04388200  0.64193852
   0.49315156  0.46177337  0.99139166
   0.53750727  0.47051713  0.49317688
   0.08645308  0.12386052  0.31283980
   0.09909794  0.09725316  0.85643273
   0.07099070  0.66060621  0.34393101
   0.09771871  0.62233471  0.72139373
   0.56673396  0.15588094  0.42990028
   0.59839578  0.13185840  0.90743121
   0.61784708  0.61662611  0.38041540
   0.61070478  0.61599273  0.87934181
   0.13029053  0.41154792  0.05540255
   0.08002676  0.32784917  0.56564579
   0.28710109  0.84378865  0.05219590
   0.09860551  0.84828880  0.67317233
   0.70331990  0.49591861  0.05435286
   0.61165902  0.34837831  0.63253642
   0.60615600  0.88697686  0.25695587
   0.71341685  0.93170859  0.72812493
   0.44497272  0.19546252  0.05132173
   0.35261941  0.05688152  0.59336683
   0.33384643  0.63599838  0.09055383
   0.35822263  0.58062607  0.57894705
   0.86687710  0.14756662  0.20473369
   0.83221757  0.09128238  0.60915489
   0.85622389  0.66614873  0.08632575
   0.84998720  0.64581042  0.63154743
   0.35999287  0.36480706  0.38312445
   0.36888661  0.34398445  0.83033194
   0.45634098  0.87872588  0.44784987
   0.43040359  0.87330660  0.84246671
   0.86191602  0.39888269  0.36214936
   0.89298310  0.32397576  0.90194175
   0.96251581  0.89433690  0.36629114
   0.86175880  0.88296321  0.95919121
Direct configuration=    13
   0.24492925  0.21669944  0.97773159
   0.22642768  0.20984183  0.45858633
   0.16468283  0.67511151  0.95518843
   0.19038732  0.73080721  0.50639020
   0.74550065  0.24775177  0.06834054
   0.75848986  0.25508082  0.49923621
   0.69014762  0.77815096  0.01243956