 vasp.5.4.4.18Apr17-6-g9f103f2a35 (build Sep 16 2021 13:51:27) complex          
  
 executed on             LinuxIFC date 2023.02.26  09:55:27
 running on   24 total cores
 distrk:  each k-point on   24 cores,    1 groups
 distr:  one band on NCORES_PER_BAND=  24 cores,    1 groups


--------------------------------------------------------------------------------------------------------


 INCAR:
 POTCAR:    PAW_PBE Sn 08Apr2002                  
 POTCAR:    PAW_PBE Se 06Sep2000                  

 ----------------------------------------------------------------------------- 
|                                                                             |
|           W    W    AA    RRRRR   N    N  II  N    N   GGGG   !!!           |
|           W    W   A  A   R    R  NN   N  II  NN   N  G    G  !!!           |
|           W    W  A    A  R    R  N N  N  II  N N  N  G       !!!           |
|           W WW W  AAAAAA  RRRRR   N  N N  II  N  N N  G  GGG   !            |
|           WW  WW  A    A  R   R   N   NN  II  N   NN  G    G                |
|           W    W  A    A  R    R  N    N  II  N    N   GGGG   !!!           |
|                                                                             |
|      For optimal performance we recommend to set                            |
|        NCORE= 4 - approx SQRT( number of cores)                             |
|      NCORE specifies how many cores store one orbital (NPAR=cpu/NCORE).     |
|      This setting can  greatly improve the performance of VASP for DFT.     |
|      The default,   NCORE=1            might be grossly inefficient         |
|      on modern multi-core architectures or massively parallel machines.     |
|      Do your own testing !!!!                                               |
|      Unfortunately you need to use the default for GW and RPA calculations. |
|      (for HF NCORE is supported but not extensively tested yet)             |
|                                                                             |
 ----------------------------------------------------------------------------- 

 POTCAR:    PAW_PBE Sn 08Apr2002                  
   VRHFIN =Sn: s2p2                                                             
   LEXCH  = PE                                                                  
   EATOM  =    94.0860 eV,    6.9151 Ry                                         
                                                                                
   TITEL  = PAW_PBE Sn 08Apr2002                                                
   LULTRA =        F    use ultrasoft PP ?                                      
   IUNSCR =        1    unscreen: 0-lin 1-nonlin 2-no                           
   RPACOR =    2.000    partial core radius                                     
   POMASS =  118.710; ZVAL   =    4.000    mass and valenz                      
   RCORE  =    3.000    outmost cutoff radius                                   
   RWIGS  =    2.960; RWIGS  =    1.566    wigner-seitz radius (au A)           
   ENMAX  =  103.236; ENMIN  =   77.427 eV                                      
   ICORE  =        3    local potential                                         
   LCOR   =        T    correct aug charges                                     
   LPAW   =        T    paw PP                                                  
   EAUG   =  263.585                                                            
   DEXC   =    0.000                                                            
   RMAX   =    3.078    core radius for proj-oper                               
   RAUG   =    1.300    factor for augmentation sphere                          
   RDEP   =    3.022    radius for radial grids                                 
   RDEPT  =    2.655    core radius for aug-charge                              
                                                                                
   Atomic configuration                                                         
   13 entries                                                                   
     n  l   j            E        occ.                                          
     1  0  0.50    -29007.2859   2.0000                                         
     2  0  0.50     -4378.8056   2.0000                                         
     2  1  1.50     -3930.4293   6.0000                                         
     3  0  0.50      -845.0264   2.0000                                         
     3  1  1.50      -698.5725   6.0000                                         
     3  2  2.50      -473.2839  10.0000                                         
     4  0  0.50      -133.9036   2.0000                                         
     4  1  1.50       -89.6752   6.0000                                         
     4  2  2.50       -25.8375  10.0000                                         
     5  0  0.50       -10.5484   2.0000                                         
     5  1  0.50        -3.6940   2.0000                                         
     5  2  1.50        -1.3606   0.0000                                         
     4  3  2.50        -4.0817   0.0000                                         
   Description                                                                  
     l       E           TYP  RCUT    TYP  RCUT                                 
     0    -10.5483727     23  3.000                                             
     0     27.2116520     23  3.000                                             
     1     -3.6939829     23  3.000                                             
     1      1.9821976     23  3.000                                             
     2     -1.3605826     23  3.000                                             
     3     -2.7211652     23  3.000                                             
  local pseudopotential read in
  partial core-charges read in
  partial kinetic energy density read in
  atomic valenz-charges read in
  non local Contribution for L=           0  read in
    real space projection operators read in
  non local Contribution for L=           0  read in
    real space projection operators read in
  non local Contribution for L=           1  read in
    real space projection operators read in
  non local Contribution for L=           1  read in
    real space projection operators read in
  non local Contribution for L=           2  read in
    real space projection operators read in
    PAW grid and wavefunctions read in
 
   number of l-projection  operators is LMAX  =           5
   number of lm-projection operators is LMMAX =          13
 
 POTCAR:    PAW_PBE Se 06Sep2000                  
   VRHFIN =Se: s2p4                                                             
   LEXCH  = PE                                                                  
   EATOM  =   257.1286 eV,   18.8984 Ry                                         
                                                                                
   TITEL  = PAW_PBE Se 06Sep2000                                                
   LULTRA =        F    use ultrasoft PP ?                                      
   IUNSCR =        1    unscreen: 0-lin 1-nonlin 2-no                           
   RPACOR =    1.900    partial core radius                                     
   POMASS =   78.960; ZVAL   =    6.000    mass and valenz                      
   RCORE  =    2.100    outmost cutoff radius                                   
   RWIGS  =    2.200; RWIGS  =    1.164    wigner-seitz radius (au A)           
   ENMAX  =  211.555; ENMIN  =  158.666 eV                                      
   ICORE  =        3    local potential                                         
   LCOR   =        T    correct aug charges                                     
   LPAW   =        T    paw PP                                                  
   EAUG   =  446.842                                                            
   DEXC   =    0.000                                                            
   RMAX   =    2.147    core radius for proj-oper                               
   RAUG   =    1.300    factor for augmentation sphere                          
   RDEP   =    2.177    radius for radial grids                                 
   RDEPT  =    1.928    core radius for aug-charge                              
                                                                                
   Atomic configuration                                                         
   10 entries                                                                   
     n  l   j            E        occ.                                          
     1  0  0.50    -12503.4787   2.0000                                         
     2  0  0.50     -1606.9547   2.0000                                         
     2  1  1.50     -1413.3140   6.0000                                         
     3  0  0.50      -213.4885   2.0000                                         
     3  1  1.50      -152.9538   6.0000                                         
     3  2  2.50       -53.1221  10.0000                                         
     4  0  0.50       -17.2865   2.0000                                         
     4  1  0.50        -6.5110   4.0000                                         
     4  2  2.50        -6.8029   0.0000                                         
     4  3  2.50        -6.8029   0.0000                                         
   Description                                                                  
     l       E           TYP  RCUT    TYP  RCUT                                 
     0    -17.2865377     23  2.100                                             
     0    -15.3094411     23  2.100                                             
     1     -6.5110275     23  2.100                                             
     1     -0.0695192     23  2.100                                             
     2     -6.8029130     23  2.100                                             
     3     -1.3605826      7  2.100                                             
  local pseudopotential read in
  partial core-charges read in
  partial kinetic energy density read in
  atomic valenz-charges read in
  non local Contribution for L=           0  read in
    real space projection operators read in
  non local Contribution for L=           0  read in
    real space projection operators read in
  non local Contribution for L=           1  read in
    real space projection operators read in
  non local Contribution for L=           1  read in
    real space projection operators read in
  non local Contribution for L=           2  read in
    real space projection operators read in
    PAW grid and wavefunctions read in
 
   number of l-projection  operators is LMAX  =           5
   number of lm-projection operators is LMMAX =          13
 
 WARNING: PSMAXN for non-local potential too small
          PSMAXN should be >   12.5490833729506       NTYP=           1
  PAW_PBE Sn 08Apr2002                  :
 energy of atom  1       EATOM=  -94.0860
 kinetic energy error for atom=    0.0000 (will be added to EATOM!!)
  PAW_PBE Se 06Sep2000                  :
 energy of atom  2       EATOM= -257.1286
 kinetic energy error for atom=    0.0006 (will be added to EATOM!!)
 
 
 POSCAR:  SnSe-Monolayer                         
  positions in direct lattice
  velocities in cartesian coordinates
 exchange correlation table for  LEXCH =        8
   RHO(1)=    0.500       N(1)  =     2000
   RHO(2)=  100.500       N(2)  =     4000
 


--------------------------------------------------------------------------------------------------------


 ion  position               nearest neighbor table
   1  0.581  0.750  0.569-   4 2.72   3 2.91   3 2.91   3 3.21   3 3.21
   2  0.081  0.250  0.431-   3 2.72   4 2.91   4 2.91   4 3.21   4 3.21
   3  0.033  0.250  0.567-   2 2.72   1 2.91   1 2.91   1 3.21   1 3.21
   4  0.533  0.750  0.433-   1 2.72   2 2.91   2 2.91   2 3.21   2 3.21
 
  LATTYP: Found a simple orthorhombic cell.
 ALAT       =     4.2924778572
 B/A-ratio  =     1.0127711908
 C/A-ratio  =     4.6593134934
  
  Lattice vectors:
  
 A1 = (   0.0000000000,  -4.2924778572,   0.0000000000)
 A2 = (  -4.3472979108,   0.0000000000,   0.0000000000)
 A3 = (   0.0000000000,   0.0000000000, -20.0000000000)


Analysis of symmetry for initial positions (statically):
=====================================================================
 Subroutine PRICEL returns:
 Original cell was already a primitive cell.
 

 Routine SETGRP: Setting up the symmetry group for a 
 simple orthorhombic supercell.


 Subroutine GETGRP returns: Found  4 space group operations
 (whereof  1 operations were pure point group operations)
 out of a pool of  8 trial point group operations.


The static configuration has the point symmetry C_1 .
 The point group associated with its full space group is C_2v.


Analysis of symmetry for dynamics (positions and initial velocities):
=====================================================================
 Subroutine PRICEL returns:
 Original cell was already a primitive cell.
 

 Routine SETGRP: Setting up the symmetry group for a 
 simple orthorhombic supercell.


 Subroutine GETGRP returns: Found  4 space group operations
 (whereof  1 operations were pure point group operations)
 out of a pool of  8 trial point group operations.


The dynamic configuration has the point symmetry C_1 .
 The point group associated with its full space group is C_2v.


 Subroutine INISYM returns: Found  4 space group operations
 (whereof  1 operations are pure point group operations),
 and found     1 'primitive' translations

 
 
 KPOINTS: Automatic                               

Automatic generation of k-mesh.
Space group operators:
 irot       det(A)        alpha          n_x          n_y          n_z        tau_x        tau_y        tau_z
    1     1.000000     0.000000     1.000000     0.000000     0.000000     0.000000     0.000000     0.000000
    2    -1.000000   180.000000     0.000000     0.000000     1.000000    -0.500000    -0.500000     0.000000
    3     1.000000   180.000000     1.000000     0.000000     0.000000    -0.500000     0.000000     0.000000
    4    -1.000000   180.000000     0.000000     1.000000     0.000000     0.000000    -0.500000     0.000000
 
 Subroutine IBZKPT returns following result:
 ===========================================
 
 Found     64 irreducible k-points:
 
 Following reciprocal coordinates:
            Coordinates               Weight
  0.000000  0.000000  0.000000      1.000000
  0.066667  0.000000  0.000000      2.000000
  0.133333  0.000000  0.000000      2.000000
  0.200000  0.000000  0.000000      2.000000
  0.266667  0.000000  0.000000      2.000000
  0.333333  0.000000  0.000000      2.000000
  0.400000  0.000000  0.000000      2.000000
  0.466667  0.000000  0.000000      2.000000
  0.000000  0.066667  0.000000      2.000000
  0.066667  0.066667  0.000000      4.000000
  0.133333  0.066667  0.000000      4.000000
  0.200000  0.066667  0.000000      4.000000
  0.266667  0.066667  0.000000      4.000000
  0.333333  0.066667  0.000000      4.000000
  0.400000  0.066667  0.000000      4.000000
  0.466667  0.066667  0.000000      4.000000
  0.000000  0.133333  0.000000      2.000000
  0.066667  0.133333  0.000000      4.000000
  0.133333  0.133333  0.000000      4.000000
  0.200000  0.133333  0.000000      4.000000
  0.266667  0.133333  0.000000      4.000000
  0.333333  0.133333  0.000000      4.000000
  0.400000  0.133333  0.000000      4.000000
  0.466667  0.133333  0.000000      4.000000
  0.000000  0.200000  0.000000      2.000000
  0.066667  0.200000  0.000000      4.000000
  0.133333  0.200000  0.000000      4.000000
  0.200000  0.200000  0.000000      4.000000
  0.266667  0.200000  0.000000      4.000000
  0.333333  0.200000  0.000000      4.000000
  0.400000  0.200000  0.000000      4.000000
  0.466667  0.200000  0.000000      4.000000
  0.000000  0.266667  0.000000      2.000000
  0.066667  0.266667  0.000000      4.000000
  0.133333  0.266667  0.000000      4.000000
  0.200000  0.266667  0.000000      4.000000
  0.266667  0.266667  0.000000      4.000000
  0.333333  0.266667  0.000000      4.000000
  0.400000  0.266667  0.000000      4.000000
  0.466667  0.266667  0.000000      4.000000
  0.000000  0.333333  0.000000      2.000000
  0.066667  0.333333  0.000000      4.000000
  0.133333  0.333333  0.000000      4.000000
  0.200000  0.333333  0.000000      4.000000
  0.266667  0.333333  0.000000      4.000000
  0.333333  0.333333  0.000000      4.000000
  0.400000  0.333333  0.000000      4.000000
  0.466667  0.333333  0.000000      4.000000
  0.000000  0.400000  0.000000      2.000000
  0.066667  0.400000  0.000000      4.000000
  0.133333  0.400000  0.000000      4.000000
  0.200000  0.400000  0.000000      4.000000
  0.266667  0.400000  0.000000      4.000000
  0.333333  0.400000  0.000000      4.000000
  0.400000  0.400000  0.000000      4.000000
  0.466667  0.400000  0.000000      4.000000
  0.000000  0.466667  0.000000      2.000000
  0.066667  0.466667  0.000000      4.000000
  0.133333  0.466667  0.000000      4.000000
  0.200000  0.466667  0.000000      4.000000
  0.266667  0.466667  0.000000      4.000000
  0.333333  0.466667  0.000000      4.000000
  0.400000  0.466667  0.000000      4.000000
  0.466667  0.466667  0.000000      4.000000
 
 Following cartesian coordinates:
            Coordinates               Weight
  0.000000  0.000000  0.000000      1.000000
  0.015335  0.000000  0.000000      2.000000
  0.030670  0.000000  0.000000      2.000000
  0.046006  0.000000  0.000000      2.000000
  0.061341  0.000000  0.000000      2.000000
  0.076676  0.000000  0.000000      2.000000
  0.092011  0.000000  0.000000      2.000000
  0.107346  0.000000  0.000000      2.000000
  0.000000  0.015531  0.000000      2.000000
  0.015335  0.015531  0.000000      4.000000
  0.030670  0.015531  0.000000      4.000000
  0.046006  0.015531  0.000000      4.000000
  0.061341  0.015531  0.000000      4.000000
  0.076676  0.015531  0.000000      4.000000
  0.092011  0.015531  0.000000      4.000000
  0.107346  0.015531  0.000000      4.000000
  0.000000  0.031062  0.000000      2.000000
  0.015335  0.031062  0.000000      4.000000
  0.030670  0.031062  0.000000      4.000000
  0.046006  0.031062  0.000000      4.000000
  0.061341  0.031062  0.000000      4.000000
  0.076676  0.031062  0.000000      4.000000
  0.092011  0.031062  0.000000      4.000000
  0.107346  0.031062  0.000000      4.000000
  0.000000  0.046593  0.000000      2.000000
  0.015335  0.046593  0.000000      4.000000
  0.030670  0.046593  0.000000      4.000000
  0.046006  0.046593  0.000000      4.000000
  0.061341  0.046593  0.000000      4.000000
  0.076676  0.046593  0.000000      4.000000
  0.092011  0.046593  0.000000      4.000000
  0.107346  0.046593  0.000000      4.000000
  0.000000  0.062124  0.000000      2.000000
  0.015335  0.062124  0.000000      4.000000
  0.030670  0.062124  0.000000      4.000000
  0.046006  0.062124  0.000000      4.000000
  0.061341  0.062124  0.000000      4.000000
  0.076676  0.062124  0.000000      4.000000
  0.092011  0.062124  0.000000      4.000000
  0.107346  0.062124  0.000000      4.000000
  0.000000  0.077655  0.000000      2.000000
  0.015335  0.077655  0.000000      4.000000
  0.030670  0.077655  0.000000      4.000000
  0.046006  0.077655  0.000000      4.000000
  0.061341  0.077655  0.000000      4.000000
  0.076676  0.077655  0.000000      4.000000
  0.092011  0.077655  0.000000      4.000000
  0.107346  0.077655  0.000000      4.000000
  0.000000  0.093186  0.000000      2.000000
  0.015335  0.093186  0.000000      4.000000
  0.030670  0.093186  0.000000      4.000000
  0.046006  0.093186  0.000000      4.000000
  0.061341  0.093186  0.000000      4.000000
  0.076676  0.093186  0.000000      4.000000
  0.092011  0.093186  0.000000      4.000000
  0.107346  0.093186  0.000000      4.000000
  0.000000  0.108717  0.000000      2.000000
  0.015335  0.108717  0.000000      4.000000
  0.030670  0.108717  0.000000      4.000000
  0.046006  0.108717  0.000000      4.000000
  0.061341  0.108717  0.000000      4.000000
  0.076676  0.108717  0.000000      4.000000
  0.092011  0.108717  0.000000      4.000000
  0.107346  0.108717  0.000000      4.000000
 


--------------------------------------------------------------------------------------------------------




 Dimension of arrays:
   k-points           NKPTS =     64   k-points in BZ     NKDIM =     64   number of bands    NBANDS=     14
   number of dos      NEDOS =    301   number of ions     NIONS =      4
   non local maximal  LDIM  =      5   non local SUM 2l+1 LMDIM =     13
   total plane-waves  NPLWV = 207360
   max r-space proj   IRMAX =      1   max aug-charges    IRDMAX=  53675
   dimension x,y,z NGX =    36 NGY =   36 NGZ =  160
   dimension x,y,z NGXF=    72 NGYF=   72 NGZF=  320
   support grid    NGXF=    72 NGYF=   72 NGZF=  320
   ions per type =               2   2
   NGX,Y,Z   is equivalent  to a cutoff of  13.77, 13.94, 13.30 a.u.
   NGXF,Y,Z  is equivalent  to a cutoff of  27.53, 27.89, 26.60 a.u.

 SYSTEM =  SnSe                                    
 POSCAR =   SnSe-Monolayer                         

 Startparameter for this run:
   NWRITE =      2    write-flag & timer
   PREC   = accura    normal or accurate (medium, high low for compatibility)
   ISTART =      0    job   : 0-new  1-cont  2-samecut
   ICHARG =      2    charge: 1-file 2-atom 10-const
   ISPIN  =      1    spin polarized calculation?
   LNONCOLLINEAR =      F non collinear calculations
   LSORBIT =      F    spin-orbit coupling
   INIWAV =      1    electr: 0-lowe 1-rand  2-diag
   LASPH  =      F    aspherical Exc in radial PAW
   METAGGA=      F    non-selfconsistent MetaGGA calc.

 Electronic Relaxation 1
   ENCUT  =  600.0 eV  44.10 Ry    6.64 a.u.   8.68  8.57 39.94*2*pi/ulx,y,z
   ENINI  =  600.0     initial cutoff
   ENAUG  =  446.8 eV  augmentation charge cutoff
   NELM   =     60;   NELMIN=  2; NELMDL= -5     # of ELM steps 
   EDIFF  = 0.1E-05   stopping-criterion for ELM
   LREAL  =      F    real-space projection
   NLSPLINE    = F    spline interpolate recip. space projectors
   LCOMPAT=      F    compatible to vasp.4.4
   GGA_COMPAT  = T    GGA compatible to vasp.4.4-vasp.4.6
   LMAXPAW     = -100 max onsite density
   LMAXMIX     =    2 max onsite mixed and CHGCAR
   VOSKOWN=      0    Vosko Wilk Nusair interpolation
   ROPT   =    0.00000   0.00000
 Ionic relaxation
   EDIFFG = -.1E-02   stopping-criterion for IOM
   NSW    =    100    number of steps for IOM
   NBLOCK =      1;   KBLOCK =    100    inner block; outer block 
   IBRION =      2    ionic relax: 0-MD 1-quasi-New 2-CG
   NFREE  =      1    steps in history (QN), initial steepest desc. (CG)
   ISIF   =      2    stress and relaxation
   IWAVPR =     11    prediction:  0-non 1-charg 2-wave 3-comb
   ISYM   =      2    0-nonsym 1-usesym 2-fastsym
   LCORR  =      T    Harris-Foulkes like correction to forces

   POTIM  = 0.5000    time-step for ionic-motion
   TEIN   =    0.0    initial temperature
   TEBEG  =    0.0;   TEEND  =   0.0 temperature during run
   SMASS  =  -3.00    Nose mass-parameter (am)
   estimated Nose-frequenzy (Omega)   =  0.10E-29 period in steps =****** mass=  -0.432E-27a.u.
   SCALEE = 1.0000    scale energy and forces
   NPACO  =    256;   APACO  = 16.0  distance and # of slots for P.C.
   PSTRESS=    0.0 pullay stress

  Mass of Ions in am
   POMASS = 118.71 78.96
  Ionic Valenz
   ZVAL   =   4.00  6.00
  Atomic Wigner-Seitz radii
   RWIGS  =  -1.00 -1.00
  virtual crystal weights 
   VCA    =   1.00  1.00
   NELECT =      20.0000    total number of electrons
   NUPDOWN=      -1.0000    fix difference up-down

 DOS related values:
   EMIN   =  10.00;   EMAX   =-10.00  energy-range for DOS
   EFERMI =   0.00
   ISMEAR =     0;   SIGMA  =   0.10  broadening in eV -4-tet -1-fermi 0-gaus

 Electronic relaxation 2 (details)
   IALGO  =     38    algorithm
   LDIAG  =      T    sub-space diagonalisation (order eigenvalues)
   LSUBROT=      F    optimize rotation matrix (better conditioning)
   TURBO    =      0    0=normal 1=particle mesh
   IRESTART =      0    0=no restart 2=restart with 2 vectors
   NREBOOT  =      0    no. of reboots
   NMIN     =      0    reboot dimension
   EREF     =   0.00    reference energy to select bands
   IMIX   =      4    mixing-type and parameters
     AMIX     =   0.40;   BMIX     =  1.00
     AMIX_MAG =   1.60;   BMIX_MAG =  1.00
     AMIN     =   0.10
     WC   =   100.;   INIMIX=   1;  MIXPRE=   1;  MAXMIX= -45

 Intra band minimization:
   WEIMIN = 0.0010     energy-eigenvalue tresh-hold
   EBREAK =  0.18E-07  absolut break condition
   DEPER  =   0.30     relativ break condition  

   TIME   =   0.40     timestep for ELM

  volume/ion in A,a.u.               =      93.30       629.64
  Fermi-wavevector in a.u.,A,eV,Ry     =   0.617209  1.166356  5.183100  0.380947
  Thomas-Fermi vector in A             =   1.675213
 
 Write flags
   LWAVE        =      T    write WAVECAR
   LDOWNSAMPLE  =      F    k-point downsampling of WAVECAR
   LCHARG       =      T    write CHGCAR
   LVTOT        =      F    write LOCPOT, total local potential
   LVHAR        =      F    write LOCPOT, Hartree potential only
   LELF         =      F    write electronic localiz. function (ELF)
   LORBIT       =      0    0 simple, 1 ext, 2 COOP (PROOUT), +10 PAW based schemes


 Dipole corrections
   LMONO  =      F    monopole corrections only (constant potential shift)
   LDIPOL =      F    correct potential (dipole corrections)
   IDIPOL =      0    1-x, 2-y, 3-z, 4-all directions 
   EPSILON=  1.0000000 bulk dielectric constant

 Exchange correlation treatment:
   GGA     =    PE    GGA type
   LEXCH   =     8    internal setting for exchange type
   VOSKOWN=      0    Vosko Wilk Nusair interpolation
   LHFCALC =     F    Hartree Fock is set to
   LHFONE  =     F    Hartree Fock one center treatment
   AEXX    =    0.0000 exact exchange contribution

 Linear response parameters
   LEPSILON=     F    determine dielectric tensor
   LRPA    =     F    only Hartree local field effects (RPA)
   LNABLA  =     F    use nabla operator in PAW spheres
   LVEL    =     F    velocity operator in full k-point grid
   LINTERFAST=   F  fast interpolation
   KINTER  =     0    interpolate to denser k-point grid
   CSHIFT  =0.1000    complex shift for real part using Kramers Kronig
   OMEGAMAX=  -1.0    maximum frequency
   DEG_THRESHOLD= 0.2000000E-02 threshold for treating states as degnerate
   RTIME   =   -0.100 relaxation time in fs
  (WPLASMAI=    0.000 imaginary part of plasma frequency in eV, 0.658/RTIME)
   DFIELD  = 0.0000000 0.0000000 0.0000000 field for delta impulse in time
 
 Orbital magnetization related:
   ORBITALMAG=     F  switch on orbital magnetization
   LCHIMAG   =     F  perturbation theory with respect to B field
   DQ        =  0.001000  dq finite difference perturbation B field
   LLRAUG    =     F  two centre corrections for induced B field



--------------------------------------------------------------------------------------------------------


 conjugate gradient relaxation of ions
 charge density and potential will be updated during run
 non-spin polarized calculation
 Variant of blocked Davidson
 Davidson routine will perform the subspace rotation
 perform sub-space diagonalisation
    after iterative eigenvector-optimisation
 modified Broyden-mixing scheme, WC =      100.0
 initial mixing is a Kerker type mixing with AMIX =  0.4000 and BMIX =      1.0000
 Hartree-type preconditioning will be used
 using additional bands            4
 reciprocal scheme for non local part
 use partial core corrections
 calculate Harris-corrections to forces 
   (improved forces if not selfconsistent)
 use gradient corrections 
 use of overlap-Matrix (Vanderbilt PP)
 Gauss-broadening in eV      SIGMA  =   0.10


--------------------------------------------------------------------------------------------------------


  energy-cutoff  :      600.00
  volume of cell :      373.21
      direct lattice vectors                 reciprocal lattice vectors
     4.347297911  0.000000000  0.000000000     0.230027944  0.000000000  0.000000000
     0.000000000  4.292477857  0.000000000     0.000000000  0.232965675  0.000000000
     0.000000000  0.000000000 20.000000000     0.000000000  0.000000000  0.050000000

  length of vectors
     4.347297911  4.292477857 20.000000000     0.230027944  0.232965675  0.050000000


 
 k-points in units of 2pi/SCALE and weight: Automatic                               
   0.00000000  0.00000000  0.00000000       0.004
   0.01533520  0.00000000  0.00000000       0.009
   0.03067039  0.00000000  0.00000000       0.009
   0.04600559  0.00000000  0.00000000       0.009
   0.06134079  0.00000000  0.00000000       0.009
   0.07667598  0.00000000  0.00000000       0.009
   0.09201118  0.00000000  0.00000000       0.009
   0.10734637  0.00000000  0.00000000       0.009
   0.00000000  0.01553104  0.00000000       0.009
   0.01533520  0.01553104  0.00000000       0.018
   0.03067039  0.01553104  0.00000000       0.018
   0.04600559  0.01553104  0.00000000       0.018
   0.06134079  0.01553104  0.00000000       0.018
   0.07667598  0.01553104  0.00000000       0.018
   0.09201118  0.01553104  0.00000000       0.018
   0.10734637  0.01553104  0.00000000       0.018
   0.00000000  0.03106209  0.00000000       0.009
   0.01533520  0.03106209  0.00000000       0.018
   0.03067039  0.03106209  0.00000000       0.018
   0.04600559  0.03106209  0.00000000       0.018
   0.06134079  0.03106209  0.00000000       0.018
   0.07667598  0.03106209  0.00000000       0.018
   0.09201118  0.03106209  0.00000000       0.018
   0.10734637  0.03106209  0.00000000       0.018
   0.00000000  0.04659313  0.00000000       0.009
   0.01533520  0.04659313  0.00000000       0.018
   0.03067039  0.04659313  0.00000000       0.018
   0.04600559  0.04659313  0.00000000       0.018
   0.06134079  0.04659313  0.00000000       0.018
   0.07667598  0.04659313  0.00000000       0.018
   0.09201118  0.04659313  0.00000000       0.018
   0.10734637  0.04659313  0.00000000       0.018
   0.00000000  0.06212418  0.00000000       0.009
   0.01533520  0.06212418  0.00000000       0.018
   0.03067039  0.06212418  0.00000000       0.018
   0.04600559  0.06212418  0.00000000       0.018
   0.06134079  0.06212418  0.00000000       0.018
   0.07667598  0.06212418  0.00000000       0.018
   0.09201118  0.06212418  0.00000000       0.018
   0.10734637  0.06212418  0.00000000       0.018
   0.00000000  0.07765522  0.00000000       0.009
   0.01533520  0.07765522  0.00000000       0.018
   0.03067039  0.07765522  0.00000000       0.018
   0.04600559  0.07765522  0.00000000       0.018
   0.06134079  0.07765522  0.00000000       0.018
   0.07667598  0.07765522  0.00000000       0.018
   0.09201118  0.07765522  0.00000000       0.018
   0.10734637  0.07765522  0.00000000       0.018
   0.00000000  0.09318627  0.00000000       0.009
   0.01533520  0.09318627  0.00000000       0.018
   0.03067039  0.09318627  0.00000000       0.018
   0.04600559  0.09318627  0.00000000       0.018
   0.06134079  0.09318627  0.00000000       0.018
   0.07667598  0.09318627  0.00000000       0.018
   0.09201118  0.09318627  0.00000000       0.018
   0.10734637  0.09318627  0.00000000       0.018
   0.00000000  0.10871731  0.00000000       0.009
   0.01533520  0.10871731  0.00000000       0.018
   0.03067039  0.10871731  0.00000000       0.018
   0.04600559  0.10871731  0.00000000       0.018
   0.06134079  0.10871731  0.00000000       0.018
   0.07667598  0.10871731  0.00000000       0.018
   0.09201118  0.10871731  0.00000000       0.018
   0.10734637  0.10871731  0.00000000       0.018
 
 k-points in reciprocal lattice and weights: Automatic                               
   0.00000000  0.00000000  0.00000000       0.004
   0.06666667  0.00000000  0.00000000       0.009
   0.13333333  0.00000000  0.00000000       0.009
   0.20000000  0.00000000  0.00000000       0.009
   0.26666667  0.00000000  0.00000000       0.009
   0.33333333  0.00000000  0.00000000       0.009
   0.40000000  0.00000000  0.00000000       0.009
   0.46666667  0.00000000  0.00000000       0.009
   0.00000000  0.06666667  0.00000000       0.009
   0.06666667  0.06666667  0.00000000       0.018
   0.13333333  0.06666667  0.00000000       0.018
   0.20000000  0.06666667  0.00000000       0.018
   0.26666667  0.06666667  0.00000000       0.018
   0.33333333  0.06666667  0.00000000       0.018
   0.40000000  0.06666667  0.00000000       0.018
   0.46666667  0.06666667  0.00000000       0.018
   0.00000000  0.13333333  0.00000000       0.009
   0.06666667  0.13333333  0.00000000       0.018
   0.13333333  0.13333333  0.00000000       0.018
   0.20000000  0.13333333  0.00000000       0.018
   0.26666667  0.13333333  0.00000000       0.018
   0.33333333  0.13333333  0.00000000       0.018
   0.40000000  0.13333333  0.00000000       0.018
   0.46666667  0.13333333  0.00000000       0.018
   0.00000000  0.20000000  0.00000000       0.009
   0.06666667  0.20000000  0.00000000       0.018
   0.13333333  0.20000000  0.00000000       0.018
   0.20000000  0.20000000  0.00000000       0.018
   0.26666667  0.20000000  0.00000000       0.018
   0.33333333  0.20000000  0.00000000       0.018
   0.40000000  0.20000000  0.00000000       0.018
   0.46666667  0.20000000  0.00000000       0.018
   0.00000000  0.26666667  0.00000000       0.009
   0.06666667  0.26666667  0.00000000       0.018
   0.13333333  0.26666667  0.00000000       0.018
   0.20000000  0.26666667  0.00000000       0.018
   0.26666667  0.26666667  0.00000000       0.018
   0.33333333  0.26666667  0.00000000       0.018
   0.40000000  0.26666667  0.00000000       0.018
   0.46666667  0.26666667  0.00000000       0.018
   0.00000000  0.33333333  0.00000000       0.009
   0.06666667  0.33333333  0.00000000       0.018
   0.13333333  0.33333333  0.00000000       0.018
   0.20000000  0.33333333  0.00000000       0.018
   0.26666667  0.33333333  0.00000000       0.018
   0.33333333  0.33333333  0.00000000       0.018
   0.40000000  0.33333333  0.00000000       0.018
   0.46666667  0.33333333  0.00000000       0.018
   0.00000000  0.40000000  0.00000000       0.009
   0.06666667  0.40000000  0.00000000       0.018
   0.13333333  0.40000000  0.00000000       0.018
   0.20000000  0.40000000  0.00000000       0.018
   0.26666667  0.40000000  0.00000000       0.018
   0.33333333  0.40000000  0.00000000       0.018
   0.40000000  0.40000000  0.00000000       0.018
   0.46666667  0.40000000  0.00000000       0.018
   0.00000000  0.46666667  0.00000000       0.009
   0.06666667  0.46666667  0.00000000       0.018
   0.13333333  0.46666667  0.00000000       0.018
   0.20000000  0.46666667  0.00000000       0.018
   0.26666667  0.46666667  0.00000000       0.018
   0.33333333  0.46666667  0.00000000       0.018
   0.40000000  0.46666667  0.00000000       0.018
   0.46666667  0.46666667  0.00000000       0.018
 
 position of ions in fractional coordinates (direct lattice) 
   0.58124336  0.75000000  0.56874314
   0.08124336  0.25000000  0.43125686
   0.03286064  0.25000000  0.56707387
   0.53286061  0.75000000  0.43292613
 
 position of ions in cartesian coordinates  (Angst):
   2.52683804  3.21935839 11.37486283
   0.35318908  1.07311946  8.62513717
   0.14285500  1.07311946 11.34147733
   2.31650384  3.21935839  8.65852267
 


--------------------------------------------------------------------------------------------------------


 k-point  1 :   0.0000 0.0000 0.0000  plane waves:   12515
 k-point  2 :   0.0667 0.0000 0.0000  plane waves:   12507
 k-point  3 :   0.1333 0.0000 0.0000  plane waves:   12477
 k-point  4 :   0.2000 0.0000 0.0000  plane waves:   12451
 k-point  5 :   0.2667 0.0000 0.0000  plane waves:   12435
 k-point  6 :   0.3333 0.0000 0.0000  plane waves:   12478
 k-point  7 :   0.4000 0.0000 0.0000  plane waves:   12486
 k-point  8 :   0.4667 0.0000 0.0000  plane waves:   12484
 k-point  9 :   0.0000 0.0667 0.0000  plane waves:   12497
 k-point 10 :   0.0667 0.0667 0.0000  plane waves:   12481
 k-point 11 :   0.1333 0.0667 0.0000  plane waves:   12459
 k-point 12 :   0.2000 0.0667 0.0000  plane waves:   12469
 k-point 13 :   0.2667 0.0667 0.0000  plane waves:   12463
 k-point 14 :   0.3333 0.0667 0.0000  plane waves:   12465
 k-point 15 :   0.4000 0.0667 0.0000  plane waves:   12490
 k-point 16 :   0.4667 0.0667 0.0000  plane waves:   12476
 k-point 17 :   0.0000 0.1333 0.0000  plane waves:   12477
 k-point 18 :   0.0667 0.1333 0.0000  plane waves:   12463
 k-point 19 :   0.1333 0.1333 0.0000  plane waves:   12452
 k-point 20 :   0.2000 0.1333 0.0000  plane waves:   12444
 k-point 21 :   0.2667 0.1333 0.0000  plane waves:   12456
 k-point 22 :   0.3333 0.1333 0.0000  plane waves:   12462
 k-point 23 :   0.4000 0.1333 0.0000  plane waves:   12463
 k-point 24 :   0.4667 0.1333 0.0000  plane waves:   12469
 k-point 25 :   0.0000 0.2000 0.0000  plane waves:   12467
 k-point 26 :   0.0667 0.2000 0.0000  plane waves:   12461
 k-point 27 :   0.1333 0.2000 0.0000  plane waves:   12480
 k-point 28 :   0.2000 0.2000 0.0000  plane waves:   12457
 k-point 29 :   0.2667 0.2000 0.0000  plane waves:   12449
 k-point 30 :   0.3333 0.2000 0.0000  plane waves:   12466
 k-point 31 :   0.4000 0.2000 0.0000  plane waves:   12448
 k-point 32 :   0.4667 0.2000 0.0000  plane waves:   12477
 k-point 33 :   0.0000 0.2667 0.0000  plane waves:   12469
 k-point 34 :   0.0667 0.2667 0.0000  plane waves:   12468
 k-point 35 :   0.1333 0.2667 0.0000  plane waves:   12473
 k-point 36 :   0.2000 0.2667 0.0000  plane waves:   12451
 k-point 37 :   0.2667 0.2667 0.0000  plane waves:   12448
 k-point 38 :   0.3333 0.2667 0.0000  plane waves:   12450
 k-point 39 :   0.4000 0.2667 0.0000  plane waves:   12450
 k-point 40 :   0.4667 0.2667 0.0000  plane waves:   12442
 k-point 41 :   0.0000 0.3333 0.0000  plane waves:   12449
 k-point 42 :   0.0667 0.3333 0.0000  plane waves:   12441
 k-point 43 :   0.1333 0.3333 0.0000  plane waves:   12452
 k-point 44 :   0.2000 0.3333 0.0000  plane waves:   12468
 k-point 45 :   0.2667 0.3333 0.0000  plane waves:   12428
 k-point 46 :   0.3333 0.3333 0.0000  plane waves:   12434
 k-point 47 :   0.4000 0.3333 0.0000  plane waves:   12426
 k-point 48 :   0.4667 0.3333 0.0000  plane waves:   12440
 k-point 49 :   0.0000 0.4000 0.0000  plane waves:   12419
 k-point 50 :   0.0667 0.4000 0.0000  plane waves:   12431
 k-point 51 :   0.1333 0.4000 0.0000  plane waves:   12454
 k-point 52 :   0.2000 0.4000 0.0000  plane waves:   12454
 k-point 53 :   0.2667 0.4000 0.0000  plane waves:   12427
 k-point 54 :   0.3333 0.4000 0.0000  plane waves:   12440
 k-point 55 :   0.4000 0.4000 0.0000  plane waves:   12415
 k-point 56 :   0.4667 0.4000 0.0000  plane waves:   12425
 k-point 57 :   0.0000 0.4667 0.0000  plane waves:   12438
 k-point 58 :   0.0667 0.4667 0.0000  plane waves:   12455
 k-point 59 :   0.1333 0.4667 0.0000  plane waves:   12450
 k-point 60 :   0.2000 0.4667 0.0000  plane waves:   12444
 k-point 61 :   0.2667 0.4667 0.0000  plane waves:   12423
 k-point 62 :   0.3333 0.4667 0.0000  plane waves:   12410
 k-point 63 :   0.4000 0.4667 0.0000  plane waves:   12415
 k-point 64 :   0.4667 0.4667 0.0000  plane waves:   12422

 maximum and minimum number of plane-waves per node :       548      499

 maximum number of plane-waves:     12515
 maximum index in each direction: 
   IXMAX=    8   IYMAX=    8   IZMAX=   39
   IXMIN=   -9   IYMIN=   -9   IZMIN=  -39


 parallel 3D FFT for wavefunctions:
    minimum data exchange during FFTs selected (reduces bandwidth)
 parallel 3D FFT for charge:
    minimum data exchange during FFTs selected (reduces bandwidth)


 total amount of memory used by VASP MPI-rank0    51825. kBytes
=======================================================================

   base      :      30000. kBytes
   nonl-proj :       7049. kBytes
   fftplans  :       2678. kBytes
   grid      :       4349. kBytes
   one-center:          8. kBytes
   wavefun   :       7741. kBytes
 
     INWAV:  cpu time    0.0000: real time    0.0000
 Broyden mixing: mesh for mixing (old mesh)
   NGX = 17   NGY = 17   NGZ = 79
  (NGX  = 72   NGY  = 72   NGZ  =320)
  gives a total of  22831 points

 initial charge density was supplied:
 charge density of overlapping atoms calculated
 number of electron      20.0000000 magnetization 
 keeping initial charge density in first step


--------------------------------------------------------------------------------------------------------


 Maximum index for augmentation-charges         2238 (set IRDMAX)


--------------------------------------------------------------------------------------------------------


 First call to EWALD:  gamma=   0.246
 Maximum number of real-space cells 4x 4x 1
 Maximum number of reciprocal cells 2x 2x 7

    FEWALD:  cpu time    0.0019: real time    0.0019


--------------------------------------- Iteration      1(   1)  ---------------------------------------


    POTLOK:  cpu time    0.0491: real time    0.2200
    SETDIJ:  cpu time    0.1175: real time    0.1180
     EDDAV:  cpu time    1.9306: real time    1.9373
       DOS:  cpu time    0.0026: real time    0.0027
    --------------------------------------------
      LOOP:  cpu time    2.0998: real time    2.2780

 eigenvalue-minimisations  :  1792
 total energy-change (2. order) : 0.1446271E+03  (-0.6284368E+03)
 number of electron      20.0000000 magnetization 
 augmentation part       20.0000000 magnetization 

 Free energy of the ion-electron system (eV)
  ---------------------------------------------------
  alpha Z        PSCENC =         9.58086446
  Ewald energy   TEWEN  =      1165.67779028
  -Hartree energ DENC   =     -1767.73060366
  -exchange      EXHF   =         0.00000000
  -V(xc)+E(xc)   XCENC  =      -238.53243910
  PAW double counting   =       799.43158084     -524.17639913
  entropy T*S    EENTRO =        -0.01141069
  eigenvalues    EBANDS =        -2.04020860
  atomic energy  EATOM  =       702.42789710
  Solvation  Ediel_sol  =         0.00000000
  ---------------------------------------------------
  free energy    TOTEN  =       144.62707150 eV

  energy without entropy =      144.63848219  energy(sigma->0) =      144.63277685


--------------------------------------------------------------------------------------------------------




--------------------------------------- Iteration      1(   2)  ---------------------------------------


     EDDAV:  cpu time    1.8672: real time    1.8728
       DOS:  cpu time    0.0025: real time    0.0025
    --------------------------------------------
      LOOP:  cpu time    1.8697: real time    1.8753

 eigenvalue-minimisations  :  2936
 total energy-change (2. order) :-0.1399555E+03  (-0.1361324E+03)
 number of electron      20.0000000 magnetization 
 augmentation part       20.0000000 magnetization 

 Free energy of the ion-electron system (eV)
  ---------------------------------------------------
  alpha Z        PSCENC =         9.58086446
  Ewald energy   TEWEN  =      1165.67779028
  -Hartree energ DENC   =     -1767.73060366
  -exchange      EXHF   =         0.00000000
  -V(xc)+E(xc)   XCENC  =      -238.53243910
  PAW double counting   =       799.43158084     -524.17639913
  entropy T*S    EENTRO =        -0.00176302
  eigenvalues    EBANDS =      -142.00537333
  atomic energy  EATOM  =       702.42789710
  Solvation  Ediel_sol  =         0.00000000
  ---------------------------------------------------
  free energy    TOTEN  =         4.67155445 eV

  energy without entropy =        4.67331747  energy(sigma->0) =        4.67243596


--------------------------------------------------------------------------------------------------------




--------------------------------------- Iteration      1(   3)  ---------------------------------------


     EDDAV:  cpu time    1.4911: real time    1.4938
       DOS:  cpu time    0.0017: real time    0.0017
    --------------------------------------------
      LOOP:  cpu time    1.4928: real time    1.4955

 eigenvalue-minimisations  :  2296
 total energy-change (2. order) :-0.2066445E+02  (-0.2049090E+02)
 number of electron      20.0000000 magnetization 
 augmentation part       20.0000000 magnetization 

 Free energy of the ion-electron system (eV)
  ---------------------------------------------------
  alpha Z        PSCENC =         9.58086446
  Ewald energy   TEWEN  =      1165.67779028
  -Hartree energ DENC   =     -1767.73060366
  -exchange      EXHF   =         0.00000000
  -V(xc)+E(xc)   XCENC  =      -238.53243910
  PAW double counting   =       799.43158084     -524.17639913
  entropy T*S    EENTRO =        -0.00000000
  eigenvalues    EBANDS =      -162.67158275
  atomic energy  EATOM  =       702.42789710
  Solvation  Ediel_sol  =         0.00000000
  ---------------------------------------------------
  free energy    TOTEN  =       -15.99289195 eV

  energy without entropy =      -15.99289195  energy(sigma->0) =      -15.99289195


--------------------------------------------------------------------------------------------------------




--------------------------------------- Iteration      1(   4)  ---------------------------------------


     EDDAV:  cpu time    1.6517: real time    1.6549
       DOS:  cpu time    0.0017: real time    0.0017
    --------------------------------------------
      LOOP:  cpu time    1.6534: real time    1.6566

 eigenvalue-minimisations  :  2558
 total energy-change (2. order) :-0.7765947E+00  (-0.7743922E+00)
 number of electron      20.0000000 magnetization 
 augmentation part       20.0000000 magnetization 

 Free energy of the ion-electron system (eV)
  ---------------------------------------------------
  alpha Z        PSCENC =         9.58086446
  Ewald energy   TEWEN  =      1165.67779028
  -Hartree energ DENC   =     -1767.73060366
  -exchange      EXHF   =         0.00000000
  -V(xc)+E(xc)   XCENC  =      -238.53243910
  PAW double counting   =       799.43158084     -524.17639913
  entropy T*S    EENTRO =        -0.00000000
  eigenvalues    EBANDS =      -163.44817747
  atomic energy  EATOM  =       702.42789710
  Solvation  Ediel_sol  =         0.00000000
  ---------------------------------------------------
  free energy    TOTEN  =       -16.76948667 eV

  energy without entropy =      -16.76948667  energy(sigma->0) =      -16.76948667


--------------------------------------------------------------------------------------------------------




--------------------------------------- Iteration      1(   5)  ---------------------------------------


     EDDAV:  cpu time    1.5512: real time    1.5539
       DOS:  cpu time    0.0017: real time    0.0017
    CHARGE:  cpu time    0.1229: real time    0.1231
    MIXING:  cpu time    0.0015: real time    0.0016
    --------------------------------------------
      LOOP:  cpu time    1.6774: real time    1.6803

 eigenvalue-minimisations  :  2352
 total energy-change (2. order) :-0.1781643E-01  (-0.1780050E-01)
 number of electron      20.0000000 magnetization 
 augmentation part       -4.5251329 magnetization 

 Broyden mixing:
  rms(total) = 0.45512E+00    rms(broyden)= 0.45511E+00
  rms(prec ) = 0.49469E+00
  weight for this iteration     100.00

 Free energy of the ion-electron system (eV)
  ---------------------------------------------------
  alpha Z        PSCENC =         9.58086446
  Ewald energy   TEWEN  =      1165.67779028
  -Hartree energ DENC   =     -1767.73060366
  -exchange      EXHF   =         0.00000000
  -V(xc)+E(xc)   XCENC  =      -238.53243910
  PAW double counting   =       799.43158084     -524.17639913
  entropy T*S    EENTRO =        -0.00000000
  eigenvalues    EBANDS =      -163.46599390
  atomic energy  EATOM  =       702.42789710
  Solvation  Ediel_sol  =         0.00000000
  ---------------------------------------------------
  free energy    TOTEN  =       -16.78730310 eV

  energy without entropy =      -16.78730310  energy(sigma->0) =      -16.78730310


--------------------------------------------------------------------------------------------------------




--------------------------------------- Iteration      1(   6)  ---------------------------------------


    POTLOK:  cpu time    0.0422: real time    0.0423
    SETDIJ:  cpu time    0.0040: real time    0.0042
     EDDAV:  cpu time    1.4535: real time    1.4561
       DOS:  cpu time    0.0018: real time    0.0018
    CHARGE:  cpu time    0.1156: real time    0.1157
    MIXING:  cpu time    0.0014: real time    0.0014
    --------------------------------------------
      LOOP:  cpu time    1.6185: real time    1.6216

 eigenvalue-minimisations  :  2202
 total energy-change (2. order) : 0.4819237E+00  (-0.1216009E+00)
 number of electron      20.0000000 magnetization 
 augmentation part       -4.4927393 magnetization 

 Broyden mixing:
  rms(total) = 0.27978E+00    rms(broyden)= 0.27978E+00
  rms(prec ) = 0.28889E+00
  weight for this iteration     100.00

 eigenvalues of (default mixing * dielectric matrix)
  average eigenvalue GAMMA=   1.8301
  1.8301

 Free energy of the ion-electron system (eV)
  ---------------------------------------------------
  alpha Z        PSCENC =         9.58086446
  Ewald energy   TEWEN  =      1165.67779028
  -Hartree energ DENC   =     -1775.58977615
  -exchange      EXHF   =         0.00000000
  -V(xc)+E(xc)   XCENC  =      -238.05149823
  PAW double counting   =       926.17466608     -651.10569571
  entropy T*S    EENTRO =        -0.00000000
  eigenvalues    EBANDS =      -155.41962724
  atomic energy  EATOM  =       702.42789710
  Solvation  Ediel_sol  =         0.00000000
  ---------------------------------------------------
  free energy    TOTEN  =       -16.30537940 eV

  energy without entropy =      -16.30537940  energy(sigma->0) =      -16.30537940


--------------------------------------------------------------------------------------------------------




--------------------------------------- Iteration      1(   7)  ---------------------------------------


    POTLOK:  cpu time    0.0422: real time    0.0423
    SETDIJ:  cpu time    0.0037: real time    0.0037
     EDDAV:  cpu time    1.5377: real time    1.5405
       DOS:  cpu time    0.0018: real time    0.0018
    CHARGE:  cpu time    0.1161: real time    0.1163
    MIXING:  cpu time    0.0014: real time    0.0016
    --------------------------------------------
      LOOP:  cpu time    1.7029: real time    1.7061

 eigenvalue-minimisations  :  2324
 total energy-change (2. order) : 0.2868555E-01  (-0.3183408E-01)
 number of electron      20.0000000 magnetization 
 augmentation part       -4.4838398 magnetization 

 Broyden mixing:
  rms(total) = 0.10364E+00    rms(broyden)= 0.10364E+00
  rms(prec ) = 0.10911E+00
  weight for this iteration     100.00

 eigenvalues of (default mixing * dielectric matrix)
  average eigenvalue GAMMA=   1.7367
  1.3777  2.0957

 Free energy of the ion-electron system (eV)
  ---------------------------------------------------
  alpha Z        PSCENC =         9.58086446
  Ewald energy   TEWEN  =      1165.67779028
  -Hartree energ DENC   =     -1780.76070118
  -exchange      EXHF   =         0.00000000
  -V(xc)+E(xc)   XCENC  =      -237.71973934
  PAW double counting   =      1072.06094749     -797.13804975
  entropy T*S    EENTRO =        -0.00000000
  eigenvalues    EBANDS =      -150.40570291
  atomic energy  EATOM  =       702.42789710
  Solvation  Ediel_sol  =         0.00000000
  ---------------------------------------------------
  free energy    TOTEN  =       -16.27669385 eV

  energy without entropy =      -16.27669385  energy(sigma->0) =      -16.27669385


--------------------------------------------------------------------------------------------------------




--------------------------------------- Iteration      1(   8)  ---------------------------------------


    POTLOK:  cpu time    0.0423: real time    0.0424
    SETDIJ:  cpu time    0.0037: real time    0.0037
     EDDAV:  cpu time    1.6169: real time    1.6198
       DOS:  cpu time    0.0018: real time    0.0018
    CHARGE:  cpu time    0.1325: real time    0.1327
    MIXING:  cpu time    0.0015: real time    0.0015
    --------------------------------------------
      LOOP:  cpu time    1.7986: real time    1.8018

 eigenvalue-minimisations  :  2534
 total energy-change (2. order) : 0.9946143E-02  (-0.3958574E-02)
 number of electron      20.0000000 magnetization 
 augmentation part       -4.4880215 magnetization 

 Broyden mixing:
  rms(total) = 0.20485E-01    rms(broyden)= 0.20485E-01
  rms(prec ) = 0.27934E-01
  weight for this iteration     100.00

 eigenvalues of (default mixing * dielectric matrix)
  average eigenvalue GAMMA=   1.7187
  2.5429  1.3066  1.3066

 Free energy of the ion-electron system (eV)
  ---------------------------------------------------
  alpha Z        PSCENC =         9.58086446
  Ewald energy   TEWEN  =      1165.67779028
  -Hartree energ DENC   =     -1782.44608590
  -exchange      EXHF   =         0.00000000
  -V(xc)+E(xc)   XCENC  =      -237.64350101
  PAW double counting   =      1137.35596889     -862.47217911
  entropy T*S    EENTRO =        -0.00000000
  eigenvalues    EBANDS =      -148.74750243
  atomic energy  EATOM  =       702.42789710
  Solvation  Ediel_sol  =         0.00000000
  ---------------------------------------------------
  free energy    TOTEN  =       -16.26674771 eV

  energy without entropy =      -16.26674771  energy(sigma->0) =      -16.26674771


--------------------------------------------------------------------------------------------------------




--------------------------------------- Iteration      1(   9)  ---------------------------------------


    POTLOK:  cpu time    0.0428: real time    0.0429
    SETDIJ:  cpu time    0.0038: real time    0.0038
     EDDAV:  cpu time    1.5831: real time    1.5860
       DOS:  cpu time    0.0018: real time    0.0018
    CHARGE:  cpu time    0.1160: real time    0.1162
    MIXING:  cpu time    0.0015: real time    0.0015
    --------------------------------------------
      LOOP:  cpu time    1.7489: real time    1.7521

 eigenvalue-minimisations  :  2440
 total energy-change (2. order) : 0.3811372E-02  (-0.6755829E-03)
 number of electron      20.0000000 magnetization 
 augmentation part       -4.4860389 magnetization 

 Broyden mixing:
  rms(total) = 0.10158E-01    rms(broyden)= 0.10158E-01
  rms(prec ) = 0.15698E-01
  weight for this iteration     100.00

 eigenvalues of (default mixing * dielectric matrix)
  average eigenvalue GAMMA=   1.6886
  2.1864  2.1864  1.1909  1.1909

 Free energy of the ion-electron system (eV)
  ---------------------------------------------------
  alpha Z        PSCENC =         9.58086446
  Ewald energy   TEWEN  =      1165.67779028
  -Hartree energ DENC   =     -1784.46893405
  -exchange      EXHF   =         0.00000000
  -V(xc)+E(xc)   XCENC  =      -237.56910957
  PAW double counting   =      1156.09774811     -881.22649799
  entropy T*S    EENTRO =        -0.00000000
  eigenvalues    EBANDS =      -146.78269468
  atomic energy  EATOM  =       702.42789710
  Solvation  Ediel_sol  =         0.00000000
  ---------------------------------------------------
  free energy    TOTEN  =       -16.26293634 eV

  energy without entropy =      -16.26293634  energy(sigma->0) =      -16.26293634


--------------------------------------------------------------------------------------------------------




--------------------------------------- Iteration      1(  10)  ---------------------------------------


    POTLOK:  cpu time    0.0429: real time    0.0431
    SETDIJ:  cpu time    0.0038: real time    0.0038
     EDDAV:  cpu time    1.5879: real time    1.5907
       DOS:  cpu time    0.0017: real time    0.0017
    CHARGE:  cpu time    0.1159: real time    0.1160
    MIXING:  cpu time    0.0016: real time    0.0016
    --------------------------------------------
      LOOP:  cpu time    1.7539: real time    1.7569

 eigenvalue-minimisations  :  2452
 total energy-change (2. order) : 0.1199370E-02  (-0.1113514E-03)
 number of electron      20.0000000 magnetization 
 augmentation part       -4.4848301 magnetization 

 Broyden mixing:
  rms(total) = 0.51479E-02    rms(broyden)= 0.51479E-02
  rms(prec ) = 0.95468E-02
  weight for this iteration     100.00

 eigenvalues of (default mixing * dielectric matrix)
  average eigenvalue GAMMA=   1.8782
  3.3857  2.6033  1.2478  1.2478  0.9062

 Free energy of the ion-electron system (eV)
  ---------------------------------------------------
  alpha Z        PSCENC =         9.58086446
  Ewald energy   TEWEN  =      1165.67779028
  -Hartree energ DENC   =     -1785.67850403
  -exchange      EXHF   =         0.00000000
  -V(xc)+E(xc)   XCENC  =      -237.55934502
  PAW double counting   =      1145.53168663     -870.65013624
  entropy T*S    EENTRO =        -0.00000000
  eigenvalues    EBANDS =      -145.59199014
  atomic energy  EATOM  =       702.42789710
  Solvation  Ediel_sol  =         0.00000000
  ---------------------------------------------------
  free energy    TOTEN  =       -16.26173697 eV

  energy without entropy =      -16.26173697  energy(sigma->0) =      -16.26173697


--------------------------------------------------------------------------------------------------------




--------------------------------------- Iteration      1(  11)  ---------------------------------------


    POTLOK:  cpu time    0.0444: real time    0.0445
    SETDIJ:  cpu time    0.0037: real time    0.0037
     EDDAV:  cpu time    1.5831: real time    1.5860
       DOS:  cpu time    0.0018: real time    0.0018
    CHARGE:  cpu time    0.1178: real time    0.1179
    MIXING:  cpu time    0.0016: real time    0.0016
    --------------------------------------------
      LOOP:  cpu time    1.7524: real time    1.7556

 eigenvalue-minimisations  :  2416
 total energy-change (2. order) : 0.7791541E-03  (-0.1393435E-03)
 number of electron      20.0000000 magnetization 
 augmentation part       -4.4833657 magnetization 

 Broyden mixing:
  rms(total) = 0.33998E-02    rms(broyden)= 0.33998E-02
  rms(prec ) = 0.50614E-02
  weight for this iteration     100.00

 eigenvalues of (default mixing * dielectric matrix)
  average eigenvalue GAMMA=   1.8399
  3.4018  2.1832  2.1832  1.1987  1.1987  0.8737

 Free energy of the ion-electron system (eV)
  ---------------------------------------------------
  alpha Z        PSCENC =         9.58086446
  Ewald energy   TEWEN  =      1165.67779028
  -Hartree energ DENC   =     -1787.36871855
  -exchange      EXHF   =         0.00000000
  -V(xc)+E(xc)   XCENC  =      -237.52682943
  PAW double counting   =      1146.64657634     -871.76361597
  entropy T*S    EENTRO =        -0.00000000
  eigenvalues    EBANDS =      -143.93492205
  atomic energy  EATOM  =       702.42789710
  Solvation  Ediel_sol  =         0.00000000
  ---------------------------------------------------
  free energy    TOTEN  =       -16.26095781 eV

  energy without entropy =      -16.26095781  energy(sigma->0) =      -16.26095781


--------------------------------------------------------------------------------------------------------




--------------------------------------- Iteration      1(  12)  ---------------------------------------


    POTLOK:  cpu time    0.0430: real time    0.0431
    SETDIJ:  cpu time    0.0037: real time    0.0038
     EDDAV:  cpu time    1.3819: real time    1.3846
       DOS:  cpu time    0.0018: real time    0.0018
    CHARGE:  cpu time    0.1152: real time    0.1154
    MIXING:  cpu time    0.0016: real time    0.0016
    --------------------------------------------
      LOOP:  cpu time    1.5473: real time    1.5503

 eigenvalue-minimisations  :  2004
 total energy-change (2. order) :-0.8209998E-03  (-0.3147056E-04)
 number of electron      20.0000000 magnetization 
 augmentation part       -4.4827480 magnetization 

 Broyden mixing:
  rms(total) = 0.19880E-02    rms(broyden)= 0.19880E-02
  rms(prec ) = 0.29557E-02
  weight for this iteration     100.00

 eigenvalues of (default mixing * dielectric matrix)
  average eigenvalue GAMMA=   2.0705
  4.5962  3.0978  2.5035  1.2141  1.2141  1.0275  0.8403

 Free energy of the ion-electron system (eV)
  ---------------------------------------------------
  alpha Z        PSCENC =         9.58086446
  Ewald energy   TEWEN  =      1165.67779028
  -Hartree energ DENC   =     -1787.97784676
  -exchange      EXHF   =         0.00000000
  -V(xc)+E(xc)   XCENC  =      -237.51723474
  PAW double counting   =      1148.81225464     -873.93244422
  entropy T*S    EENTRO =        -0.00000000
  eigenvalues    EBANDS =      -143.33305958
  atomic energy  EATOM  =       702.42789710
  Solvation  Ediel_sol  =         0.00000000
  ---------------------------------------------------
  free energy    TOTEN  =       -16.26177881 eV

  energy without entropy =      -16.26177881  energy(sigma->0) =      -16.26177881


--------------------------------------------------------------------------------------------------------




--------------------------------------- Iteration      1(  13)  ---------------------------------------


    POTLOK:  cpu time    0.0431: real time    0.0432
    SETDIJ:  cpu time    0.0038: real time    0.0038
     EDDAV:  cpu time    1.4510: real time    1.4539
       DOS:  cpu time    0.0018: real time    0.0018
    CHARGE:  cpu time    0.1167: real time    0.1169
    MIXING:  cpu time    0.0017: real time    0.0017
    --------------------------------------------
      LOOP:  cpu time    1.6180: real time    1.6212

 eigenvalue-minimisations  :  2116
 total energy-change (2. order) :-0.4434297E-03  (-0.8625633E-05)
 number of electron      20.0000000 magnetization 
 augmentation part       -4.4825391 magnetization 

 Broyden mixing:
  rms(total) = 0.12123E-02    rms(broyden)= 0.12123E-02
  rms(prec ) = 0.15753E-02
  weight for this iteration     100.00

 eigenvalues of (default mixing * dielectric matrix)
  average eigenvalue GAMMA=   2.2249
  5.5323  3.3300  2.4932  2.1500  1.1652  1.1652  1.0558  0.9074

 Free energy of the ion-electron system (eV)
  ---------------------------------------------------
  alpha Z        PSCENC =         9.58086446
  Ewald energy   TEWEN  =      1165.67779028
  -Hartree energ DENC   =     -1788.40095140
  -exchange      EXHF   =         0.00000000
  -V(xc)+E(xc)   XCENC  =      -237.51613323
  PAW double counting   =      1147.44335119     -872.56217956
  entropy T*S    EENTRO =        -0.00000000
  eigenvalues    EBANDS =      -142.91286108
  atomic energy  EATOM  =       702.42789710
  Solvation  Ediel_sol  =         0.00000000
  ---------------------------------------------------
  free energy    TOTEN  =       -16.26222224 eV

  energy without entropy =      -16.26222224  energy(sigma->0) =      -16.26222224


--------------------------------------------------------------------------------------------------------




--------------------------------------- Iteration      1(  14)  ---------------------------------------


    POTLOK:  cpu time    0.0438: real time    0.0439
    SETDIJ:  cpu time    0.0037: real time    0.0037
     EDDAV:  cpu time    1.4759: real time    1.4785
       DOS:  cpu time    0.0018: real time    0.0018
    CHARGE:  cpu time    0.1159: real time    0.1161
    MIXING:  cpu time    0.0018: real time    0.0018
    --------------------------------------------
      LOOP:  cpu time    1.6429: real time    1.6458

 eigenvalue-minimisations  :  2218
 total energy-change (2. order) :-0.2639749E-03  (-0.4358722E-05)
 number of electron      20.0000000 magnetization 
 augmentation part       -4.4825186 magnetization 

 Broyden mixing:
  rms(total) = 0.41479E-03    rms(broyden)= 0.41479E-03
  rms(prec ) = 0.63197E-03
  weight for this iteration     100.00

 eigenvalues of (default mixing * dielectric matrix)
  average eigenvalue GAMMA=   2.2405
  6.7283  3.0747  2.5312  2.5312  1.1897  1.1897  1.0633  0.9284  0.9284

 Free energy of the ion-electron system (eV)
  ---------------------------------------------------
  alpha Z        PSCENC =         9.58086446
  Ewald energy   TEWEN  =      1165.67779028
  -Hartree energ DENC   =     -1788.60892491
  -exchange      EXHF   =         0.00000000
  -V(xc)+E(xc)   XCENC  =      -237.51603041
  PAW double counting   =      1147.73262388     -872.85085777
  entropy T*S    EENTRO =        -0.00000000
  eigenvalues    EBANDS =      -142.70584885
  atomic energy  EATOM  =       702.42789710
  Solvation  Ediel_sol  =         0.00000000
  ---------------------------------------------------
  free energy    TOTEN  =       -16.26248622 eV

  energy without entropy =      -16.26248622  energy(sigma->0) =      -16.26248622


--------------------------------------------------------------------------------------------------------




--------------------------------------- Iteration      1(  15)  ---------------------------------------


    POTLOK:  cpu time    0.0442: real time    0.0444
    SETDIJ:  cpu time    0.0038: real time    0.0038
     EDDAV:  cpu time    1.4715: real time    1.4765
       DOS:  cpu time    0.0018: real time    0.0018
    CHARGE:  cpu time    0.1158: real time    0.1162
    MIXING:  cpu time    0.0018: real time    0.0018
    --------------------------------------------
      LOOP:  cpu time    1.6388: real time    1.6444

 eigenvalue-minimisations  :  2138
 total energy-change (2. order) :-0.5492343E-04  (-0.2022743E-06)
 number of electron      20.0000000 magnetization 
 augmentation part       -4.4825346 magnetization 

 Broyden mixing:
  rms(total) = 0.34823E-03    rms(broyden)= 0.34823E-03
  rms(prec ) = 0.51854E-03
  weight for this iteration     100.00

 eigenvalues of (default mixing * dielectric matrix)
  average eigenvalue GAMMA=   2.3541
  6.5411  4.2555  2.7041  2.7041  1.9817  1.1439  1.1439  1.2003  0.9332  0.9332

 Free energy of the ion-electron system (eV)
  ---------------------------------------------------
  alpha Z        PSCENC =         9.58086446
  Ewald energy   TEWEN  =      1165.67779028
  -Hartree energ DENC   =     -1788.62520449
  -exchange      EXHF   =         0.00000000
  -V(xc)+E(xc)   XCENC  =      -237.51632227
  PAW double counting   =      1147.56449089     -872.68260238
  entropy T*S    EENTRO =        -0.00000000
  eigenvalues    EBANDS =      -142.68945474
  atomic energy  EATOM  =       702.42789710
  Solvation  Ediel_sol  =         0.00000000
  ---------------------------------------------------
  free energy    TOTEN  =       -16.26254114 eV

  energy without entropy =      -16.26254114  energy(sigma->0) =      -16.26254114


--------------------------------------------------------------------------------------------------------




--------------------------------------- Iteration      1(  16)  ---------------------------------------


    POTLOK:  cpu time    0.0426: real time    0.0430
    SETDIJ:  cpu time    0.0037: real time    0.0038
     EDDAV:  cpu time    1.3529: real time    1.3577
       DOS:  cpu time    0.0018: real time    0.0018
    CHARGE:  cpu time    0.1150: real time    0.1153
    MIXING:  cpu time    0.0018: real time    0.0019
    --------------------------------------------
      LOOP:  cpu time    1.5178: real time    1.5235

 eigenvalue-minimisations  :  1962
 total energy-change (2. order) :-0.4824167E-04  (-0.8493492E-06)
 number of electron      20.0000000 magnetization 
 augmentation part       -4.4825466 magnetization 

 Broyden mixing:
  rms(total) = 0.13096E-03    rms(broyden)= 0.13096E-03
  rms(prec ) = 0.23061E-03
  weight for this iteration     100.00

 eigenvalues of (default mixing * dielectric matrix)
  average eigenvalue GAMMA=   2.2825
  6.7953  4.5050  2.6441  2.6441  2.2801  1.1603  1.1603  1.1863  0.9315  0.9315
  0.8690

 Free energy of the ion-electron system (eV)
  ---------------------------------------------------
  alpha Z        PSCENC =         9.58086446
  Ewald energy   TEWEN  =      1165.67779028
  -Hartree energ DENC   =     -1788.67807425
  -exchange      EXHF   =         0.00000000
  -V(xc)+E(xc)   XCENC  =      -237.51644443
  PAW double counting   =      1147.38276621     -872.50086418
  entropy T*S    EENTRO =        -0.00000000
  eigenvalues    EBANDS =      -142.63652458
  atomic energy  EATOM  =       702.42789710
  Solvation  Ediel_sol  =         0.00000000
  ---------------------------------------------------
  free energy    TOTEN  =       -16.26258938 eV

  energy without entropy =      -16.26258938  energy(sigma->0) =      -16.26258938


--------------------------------------------------------------------------------------------------------




--------------------------------------- Iteration      1(  17)  ---------------------------------------


    POTLOK:  cpu time    0.0425: real time    0.0430
    SETDIJ:  cpu time    0.0053: real time    0.0054
     EDDAV:  cpu time    1.3220: real time    1.3264
       DOS:  cpu time    0.0018: real time    0.0018
    CHARGE:  cpu time    0.1170: real time    0.1171
    MIXING:  cpu time    0.0019: real time    0.0019
    --------------------------------------------
      LOOP:  cpu time    1.4905: real time    1.4956

 eigenvalue-minimisations  :  1892
 total energy-change (2. order) :-0.2376117E-04  (-0.1256068E-06)
 number of electron      20.0000000 magnetization 
 augmentation part       -4.4825275 magnetization 

 Broyden mixing:
  rms(total) = 0.13266E-03    rms(broyden)= 0.13266E-03
  rms(prec ) = 0.19041E-03
  weight for this iteration     100.00

 eigenvalues of (default mixing * dielectric matrix)
  average eigenvalue GAMMA=   2.3947
  6.9265  5.2349  2.9483  2.9483  2.2809  2.0490  1.1571  1.1571  0.9174  0.9628
  1.0772  1.0772

 Free energy of the ion-electron system (eV)
  ---------------------------------------------------
  alpha Z        PSCENC =         9.58086446
  Ewald energy   TEWEN  =      1165.67779028
  -Hartree energ DENC   =     -1788.69345013
  -exchange      EXHF   =         0.00000000
  -V(xc)+E(xc)   XCENC  =      -237.51630565
  PAW double counting   =      1147.44783197     -872.56604842
  entropy T*S    EENTRO =        -0.00000000
  eigenvalues    EBANDS =      -142.62119276
  atomic energy  EATOM  =       702.42789710
  Solvation  Ediel_sol  =         0.00000000
  ---------------------------------------------------
  free energy    TOTEN  =       -16.26261314 eV

  energy without entropy =      -16.26261314  energy(sigma->0) =      -16.26261314


--------------------------------------------------------------------------------------------------------




--------------------------------------- Iteration      1(  18)  ---------------------------------------


    POTLOK:  cpu time    0.0428: real time    0.0429
    SETDIJ:  cpu time    0.0038: real time    0.0038
     EDDAV:  cpu time    1.3882: real time    1.3987
       DOS:  cpu time    0.0018: real time    0.0018
    CHARGE:  cpu time    0.1151: real time    0.1153
    MIXING:  cpu time    0.0020: real time    0.0020
    --------------------------------------------
      LOOP:  cpu time    1.5537: real time    1.5645

 eigenvalue-minimisations  :  2038
 total energy-change (2. order) :-0.3825393E-04  (-0.3892953E-06)
 number of electron      20.0000000 magnetization 
 augmentation part       -4.4825179 magnetization 

 Broyden mixing:
  rms(total) = 0.65078E-04    rms(broyden)= 0.65078E-04
  rms(prec ) = 0.79951E-04
  weight for this iteration     100.00

 eigenvalues of (default mixing * dielectric matrix)
  average eigenvalue GAMMA=   2.3333
  7.0685  5.4272  2.9120  2.9120  2.4546  2.0843  1.1647  1.1647  1.2155  0.8905
  1.0587  0.9899  0.9899

 Free energy of the ion-electron system (eV)
  ---------------------------------------------------
  alpha Z        PSCENC =         9.58086446
  Ewald energy   TEWEN  =      1165.67779028
  -Hartree energ DENC   =     -1788.71600769
  -exchange      EXHF   =         0.00000000
  -V(xc)+E(xc)   XCENC  =      -237.51630016
  PAW double counting   =      1147.43873966     -872.55692538
  entropy T*S    EENTRO =        -0.00000000
  eigenvalues    EBANDS =      -142.59870967
  atomic energy  EATOM  =       702.42789710
  Solvation  Ediel_sol  =         0.00000000
  ---------------------------------------------------
  free energy    TOTEN  =       -16.26265140 eV

  energy without entropy =      -16.26265140  energy(sigma->0) =      -16.26265140


--------------------------------------------------------------------------------------------------------




--------------------------------------- Iteration      1(  19)  ---------------------------------------


    POTLOK:  cpu time    0.0431: real time    0.0432
    SETDIJ:  cpu time    0.0038: real time    0.0038
     EDDAV:  cpu time    1.3282: real time    1.3307
       DOS:  cpu time    0.0018: real time    0.0018
    CHARGE:  cpu time    0.1155: real time    0.1157
    MIXING:  cpu time    0.0021: real time    0.0021
    --------------------------------------------
      LOOP:  cpu time    1.4944: real time    1.4971

 eigenvalue-minimisations  :  1910
 total energy-change (2. order) :-0.5282680E-05  (-0.1363104E-07)
 number of electron      20.0000000 magnetization 
 augmentation part       -4.4825246 magnetization 

 Broyden mixing:
  rms(total) = 0.38371E-04    rms(broyden)= 0.38371E-04
  rms(prec ) = 0.47830E-04
  weight for this iteration     100.00

 eigenvalues of (default mixing * dielectric matrix)
  average eigenvalue GAMMA=   2.5636
  7.4432  7.4432  3.8265  3.0451  2.3807  2.3807  1.9540  1.1600  1.1600  1.0921
  1.0921  0.9178  0.9580  1.0372

 Free energy of the ion-electron system (eV)
  ---------------------------------------------------
  alpha Z        PSCENC =         9.58086446
  Ewald energy   TEWEN  =      1165.67779028
  -Hartree energ DENC   =     -1788.71587126
  -exchange      EXHF   =         0.00000000
  -V(xc)+E(xc)   XCENC  =      -237.51632525
  PAW double counting   =      1147.48011658     -872.59832123
  entropy T*S    EENTRO =        -0.00000000
  eigenvalues    EBANDS =      -142.59880736
  atomic energy  EATOM  =       702.42789710
  Solvation  Ediel_sol  =         0.00000000
  ---------------------------------------------------
  free energy    TOTEN  =       -16.26265668 eV

  energy without entropy =      -16.26265668  energy(sigma->0) =      -16.26265668


--------------------------------------------------------------------------------------------------------




--------------------------------------- Iteration      1(  20)  ---------------------------------------


    POTLOK:  cpu time    0.0426: real time    0.0427
    SETDIJ:  cpu time    0.0038: real time    0.0038
     EDDAV:  cpu time    1.1209: real time    1.1229
       DOS:  cpu time    0.0018: real time    0.0018
    CHARGE:  cpu time    0.1153: real time    0.1155
    MIXING:  cpu time    0.0035: real time    0.0035
    --------------------------------------------
      LOOP:  cpu time    1.2878: real time    1.2901

 eigenvalue-minimisations  :  1520
 total energy-change (2. order) :-0.7113470E-05  (-0.4027924E-07)
 number of electron      20.0000000 magnetization 
 augmentation part       -4.4825267 magnetization 

 Broyden mixing:
  rms(total) = 0.21725E-04    rms(broyden)= 0.21725E-04
  rms(prec ) = 0.23910E-04
  weight for this iteration     100.00

 eigenvalues of (default mixing * dielectric matrix)
  average eigenvalue GAMMA=   2.5613
  7.8655  7.7410  4.0460  2.9947  2.3464  2.3464  2.1959  1.4900  1.1569  1.1569
  0.9076  1.0731  1.0142  1.0424  1.0424

 Free energy of the ion-electron system (eV)
  ---------------------------------------------------
  alpha Z        PSCENC =         9.58086446
  Ewald energy   TEWEN  =      1165.67779028
  -Hartree energ DENC   =     -1788.72007167
  -exchange      EXHF   =         0.00000000
  -V(xc)+E(xc)   XCENC  =      -237.51633031
  PAW double counting   =      1147.46396589     -872.58214351
  entropy T*S    EENTRO =        -0.00000000
  eigenvalues    EBANDS =      -142.59463604
  atomic energy  EATOM  =       702.42789710
  Solvation  Ediel_sol  =         0.00000000
  ---------------------------------------------------
  free energy    TOTEN  =       -16.26266379 eV

  energy without entropy =      -16.26266379  energy(sigma->0) =      -16.26266379


--------------------------------------------------------------------------------------------------------




--------------------------------------- Iteration      1(  21)  ---------------------------------------


    POTLOK:  cpu time    0.0428: real time    0.0430
    SETDIJ:  cpu time    0.0038: real time    0.0038
     EDDAV:  cpu time    1.2605: real time    1.2629
       DOS:  cpu time    0.0018: real time    0.0018
    --------------------------------------------
      LOOP:  cpu time    1.3088: real time    1.3113

 eigenvalue-minimisations  :  1802
 total energy-change (2. order) :-0.8524260E-06  (-0.4157846E-08)
 number of electron      20.0000000 magnetization 
 augmentation part       -4.4825267 magnetization 

 Free energy of the ion-electron system (eV)
  ---------------------------------------------------
  alpha Z        PSCENC =         9.58086446
  Ewald energy   TEWEN  =      1165.67779028
  -Hartree energ DENC   =     -1788.72161894
  -exchange      EXHF   =         0.00000000
  -V(xc)+E(xc)   XCENC  =      -237.51630672
  PAW double counting   =      1147.46091097     -872.57908790
  entropy T*S    EENTRO =        -0.00000000
  eigenvalues    EBANDS =      -142.59311390
  atomic energy  EATOM  =       702.42789710
  Solvation  Ediel_sol  =         0.00000000
  ---------------------------------------------------
  free energy    TOTEN  =       -16.26266465 eV

  energy without entropy =      -16.26266465  energy(sigma->0) =      -16.26266465


--------------------------------------------------------------------------------------------------------




 average (electrostatic) potential at core
  the test charge radii are     1.4072  1.0808
  (the norm of the test charge is              1.0000)
       1 -51.2187       2 -51.2187       3 -59.9274       4 -59.9274
 
 
 
 E-fermi :  -1.4771     XC(G=0):  -3.3512     alpha+bet : -2.6961


 k-point     1 :       0.0000    0.0000    0.0000
  band No.  band energies     occupation 
      1     -15.3323      2.00000
      2     -14.3257      2.00000
      3      -8.2157      2.00000
      4      -7.2331      2.00000
      5      -5.4159      2.00000
      6      -5.0660      2.00000
      7      -5.0347      2.00000
      8      -3.8751      2.00000
      9      -3.8070      2.00000
     10      -2.5821      2.00000
     11      -0.4551      0.00000
     12       1.3668      0.00000
     13       1.8288      0.00000
     14       2.0433      0.00000

 k-point     2 :       0.0667    0.0000    0.0000
  band No.  band energies     occupation 
      1     -15.3136      2.00000
      2     -14.3229      2.00000
      3      -8.2871      2.00000
      4      -7.3150      2.00000
      5      -5.4205      2.00000
      6      -5.0348      2.00000
      7      -4.9659      2.00000
      8      -3.8533      2.00000
      9      -3.6955      2.00000
     10      -2.5989      2.00000
     11      -0.4442      0.00000
     12       1.4224      0.00000
     13       1.7314      0.00000
     14       1.9460      0.00000

 k-point     3 :       0.1333    0.0000    0.0000
  band No.  band energies     occupation 
      1     -15.2584      2.00000
[...]
  band No.  band energies     occupation 
      1     -14.5642      2.00000
      2     -14.2531      2.00000
      3      -8.7058      2.00000
      4      -8.4590      2.00000
      5      -6.3920      2.00000
      6      -5.1499      2.00000
      7      -5.0078      2.00000
      8      -4.0309      2.00000
      9      -4.0158      2.00000
     10      -3.0674      2.00000
     11       0.2186      0.00000
     12       1.1854      0.00000
     13       1.5140      0.00000
     14       1.8263      0.00000

 k-point    47 :       0.4000    0.3333    0.0000
  band No.  band energies     occupation 
      1     -14.4674      2.00000
      2     -14.2712      2.00000
      3      -8.6114      2.00000
      4      -8.4716      2.00000
      5      -6.4200      2.00000
      6      -5.5612      2.00000
      7      -5.0080      2.00000
      8      -4.3155      2.00000
      9      -3.9701      2.00000
     10      -3.3769      2.00000
     11       0.5739      0.00000
     12       1.3726      0.00000
     13       1.6628      0.00000
     14       2.3684      0.00000

 k-point    48 :       0.4667    0.3333    0.0000
  band No.  band energies     occupation 
      1     -14.3810      2.00000
      2     -14.3139      2.00000
      3      -8.5469      2.00000
      4      -8.5025      2.00000
      5      -6.2653      2.00000
      6      -5.9613      2.00000
      7      -4.8695      2.00000
      8      -4.6207      2.00000
      9      -3.8172      2.00000
     10      -3.6178      2.00000
     11       0.8852      0.00000
     12       1.1555      0.00000
     13       2.0867      0.00000
     14       2.3799      0.00000

 k-point    49 :       0.0000    0.4000    0.0000
  band No.  band energies     occupation 
      1     -14.7216      2.00000
      2     -14.3581      2.00000
      3      -9.2304      2.00000
      4      -8.8721      2.00000
      5      -4.7689      2.00000
      6      -4.1738      2.00000
      7      -4.0212      2.00000
      8      -3.4906      2.00000
      9      -2.7824      2.00000
     10      -1.9798      2.00000
     11      -0.9853      0.00000
     12      -0.0529      0.00000
     13       0.1052      0.00000
     14       0.3424      0.00000

 k-point    50 :       0.0667    0.4000    0.0000
  band No.  band energies     occupation 
      1     -14.7087      2.00000
      2     -14.3517      2.00000
      3      -9.2022      2.00000
      4      -8.8521      2.00000
      5      -4.7616      2.00000
      6      -4.5410      2.00000
      7      -3.9147      2.00000
      8      -3.6905      2.00000
      9      -2.5847      2.00000
     10      -2.2842      2.00000
     11      -0.7282      0.00000
     12      -0.3557      0.00000
     13       0.2579      0.00000
     14       0.3692      0.00000

 k-point    51 :       0.1333    0.4000    0.0000
  band No.  band energies     occupation 
      1     -14.6714      2.00000
      2     -14.3339      2.00000
      3      -9.1191      2.00000
      4      -8.7939      2.00000
      5      -5.0912      2.00000
      6      -4.7513      2.00000
      7      -4.1187      2.00000
      8      -3.8926      2.00000
      9      -2.8879      2.00000
     10      -2.4164      2.00000
     11      -0.6060      0.00000
     12      -0.1143      0.00000
     13       0.4923      0.00000
     14       0.8277      0.00000

 k-point    52 :       0.2000    0.4000    0.0000
  band No.  band energies     occupation 
      1     -14.6134      2.00000
      2     -14.3089      2.00000
      3      -8.9859      2.00000
      4      -8.7042      2.00000
      5      -5.6253      2.00000
      6      -4.8071      2.00000
      7      -4.5435      2.00000
      8      -3.9345      2.00000
      9      -3.4836      2.00000
     10      -2.6770      2.00000
     11      -0.3059      0.00000
     12       0.6305      0.00000
     13       0.7245      0.00000
     14       1.2475      0.00000

 k-point    53 :       0.2667    0.4000    0.0000
  band No.  band energies     occupation 
      1     -14.5409      2.00000
      2     -14.2834      2.00000
      3      -8.8131      2.00000
      4      -8.5942      2.00000
      5      -6.0784      2.00000
      6      -5.1106      2.00000
      7      -4.8019      2.00000
      8      -4.0653      2.00000
      9      -3.8768      2.00000
     10      -3.0808      2.00000
     11       0.1719      0.00000
     12       1.1143      0.00000
     13       1.2192      0.00000
     14       1.6366      0.00000

 k-point    54 :       0.3333    0.4000    0.0000
  band No.  band energies     occupation 
      1     -14.4622      2.00000
      2     -14.2655      2.00000
      3      -8.6220      2.00000
      4      -8.4809      2.00000
      5      -6.4090      2.00000
      6      -5.5132      2.00000
      7      -5.0573      2.00000
      8      -4.3291      2.00000
      9      -3.9743      2.00000
     10      -3.3782      2.00000
     11       0.5669      0.00000
     12       1.3682      0.00000
     13       1.6494      0.00000
     14       2.3278      0.00000

 k-point    55 :       0.4000    0.4000    0.0000
  band No.  band energies     occupation 
      1     -14.3870      2.00000
      2     -14.2633      2.00000
      3      -8.4505      2.00000
      4      -8.3853      2.00000
      5      -6.5750      2.00000
      6      -5.9357      2.00000
      7      -5.2015      2.00000
      8      -4.6699      2.00000
      9      -3.9164      2.00000
     10      -3.5560      2.00000
     11       0.8762      0.00000
     12       1.3747      0.00000
     13       2.1801      0.00000
     14       2.8240      0.00000

 k-point    56 :       0.4667    0.4000    0.0000
  band No.  band energies     occupation 
      1     -14.3247      2.00000
      2     -14.2824      2.00000
      3      -8.3467      2.00000
      4      -8.3313      2.00000
      5      -6.5389      2.00000
      6      -6.3058      2.00000
      7      -5.1668      2.00000
      8      -4.9743      2.00000
      9      -3.8091      2.00000
     10      -3.6881      2.00000
     11       1.1210      0.00000
     12       1.2909      0.00000
     13       2.5591      0.00000
     14       2.7829      0.00000

 k-point    57 :       0.0000    0.4667    0.0000
  band No.  band energies     occupation 
      1     -14.5759      2.00000
      2     -14.4509      2.00000
      3      -9.2173      2.00000
      4      -9.0940      2.00000
      5      -4.5191      2.00000
      6      -4.2889      2.00000
      7      -3.7989      2.00000
      8      -3.5974      2.00000
      9      -2.4898      2.00000
     10      -2.1266      2.00000
     11      -0.8666      0.00000
     12      -0.4118      0.00000
     13      -0.0657      0.00000
     14       0.1360      0.00000

 k-point    58 :       0.0667    0.4667    0.0000
  band No.  band energies     occupation 
      1     -14.5653      2.00000
      2     -14.4424      2.00000
      3      -9.1883      2.00000
      4      -9.0679      2.00000
      5      -4.5298      2.00000
      6      -4.3915      2.00000
      7      -3.9725      2.00000
      8      -3.8208      2.00000
      9      -2.3989      2.00000
     10      -2.2956      2.00000
     11      -0.7734      0.00000
     12      -0.6703      0.00000
     13       0.3146      0.00000
     14       0.6149      0.00000

 k-point    59 :       0.1333    0.4667    0.0000
  band No.  band energies     occupation 
      1     -14.5345      2.00000
      2     -14.4185      2.00000
      3      -9.1025      2.00000
      4      -8.9907      2.00000
      5      -4.8075      2.00000
      6      -4.6288      2.00000
      7      -4.2176      2.00000
      8      -4.1022      2.00000
      9      -2.7976      2.00000
     10      -2.5807      2.00000
     11      -0.5146      0.00000
     12      -0.2656      0.00000
     13       0.7939      0.00000
     14       0.9146      0.00000

 k-point    60 :       0.2000    0.4667    0.0000
  band No.  band energies     occupation 
      1     -14.4876      2.00000
      2     -14.3830      2.00000
      3      -8.9633      2.00000
      4      -8.8667      2.00000
      5      -5.3388      2.00000
      6      -5.0107      2.00000
      7      -4.4100      2.00000
      8      -4.1736      2.00000
      9      -3.3450      2.00000
     10      -3.0388      2.00000
     11       0.0284      0.00000
     12       0.3969      0.00000
     13       1.0347      0.00000
     14       1.2636      0.00000

 k-point    61 :       0.2667    0.4667    0.0000
  band No.  band energies     occupation 
      1     -14.4309      2.00000
      2     -14.3426      2.00000
      3      -8.7786      2.00000
      4      -8.7044      2.00000
      5      -5.8320      2.00000
      6      -5.4856      2.00000
      7      -4.6024      2.00000
      8      -4.3387      2.00000
      9      -3.7086      2.00000
     10      -3.4302      2.00000
     11       0.5356      0.00000
     12       0.8927      0.00000
     13       1.4734      0.00000
     14       1.7302      0.00000

 k-point    62 :       0.3333    0.4667    0.0000
  band No.  band energies     occupation 
      1     -14.3726      2.00000
      2     -14.3052      2.00000
      3      -8.5646      2.00000
      4      -8.5193      2.00000
      5      -6.2384      2.00000
      6      -5.9196      2.00000
      7      -4.9155      2.00000
      8      -4.6521      2.00000
      9      -3.8181      2.00000
     10      -3.6176      2.00000
     11       0.8757      0.00000
     12       1.1471      0.00000
     13       2.0612      0.00000
     14       2.3436      0.00000

 k-point    63 :       0.4000    0.4667    0.0000
  band No.  band energies     occupation 
      1     -14.3216      2.00000
      2     -14.2793      2.00000
      3      -8.3559      2.00000
      4      -8.3400      2.00000
      5      -6.5233      2.00000
      6      -6.2853      2.00000
      7      -5.1874      2.00000
      8      -4.9897      2.00000
      9      -3.8076      2.00000
     10      -3.6864      2.00000
     11       1.1173      0.00000
     12       1.2873      0.00000
     13       2.5596      0.00000
     14       2.7940      0.00000

 k-point    64 :       0.4667    0.4667    0.0000
  band No.  band energies     occupation 
      1     -14.2863      2.00000
      2     -14.2718      2.00000
      3      -8.2180      2.00000
      4      -8.2173      2.00000
      5      -6.6395      2.00000
      6      -6.5481      2.00000
      7      -5.3015      2.00000
      8      -5.2278      2.00000
      9      -3.7671      2.00000
     10      -3.7263      2.00000
     11       1.2783      0.00000
     12       1.3363      0.00000
     13       2.7006      0.00000
     14       2.7769      0.00000


--------------------------------------------------------------------------------------------------------


 soft charge-density along one line, spin component           1
         0         1         2         3         4         5         6         7         8         9
 total charge-density along one line
 
 pseudopotential strength for first ion, spin component:           1
 30.072 -23.427  -0.000  -0.089   0.029  -0.000  -0.140   0.046
-23.427  28.111   0.000   0.050  -0.016   0.000   0.082  -0.026
 -0.000   0.000   6.329  -0.000   0.000   9.791  -0.000   0.000
 -0.089   0.050  -0.000   6.327   0.001  -0.000   9.788   0.002
  0.029  -0.016   0.000   0.001   6.329   0.000   0.002   9.791
 -0.000   0.000   9.791  -0.000   0.000  15.218  -0.000   0.000
 -0.140   0.082  -0.000   9.788   0.002  -0.000  15.212   0.003
  0.046  -0.026   0.000   0.002   9.791   0.000   0.003  15.218
  0.000  -0.000   0.006   0.000  -0.000   0.009   0.000  -0.000
 -0.000   0.000  -0.020  -0.000   0.000  -0.031  -0.000   0.000
 -0.002   0.003   0.000  -0.023  -0.004   0.000  -0.035  -0.005
  0.003  -0.001   0.000   0.007  -0.020   0.000   0.011  -0.031
 -0.000   0.000   0.000  -0.000   0.007   0.000  -0.000   0.011
 total augmentation occupancy for first ion, spin component:           1
  2.026  -0.015  -0.000   0.237  -0.073   0.000  -0.042   0.013   0.000  -0.000   0.024   0.002   0.000
 -0.015   0.009   0.000  -0.073   0.023  -0.000   0.018  -0.005   0.000  -0.000  -0.002   0.001  -0.000
  0.000   0.000   1.508  -0.000   0.000  -0.406   0.000   0.000   0.104  -0.042  -0.000  -0.000   0.000
  0.237  -0.073   0.000   1.839  -0.000   0.000  -0.487  -0.012   0.000   0.000  -0.268  -0.015  -0.000
 -0.073   0.023   0.000  -0.000   1.495   0.000  -0.012  -0.398   0.000   0.000  -0.066  -0.044  -0.005
 -0.000   0.000  -0.406  -0.000   0.000   0.118   0.000  -0.000  -0.028   0.012   0.000  -0.000   0.000
 -0.042   0.018   0.000  -0.487  -0.012   0.000   0.141   0.006  -0.000   0.000   0.074   0.004   0.000
  0.013  -0.005   0.000  -0.012  -0.398   0.000   0.006   0.115   0.000   0.000   0.018   0.012   0.002
  0.000   0.000   0.104  -0.000   0.000  -0.028   0.000   0.000   0.078   0.000   0.000   0.000   0.000
  0.000  -0.000  -0.042   0.000   0.000   0.012   0.000   0.000   0.000   0.021   0.000   0.000   0.000
  0.024  -0.002   0.000  -0.268  -0.066  -0.000   0.074   0.018   0.000   0.000   0.079   0.005   0.001
  0.002   0.001   0.000  -0.015  -0.044   0.000   0.004   0.012   0.000   0.000   0.005   0.022   0.000
  0.000  -0.000   0.000  -0.000  -0.005   0.000   0.000   0.002   0.000   0.000   0.001   0.000   0.017


------------------------ aborting loop because EDIFF is reached ----------------------------------------


    CHARGE:  cpu time    0.1157: real time    0.1158
    FORLOC:  cpu time    0.0017: real time    0.0017
    FORNL :  cpu time    0.1801: real time    0.1804
    STRESS:  cpu time    0.4256: real time    0.4263
    FORCOR:  cpu time    0.0442: real time    0.0444
    FORHAR:  cpu time    0.0128: real time    0.0128
    MIXING:  cpu time    0.0011: real time    0.0011
    OFIELD:  cpu time    0.0000: real time    0.0000

  FORCE on cell =-STRESS in cart. coord.  units (eV):
  Direction    XX          YY          ZZ          XY          YZ          ZX
  --------------------------------------------------------------------------------------
  Alpha Z     9.58086     9.58086     9.58086
  Ewald    1619.93754  1623.19191 -2079.15211     0.00000    -0.00000     0.00000
  Hartree  1739.81614  1740.92742 -1693.51113    -0.00000    -0.00000     0.00000
  E(xc)     -77.69250   -77.69986   -78.92834    -0.00000    -0.00000     0.00000
  Local   -3612.51380 -3616.46065  3517.78249    -0.00000    -0.00000     0.00000
  n-local   162.59222   162.72872   167.26521    -0.46656     0.00000     0.00000
  augment   -31.87612   -31.83122   -32.80371     0.00000    -0.00000     0.00000
  Kinetic   190.35791   189.73226   189.76608     5.65152    -0.00000    -0.00000
  Fock        0.00000     0.00000     0.00000     0.00000     0.00000     0.00000
  -------------------------------------------------------------------------------------
  Total       0.20225     0.16945    -0.00064     0.00000     0.00000     0.00000
  in kB       0.86826     0.72742    -0.00274     0.00000     0.00000     0.00000
  external pressure =        0.53 kB  Pullay stress =        0.00 kB


 VOLUME and BASIS-vectors are now :
 -----------------------------------------------------------------------------
  energy-cutoff  :      600.00
  volume of cell :      373.21
      direct lattice vectors                 reciprocal lattice vectors
     4.347297911  0.000000000  0.000000000     0.230027944  0.000000000  0.000000000
     0.000000000  4.292477857  0.000000000     0.000000000  0.232965675  0.000000000
     0.000000000  0.000000000 20.000000000     0.000000000  0.000000000  0.050000000

  length of vectors
     4.347297911  4.292477857 20.000000000     0.230027944  0.232965675  0.050000000


 FORCES acting on ions
    electron-ion (+dipol)            ewald-force                    non-local-force                 convergence-correction
 -----------------------------------------------------------------------------------------------
   0.348E+01 -.209E-12 -.145E+03   -.474E+01 -.188E-14 0.149E+03   0.126E+01 0.000E+00 -.379E+01   -.170E-03 -.203E-13 -.398E-03
   0.348E+01 0.728E-13 0.145E+03   -.474E+01 -.204E-15 -.149E+03   0.126E+01 0.000E+00 0.379E+01   -.170E-03 0.805E-14 0.398E-03
   -.437E+01 -.737E-13 -.208E+03   0.474E+01 0.171E-14 0.210E+03   -.367E+00 0.000E+00 -.204E+01   0.211E-02 0.306E-13 -.886E-03
   -.437E+01 -.542E-13 0.208E+03   0.474E+01 -.626E-15 -.210E+03   -.367E+00 0.000E+00 0.204E+01   0.211E-02 -.225E-13 0.886E-03
 -----------------------------------------------------------------------------------------------
   -.178E+01 -.264E-12 0.130E-06   0.444E-14 -.101E-14 0.000E+00   0.178E+01 0.000E+00 -.444E-15   0.388E-02 -.417E-14 -.520E-10
 
 
 POSITION                                       TOTAL-FORCE (eV/Angst)
 -----------------------------------------------------------------------------------
      2.50889      3.21936     11.37310         0.000226     -0.000000      0.000631
      0.33524      1.07312      8.62690         0.000226      0.000000     -0.000631
      0.16080      1.07312     11.34588        -0.000226     -0.000000     -0.000363
      2.33445      3.21936      8.65412        -0.000226     -0.000000      0.000363
 -----------------------------------------------------------------------------------
    total drift:                                0.000369     -0.000000      0.000000


--------------------------------------------------------------------------------------------------------



  FREE ENERGIE OF THE ION-ELECTRON SYSTEM (eV)
  ---------------------------------------------------
  free  energy   TOTEN  =       -16.26358950 eV

  energy  without entropy=      -16.26358950  energy(sigma->0) =      -16.26358950
 
 d Force = 0.5323615E-06[ 0.286E-06, 0.779E-06]  d Energy = 0.7340401E-06-0.202E-06
 d Force = 0.3464388E-01[ 0.346E-01, 0.347E-01]  d Ewald  = 0.3464388E-01-0.728E-10


--------------------------------------------------------------------------------------------------------


    POTLOK:  cpu time    0.0470: real time    0.0471


--------------------------------------------------------------------------------------------------------


 Conjugate gradient step on ions:
 trial-energy change:   -0.000001  1 .order   -0.000001   -0.000001   -0.000000
  (g-gl).g = 0.212E-06      g.g   = 0.185E-06  gl.gl    = 0.551E-06
 g(Force)  = 0.185E-06   g(Stress)= 0.000E+00 ortho     =-0.257E-07
 gamma     =   0.38504
 trial     =   4.45458
 opt step  =   7.03952  (harmonic =   7.03952) maximal distance =0.00039989
 next E    =   -16.263589   (d E  =  -0.00000)


--------------------------------------------------------------------------------------------------------


  
 reached required accuracy - stopping structural energy minimisation
 writing wavefunctions
     LOOP+:  cpu time    4.6302: real time    5.1948
    4ORBIT:  cpu time    0.0000: real time    0.0000

 total amount of memory used by VASP MPI-rank0    51825. kBytes
=======================================================================

   base      :      30000. kBytes
   nonl-proj :       7049. kBytes
   fftplans  :       2678. kBytes
   grid      :       4349. kBytes
   one-center:          8. kBytes
   wavefun   :       7741. kBytes
 
  
  
 General timing and accounting informations for this job:
 ========================================================
  
                  Total CPU time used (sec):      136.272
                            User time (sec):      134.719
                          System time (sec):        1.553
                         Elapsed time (sec):      144.363
  
                   Maximum memory used (kb):      199876.
                   Average memory used (kb):           0.
  
                          Minor page faults:       826028
                          Major page faults:          130
                 Voluntary context switches:         7239
