 vasp.5.4.4.18Apr17-6-g9f103f2a35 (build Sep 16 2021 13:51:27) complex          
  
 executed on             LinuxIFC date 2023.03.16  12:57:38
 running on   24 total cores
 distrk:  each k-point on   24 cores,    1 groups
 distr:  one band on NCORES_PER_BAND=  24 cores,    1 groups


--------------------------------------------------------------------------------------------------------


 INCAR:
 POTCAR:    PAW_PBE Sn 08Apr2002                  
 POTCAR:    PAW_PBE Se 06Sep2000                  

 ----------------------------------------------------------------------------- 
|                                                                             |
|           W    W    AA    RRRRR   N    N  II  N    N   GGGG   !!!           |
|           W    W   A  A   R    R  NN   N  II  NN   N  G    G  !!!           |
|           W    W  A    A  R    R  N N  N  II  N N  N  G       !!!           |
|           W WW W  AAAAAA  RRRRR   N  N N  II  N  N N  G  GGG   !            |
|           WW  WW  A    A  R   R   N   NN  II  N   NN  G    G                |
|           W    W  A    A  R    R  N    N  II  N    N   GGGG   !!!           |
|                                                                             |
|      For optimal performance we recommend to set                            |
|        NCORE= 4 - approx SQRT( number of cores)                             |
|      NCORE specifies how many cores store one orbital (NPAR=cpu/NCORE).     |
|      This setting can  greatly improve the performance of VASP for DFT.     |
|      The default,   NCORE=1            might be grossly inefficient         |
|      on modern multi-core architectures or massively parallel machines.     |
|      Do your own testing !!!!                                               |
|      Unfortunately you need to use the default for GW and RPA calculations. |
|      (for HF NCORE is supported but not extensively tested yet)             |
|                                                                             |
 ----------------------------------------------------------------------------- 

 POTCAR:    PAW_PBE Sn 08Apr2002                  
   VRHFIN =Sn: s2p2                                                             
   LEXCH  = PE                                                                  
   EATOM  =    94.0860 eV,    6.9151 Ry                                         
                                                                                
   TITEL  = PAW_PBE Sn 08Apr2002                                                
   LULTRA =        F    use ultrasoft PP ?                                      
   IUNSCR =        1    unscreen: 0-lin 1-nonlin 2-no                           
   RPACOR =    2.000    partial core radius                                     
   POMASS =  118.710; ZVAL   =    4.000    mass and valenz                      
   RCORE  =    3.000    outmost cutoff radius                                   
   RWIGS  =    2.960; RWIGS  =    1.566    wigner-seitz radius (au A)           
   ENMAX  =  103.236; ENMIN  =   77.427 eV                                      
   ICORE  =        3    local potential                                         
   LCOR   =        T    correct aug charges                                     
   LPAW   =        T    paw PP                                                  
   EAUG   =  263.585                                                            
   DEXC   =    0.000                                                            
   RMAX   =    3.078    core radius for proj-oper                               
   RAUG   =    1.300    factor for augmentation sphere                          
   RDEP   =    3.022    radius for radial grids                                 
   RDEPT  =    2.655    core radius for aug-charge                              
                                                                                
   Atomic configuration                                                         
   13 entries                                                                   
     n  l   j            E        occ.                                          
     1  0  0.50    -29007.2859   2.0000                                         
     2  0  0.50     -4378.8056   2.0000                                         
     2  1  1.50     -3930.4293   6.0000                                         
     3  0  0.50      -845.0264   2.0000                                         
     3  1  1.50      -698.5725   6.0000                                         
     3  2  2.50      -473.2839  10.0000                                         
     4  0  0.50      -133.9036   2.0000                                         
     4  1  1.50       -89.6752   6.0000                                         
     4  2  2.50       -25.8375  10.0000                                         
     5  0  0.50       -10.5484   2.0000                                         
     5  1  0.50        -3.6940   2.0000                                         
     5  2  1.50        -1.3606   0.0000                                         
     4  3  2.50        -4.0817   0.0000                                         
   Description                                                                  
     l       E           TYP  RCUT    TYP  RCUT                                 
     0    -10.5483727     23  3.000                                             
     0     27.2116520     23  3.000                                             
     1     -3.6939829     23  3.000                                             
     1      1.9821976     23  3.000                                             
     2     -1.3605826     23  3.000                                             
     3     -2.7211652     23  3.000                                             
  local pseudopotential read in
  partial core-charges read in
  partial kinetic energy density read in
  atomic valenz-charges read in
  non local Contribution for L=           0  read in
    real space projection operators read in
  non local Contribution for L=           0  read in
    real space projection operators read in
  non local Contribution for L=           1  read in
    real space projection operators read in
  non local Contribution for L=           1  read in
    real space projection operators read in
  non local Contribution for L=           2  read in
    real space projection operators read in
    PAW grid and wavefunctions read in
 
   number of l-projection  operators is LMAX  =           5
   number of lm-projection operators is LMMAX =          13
 
 POTCAR:    PAW_PBE Se 06Sep2000                  
   VRHFIN =Se: s2p4                                                             
   LEXCH  = PE                                                                  
   EATOM  =   257.1286 eV,   18.8984 Ry                                         
                                                                                
   TITEL  = PAW_PBE Se 06Sep2000                                                
   LULTRA =        F    use ultrasoft PP ?                                      
   IUNSCR =        1    unscreen: 0-lin 1-nonlin 2-no                           
   RPACOR =    1.900    partial core radius                                     
   POMASS =   78.960; ZVAL   =    6.000    mass and valenz                      
   RCORE  =    2.100    outmost cutoff radius                                   
   RWIGS  =    2.200; RWIGS  =    1.164    wigner-seitz radius (au A)           
   ENMAX  =  211.555; ENMIN  =  158.666 eV                                      
   ICORE  =        3    local potential                                         
   LCOR   =        T    correct aug charges                                     
   LPAW   =        T    paw PP                                                  
   EAUG   =  446.842                                                            
   DEXC   =    0.000                                                            
   RMAX   =    2.147    core radius for proj-oper                               
   RAUG   =    1.300    factor for augmentation sphere                          
   RDEP   =    2.177    radius for radial grids                                 
   RDEPT  =    1.928    core radius for aug-charge                              
                                                                                
   Atomic configuration                                                         
   10 entries                                                                   
     n  l   j            E        occ.                                          
     1  0  0.50    -12503.4787   2.0000                                         
     2  0  0.50     -1606.9547   2.0000                                         
     2  1  1.50     -1413.3140   6.0000                                         
     3  0  0.50      -213.4885   2.0000                                         
     3  1  1.50      -152.9538   6.0000                                         
     3  2  2.50       -53.1221  10.0000                                         
     4  0  0.50       -17.2865   2.0000                                         
     4  1  0.50        -6.5110   4.0000                                         
     4  2  2.50        -6.8029   0.0000                                         
     4  3  2.50        -6.8029   0.0000                                         
   Description                                                                  
     l       E           TYP  RCUT    TYP  RCUT                                 
     0    -17.2865377     23  2.100                                             
     0    -15.3094411     23  2.100                                             
     1     -6.5110275     23  2.100                                             
     1     -0.0695192     23  2.100                                             
     2     -6.8029130     23  2.100                                             
     3     -1.3605826      7  2.100                                             
  local pseudopotential read in
  partial core-charges read in
  partial kinetic energy density read in
  atomic valenz-charges read in
  non local Contribution for L=           0  read in
    real space projection operators read in
  non local Contribution for L=           0  read in
    real space projection operators read in
  non local Contribution for L=           1  read in
    real space projection operators read in
  non local Contribution for L=           1  read in
    real space projection operators read in
  non local Contribution for L=           2  read in
    real space projection operators read in
    PAW grid and wavefunctions read in
 
   number of l-projection  operators is LMAX  =           5
   number of lm-projection operators is LMMAX =          13
 
 WARNING: PSMAXN for non-local potential too small
          PSMAXN should be >   12.5490833729506       NTYP=           1
  PAW_PBE Sn 08Apr2002                  :
 energy of atom  1       EATOM=  -94.0860
 kinetic energy error for atom=    0.0000 (will be added to EATOM!!)
  PAW_PBE Se 06Sep2000                  :
 energy of atom  2       EATOM= -257.1286
 kinetic energy error for atom=    0.0006 (will be added to EATOM!!)
 
 
 POSCAR:  POSCAR with strain of -0.005           
  positions in direct lattice
  No initial velocities read in
 exchange correlation table for  LEXCH =        8
   RHO(1)=    0.500       N(1)  =     2000
   RHO(2)=  100.500       N(2)  =     4000
 


--------------------------------------------------------------------------------------------------------


 ion  position               nearest neighbor table
   1  0.581  0.750  0.569-   4 2.72   3 2.91   3 2.91   3 3.22   3 3.22
   2  0.081  0.250  0.431-   3 2.72   4 2.91   4 2.91   4 3.22   4 3.22
   3  0.033  0.250  0.567-   2 2.72   1 2.91   1 2.91   1 3.22   1 3.22
   4  0.533  0.750  0.433-   1 2.72   2 2.91   2 2.91   2 3.22   2 3.22
 

IMPORTANT INFORMATION: All symmetrisations will be switched off!
NOSYMM: (Re-)initialisation of all symmetry stuff for point group C_1.

 
 
 KPOINTS: KMesh Grid                              

Automatic generation of k-mesh.
Space group operators:
 irot       det(A)        alpha          n_x          n_y          n_z        tau_x        tau_y        tau_z
    1     1.000000     0.000001     1.000000     0.000000     0.000000     0.000000     0.000000     0.000000
 
 Subroutine IBZKPT returns following result:
 ===========================================
 
 Found    113 irreducible k-points:
 
 Following reciprocal coordinates:
            Coordinates               Weight
  0.000000  0.000000  0.000000      1.000000
  0.066667  0.000000  0.000000      2.000000
  0.133333  0.000000  0.000000      2.000000
  0.200000  0.000000  0.000000      2.000000
  0.266667  0.000000  0.000000      2.000000
  0.333333  0.000000  0.000000      2.000000
  0.400000  0.000000  0.000000      2.000000
  0.466667  0.000000  0.000000      2.000000
  0.000000  0.066667  0.000000      2.000000
  0.066667  0.066667  0.000000      2.000000
  0.133333  0.066667  0.000000      2.000000
  0.200000  0.066667  0.000000      2.000000
  0.266667  0.066667  0.000000      2.000000
  0.333333  0.066667  0.000000      2.000000
  0.400000  0.066667  0.000000      2.000000
  0.466667  0.066667  0.000000      2.000000
 -0.466667  0.066667  0.000000      2.000000
 -0.400000  0.066667  0.000000      2.000000
 -0.333333  0.066667  0.000000      2.000000
 -0.266667  0.066667  0.000000      2.000000
 -0.200000  0.066667  0.000000      2.000000
 -0.133333  0.066667  0.000000      2.000000
 -0.066667  0.066667  0.000000      2.000000
  0.000000  0.133333  0.000000      2.000000
  0.066667  0.133333  0.000000      2.000000
  0.133333  0.133333  0.000000      2.000000
  0.200000  0.133333  0.000000      2.000000
  0.266667  0.133333  0.000000      2.000000
  0.333333  0.133333  0.000000      2.000000
  0.400000  0.133333  0.000000      2.000000
  0.466667  0.133333  0.000000      2.000000
 -0.466667  0.133333  0.000000      2.000000
 -0.400000  0.133333  0.000000      2.000000
 -0.333333  0.133333  0.000000      2.000000
 -0.266667  0.133333  0.000000      2.000000
 -0.200000  0.133333  0.000000      2.000000
 -0.133333  0.133333  0.000000      2.000000
 -0.066667  0.133333  0.000000      2.000000
  0.000000  0.200000  0.000000      2.000000
  0.066667  0.200000  0.000000      2.000000
  0.133333  0.200000  0.000000      2.000000
  0.200000  0.200000  0.000000      2.000000
  0.266667  0.200000  0.000000      2.000000
  0.333333  0.200000  0.000000      2.000000
  0.400000  0.200000  0.000000      2.000000
  0.466667  0.200000  0.000000      2.000000
 -0.466667  0.200000  0.000000      2.000000
 -0.400000  0.200000  0.000000      2.000000
 -0.333333  0.200000  0.000000      2.000000
 -0.266667  0.200000  0.000000      2.000000
 -0.200000  0.200000  0.000000      2.000000
 -0.133333  0.200000  0.000000      2.000000
 -0.066667  0.200000  0.000000      2.000000
  0.000000  0.266667  0.000000      2.000000
  0.066667  0.266667  0.000000      2.000000
  0.133333  0.266667  0.000000      2.000000
  0.200000  0.266667  0.000000      2.000000
  0.266667  0.266667  0.000000      2.000000
  0.333333  0.266667  0.000000      2.000000
  0.400000  0.266667  0.000000      2.000000
  0.466667  0.266667  0.000000      2.000000
 -0.466667  0.266667  0.000000      2.000000
 -0.400000  0.266667  0.000000      2.000000
 -0.333333  0.266667  0.000000      2.000000
 -0.266667  0.266667  0.000000      2.000000
 -0.200000  0.266667  0.000000      2.000000
 -0.133333  0.266667  0.000000      2.000000
 -0.066667  0.266667  0.000000      2.000000
  0.000000  0.333333  0.000000      2.000000
  0.066667  0.333333  0.000000      2.000000
  0.133333  0.333333  0.000000      2.000000
  0.200000  0.333333  0.000000      2.000000
  0.266667  0.333333  0.000000      2.000000
  0.333333  0.333333  0.000000      2.000000
  0.400000  0.333333  0.000000      2.000000
  0.466667  0.333333  0.000000      2.000000
 -0.466667  0.333333  0.000000      2.000000
 -0.400000  0.333333  0.000000      2.000000
 -0.333333  0.333333  0.000000      2.000000
 -0.266667  0.333333  0.000000      2.000000
 -0.200000  0.333333  0.000000      2.000000
 -0.133333  0.333333  0.000000      2.000000
 -0.066667  0.333333  0.000000      2.000000
  0.000000  0.400000  0.000000      2.000000
  0.066667  0.400000  0.000000      2.000000
  0.133333  0.400000  0.000000      2.000000
  0.200000  0.400000  0.000000      2.000000
  0.266667  0.400000  0.000000      2.000000
  0.333333  0.400000  0.000000      2.000000
  0.400000  0.400000  0.000000      2.000000
  0.466667  0.400000  0.000000      2.000000
 -0.466667  0.400000  0.000000      2.000000
 -0.400000  0.400000  0.000000      2.000000
 -0.333333  0.400000  0.000000      2.000000
 -0.266667  0.400000  0.000000      2.000000
 -0.200000  0.400000  0.000000      2.000000
 -0.133333  0.400000  0.000000      2.000000
 -0.066667  0.400000  0.000000      2.000000
  0.000000  0.466667  0.000000      2.000000
  0.066667  0.466667  0.000000      2.000000
  0.133333  0.466667  0.000000      2.000000
  0.200000  0.466667  0.000000      2.000000
  0.266667  0.466667  0.000000      2.000000
  0.333333  0.466667  0.000000      2.000000
  0.400000  0.466667  0.000000      2.000000
  0.466667  0.466667  0.000000      2.000000
 -0.466667  0.466667  0.000000      2.000000
 -0.400000  0.466667  0.000000      2.000000
 -0.333333  0.466667  0.000000      2.000000
 -0.266667  0.466667  0.000000      2.000000
 -0.200000  0.466667  0.000000      2.000000
 -0.133333  0.466667  0.000000      2.000000
 -0.066667  0.466667  0.000000      2.000000
 
 Following cartesian coordinates:
            Coordinates               Weight
  0.000000  0.000000  0.000000      1.000000
  0.015213  0.000000  0.000000      2.000000
  0.030425  0.000000  0.000000      2.000000
  0.045638  0.000000  0.000000      2.000000
  0.060850  0.000000  0.000000      2.000000
  0.076063  0.000000  0.000000      2.000000
  0.091275  0.000000  0.000000      2.000000
  0.106488  0.000000  0.000000      2.000000
  0.000000  0.015609  0.000000      2.000000
  0.015213  0.015609  0.000000      2.000000
  0.030425  0.015609  0.000000      2.000000
  0.045638  0.015609  0.000000      2.000000
  0.060850  0.015609  0.000000      2.000000
  0.076063  0.015609  0.000000      2.000000
  0.091275  0.015609  0.000000      2.000000
  0.106488  0.015609  0.000000      2.000000
 -0.106488  0.015609  0.000000      2.000000
 -0.091275  0.015609  0.000000      2.000000
 -0.076063  0.015609  0.000000      2.000000
 -0.060850  0.015609  0.000000      2.000000
 -0.045638  0.015609  0.000000      2.000000
 -0.030425  0.015609  0.000000      2.000000
 -0.015213  0.015609  0.000000      2.000000
  0.000000  0.031218  0.000000      2.000000
  0.015213  0.031218  0.000000      2.000000
  0.030425  0.031218  0.000000      2.000000
  0.045638  0.031218  0.000000      2.000000
  0.060850  0.031218  0.000000      2.000000
  0.076063  0.031218  0.000000      2.000000
  0.091275  0.031218  0.000000      2.000000
  0.106488  0.031218  0.000000      2.000000
 -0.106488  0.031218  0.000000      2.000000
 -0.091275  0.031218  0.000000      2.000000
 -0.076063  0.031218  0.000000      2.000000
 -0.060850  0.031218  0.000000      2.000000
 -0.045638  0.031218  0.000000      2.000000
 -0.030425  0.031218  0.000000      2.000000
 -0.015213  0.031218  0.000000      2.000000
  0.000000  0.046827  0.000000      2.000000
  0.015213  0.046827  0.000000      2.000000
  0.030425  0.046827  0.000000      2.000000
  0.045638  0.046827  0.000000      2.000000
  0.060850  0.046827  0.000000      2.000000
  0.076063  0.046827  0.000000      2.000000
  0.091275  0.046827  0.000000      2.000000
  0.106488  0.046827  0.000000      2.000000
 -0.106488  0.046827  0.000000      2.000000
 -0.091275  0.046827  0.000000      2.000000
 -0.076063  0.046827  0.000000      2.000000
 -0.060850  0.046827  0.000000      2.000000
 -0.045638  0.046827  0.000000      2.000000
 -0.030425  0.046827  0.000000      2.000000
 -0.015213  0.046827  0.000000      2.000000
  0.000000  0.062436  0.000000      2.000000
  0.015213  0.062436  0.000000      2.000000
  0.030425  0.062436  0.000000      2.000000
  0.045638  0.062436  0.000000      2.000000
  0.060850  0.062436  0.000000      2.000000
  0.076063  0.062436  0.000000      2.000000
  0.091275  0.062436  0.000000      2.000000
  0.106488  0.062436  0.000000      2.000000
 -0.106488  0.062436  0.000000      2.000000
 -0.091275  0.062436  0.000000      2.000000
 -0.076063  0.062436  0.000000      2.000000
 -0.060850  0.062436  0.000000      2.000000
 -0.045638  0.062436  0.000000      2.000000
 -0.030425  0.062436  0.000000      2.000000
 -0.015213  0.062436  0.000000      2.000000
  0.000000  0.078045  0.000000      2.000000
  0.015213  0.078045  0.000000      2.000000
  0.030425  0.078045  0.000000      2.000000
  0.045638  0.078045  0.000000      2.000000
  0.060850  0.078045  0.000000      2.000000
  0.076063  0.078045  0.000000      2.000000
  0.091275  0.078045  0.000000      2.000000
  0.106488  0.078045  0.000000      2.000000
 -0.106488  0.078045  0.000000      2.000000
 -0.091275  0.078045  0.000000      2.000000
 -0.076063  0.078045  0.000000      2.000000
 -0.060850  0.078045  0.000000      2.000000
 -0.045638  0.078045  0.000000      2.000000
 -0.030425  0.078045  0.000000      2.000000
 -0.015213  0.078045  0.000000      2.000000
  0.000000  0.093655  0.000000      2.000000
  0.015213  0.093655  0.000000      2.000000
  0.030425  0.093655  0.000000      2.000000
  0.045638  0.093655  0.000000      2.000000
  0.060850  0.093655  0.000000      2.000000
  0.076063  0.093655  0.000000      2.000000
  0.091275  0.093655  0.000000      2.000000
  0.106488  0.093655  0.000000      2.000000
 -0.106488  0.093655  0.000000      2.000000
 -0.091275  0.093655  0.000000      2.000000
 -0.076063  0.093655  0.000000      2.000000
 -0.060850  0.093655  0.000000      2.000000
 -0.045638  0.093655  0.000000      2.000000
 -0.030425  0.093655  0.000000      2.000000
 -0.015213  0.093655  0.000000      2.000000
  0.000000  0.109264  0.000000      2.000000
  0.015213  0.109264  0.000000      2.000000
  0.030425  0.109264  0.000000      2.000000
  0.045638  0.109264  0.000000      2.000000
  0.060850  0.109264  0.000000      2.000000
  0.076063  0.109264  0.000000      2.000000
  0.091275  0.109264  0.000000      2.000000
  0.106488  0.109264  0.000000      2.000000
 -0.106488  0.109264  0.000000      2.000000
 -0.091275  0.109264  0.000000      2.000000
 -0.076063  0.109264  0.000000      2.000000
 -0.060850  0.109264  0.000000      2.000000
 -0.045638  0.109264  0.000000      2.000000
 -0.030425  0.109264  0.000000      2.000000
 -0.015213  0.109264  0.000000      2.000000
 


--------------------------------------------------------------------------------------------------------




 Dimension of arrays:
   k-points           NKPTS =    113   k-points in BZ     NKDIM =    113   number of bands    NBANDS=     14
   number of dos      NEDOS =    301   number of ions     NIONS =      4
   non local maximal  LDIM  =      5   non local SUM 2l+1 LMDIM =     13
   total plane-waves  NPLWV = 207360
   max r-space proj   IRMAX =      1   max aug-charges    IRDMAX=  53514
   dimension x,y,z NGX =    36 NGY =   36 NGZ =  160
   dimension x,y,z NGXF=    72 NGYF=   72 NGZF=  320
   support grid    NGXF=    72 NGYF=   72 NGZF=  320
   ions per type =               2   2
   NGX,Y,Z   is equivalent  to a cutoff of  13.66, 14.01, 13.30 a.u.
   NGXF,Y,Z  is equivalent  to a cutoff of  27.31, 28.03, 26.60 a.u.

 SYSTEM =  SnSe                                    
 POSCAR =   POSCAR with strain of -0.005           

 Startparameter for this run:
   NWRITE =      2    write-flag & timer
   PREC   = accura    normal or accurate (medium, high low for compatibility)
   ISTART =      0    job   : 0-new  1-cont  2-samecut
   ICHARG =      2    charge: 1-file 2-atom 10-const
   ISPIN  =      1    spin polarized calculation?
   LNONCOLLINEAR =      F non collinear calculations
   LSORBIT =      F    spin-orbit coupling
   INIWAV =      1    electr: 0-lowe 1-rand  2-diag
   LASPH  =      F    aspherical Exc in radial PAW
   METAGGA=      F    non-selfconsistent MetaGGA calc.

 Electronic Relaxation 1
   ENCUT  =  600.0 eV  44.10 Ry    6.64 a.u.   8.75  8.53 39.94*2*pi/ulx,y,z
   ENINI  =  600.0     initial cutoff
   ENAUG  =  446.8 eV  augmentation charge cutoff
   NELM   =     60;   NELMIN=  2; NELMDL= -5     # of ELM steps 
   EDIFF  = 0.1E-05   stopping-criterion for ELM
   LREAL  =      F    real-space projection
   NLSPLINE    = F    spline interpolate recip. space projectors
   LCOMPAT=      F    compatible to vasp.4.4
   GGA_COMPAT  = T    GGA compatible to vasp.4.4-vasp.4.6
   LMAXPAW     = -100 max onsite density
   LMAXMIX     =    2 max onsite mixed and CHGCAR
   VOSKOWN=      0    Vosko Wilk Nusair interpolation
   ROPT   =    0.00000   0.00000
 Ionic relaxation
   EDIFFG = -.1E-02   stopping-criterion for IOM
   NSW    =    100    number of steps for IOM
   NBLOCK =      1;   KBLOCK =    100    inner block; outer block 
   IBRION =      2    ionic relax: 0-MD 1-quasi-New 2-CG
   NFREE  =      1    steps in history (QN), initial steepest desc. (CG)
   ISIF   =      2    stress and relaxation
   IWAVPR =     11    prediction:  0-non 1-charg 2-wave 3-comb
   ISYM   =      0    0-nonsym 1-usesym 2-fastsym
   LCORR  =      T    Harris-Foulkes like correction to forces

   POTIM  = 0.5000    time-step for ionic-motion
   TEIN   =    0.0    initial temperature
   TEBEG  =    0.0;   TEEND  =   0.0 temperature during run
   SMASS  =  -3.00    Nose mass-parameter (am)
   estimated Nose-frequenzy (Omega)   =  0.10E-29 period in steps =****** mass=  -0.439E-27a.u.
   SCALEE = 1.0000    scale energy and forces
   NPACO  =    256;   APACO  = 16.0  distance and # of slots for P.C.
   PSTRESS=    0.0 pullay stress

  Mass of Ions in am
   POMASS = 118.71 78.96
  Ionic Valenz
   ZVAL   =   4.00  6.00
  Atomic Wigner-Seitz radii
   RWIGS  =  -1.00 -1.00
  virtual crystal weights 
   VCA    =   1.00  1.00
   NELECT =      20.0000    total number of electrons
   NUPDOWN=      -1.0000    fix difference up-down

 DOS related values:
   EMIN   =  10.00;   EMAX   =-10.00  energy-range for DOS
   EFERMI =   0.00
   ISMEAR =     0;   SIGMA  =   0.10  broadening in eV -4-tet -1-fermi 0-gaus

 Electronic relaxation 2 (details)
   IALGO  =     38    algorithm
   LDIAG  =      T    sub-space diagonalisation (order eigenvalues)
   LSUBROT=      F    optimize rotation matrix (better conditioning)
   TURBO    =      0    0=normal 1=particle mesh
   IRESTART =      0    0=no restart 2=restart with 2 vectors
   NREBOOT  =      0    no. of reboots
   NMIN     =      0    reboot dimension
   EREF     =   0.00    reference energy to select bands
   IMIX   =      4    mixing-type and parameters
     AMIX     =   0.40;   BMIX     =  1.00
     AMIX_MAG =   1.60;   BMIX_MAG =  1.00
     AMIN     =   0.10
     WC   =   100.;   INIMIX=   1;  MIXPRE=   1;  MAXMIX= -45

 Intra band minimization:
   WEIMIN = 0.0010     energy-eigenvalue tresh-hold
   EBREAK =  0.18E-07  absolut break condition
   DEPER  =   0.30     relativ break condition  

   TIME   =   0.40     timestep for ELM

  volume/ion in A,a.u.               =      93.59       631.55
  Fermi-wavevector in a.u.,A,eV,Ry     =   0.616588  1.165183  5.172677  0.380181
  Thomas-Fermi vector in A             =   1.674370
 
 Write flags
   LWAVE        =      T    write WAVECAR
   LDOWNSAMPLE  =      F    k-point downsampling of WAVECAR
   LCHARG       =      T    write CHGCAR
   LVTOT        =      F    write LOCPOT, total local potential
   LVHAR        =      F    write LOCPOT, Hartree potential only
   LELF         =      F    write electronic localiz. function (ELF)
   LORBIT       =      0    0 simple, 1 ext, 2 COOP (PROOUT), +10 PAW based schemes


 Dipole corrections
   LMONO  =      F    monopole corrections only (constant potential shift)
   LDIPOL =      F    correct potential (dipole corrections)
   IDIPOL =      0    1-x, 2-y, 3-z, 4-all directions 
   EPSILON=  1.0000000 bulk dielectric constant

 Exchange correlation treatment:
   GGA     =    PE    GGA type
   LEXCH   =     8    internal setting for exchange type
   VOSKOWN=      0    Vosko Wilk Nusair interpolation
   LHFCALC =     F    Hartree Fock is set to
   LHFONE  =     F    Hartree Fock one center treatment
   AEXX    =    0.0000 exact exchange contribution

 Linear response parameters
   LEPSILON=     F    determine dielectric tensor
   LRPA    =     F    only Hartree local field effects (RPA)
   LNABLA  =     F    use nabla operator in PAW spheres
   LVEL    =     F    velocity operator in full k-point grid
   LINTERFAST=   F  fast interpolation
   KINTER  =     0    interpolate to denser k-point grid
   CSHIFT  =0.1000    complex shift for real part using Kramers Kronig
   OMEGAMAX=  -1.0    maximum frequency
   DEG_THRESHOLD= 0.2000000E-02 threshold for treating states as degnerate
   RTIME   =   -0.100 relaxation time in fs
  (WPLASMAI=    0.000 imaginary part of plasma frequency in eV, 0.658/RTIME)
   DFIELD  = 0.0000000 0.0000000 0.0000000 field for delta impulse in time
 
 Orbital magnetization related:
   ORBITALMAG=     F  switch on orbital magnetization
   LCHIMAG   =     F  perturbation theory with respect to B field
   DQ        =  0.001000  dq finite difference perturbation B field
   LLRAUG    =     F  two centre corrections for induced B field



--------------------------------------------------------------------------------------------------------


 conjugate gradient relaxation of ions
 charge density and potential will be updated during run
 non-spin polarized calculation
 Variant of blocked Davidson
 Davidson routine will perform the subspace rotation
 perform sub-space diagonalisation
    after iterative eigenvector-optimisation
 modified Broyden-mixing scheme, WC =      100.0
 initial mixing is a Kerker type mixing with AMIX =  0.4000 and BMIX =      1.0000
 Hartree-type preconditioning will be used
 using additional bands            4
 reciprocal scheme for non local part
 use partial core corrections
 calculate Harris-corrections to forces 
   (improved forces if not selfconsistent)
 use gradient corrections 
 use of overlap-Matrix (Vanderbilt PP)
 Gauss-broadening in eV      SIGMA  =   0.10


--------------------------------------------------------------------------------------------------------


  energy-cutoff  :      600.00
  volume of cell :      374.34
      direct lattice vectors                 reciprocal lattice vectors
     4.382356765  0.000000000  0.000000000     0.228187720  0.000000000  0.000000000
     0.000000000  4.271015468  0.000000000     0.000000000  0.234136356  0.000000000
     0.000000000  0.000000000 20.000000000     0.000000000  0.000000000  0.050000000

  length of vectors
     4.382356765  4.271015468 20.000000000     0.228187720  0.234136356  0.050000000


 
 k-points in units of 2pi/SCALE and weight: KMesh Grid                              
   0.00000000  0.00000000  0.00000000       0.004
   0.01521251  0.00000000  0.00000000       0.009
   0.03042503  0.00000000  0.00000000       0.009
   0.04563754  0.00000000  0.00000000       0.009
   0.06085006  0.00000000  0.00000000       0.009
   0.07606257  0.00000000  0.00000000       0.009
   0.09127509  0.00000000  0.00000000       0.009
   0.10648760  0.00000000  0.00000000       0.009
   0.00000000  0.01560909  0.00000000       0.009
   0.01521251  0.01560909  0.00000000       0.009
   0.03042503  0.01560909  0.00000000       0.009
   0.04563754  0.01560909  0.00000000       0.009
   0.06085006  0.01560909  0.00000000       0.009
   0.07606257  0.01560909  0.00000000       0.009
   0.09127509  0.01560909  0.00000000       0.009
   0.10648760  0.01560909  0.00000000       0.009
  -0.10648760  0.01560909  0.00000000       0.009
  -0.09127509  0.01560909  0.00000000       0.009
  -0.07606257  0.01560909  0.00000000       0.009
  -0.06085006  0.01560909  0.00000000       0.009
  -0.04563754  0.01560909  0.00000000       0.009
  -0.03042503  0.01560909  0.00000000       0.009
  -0.01521251  0.01560909  0.00000000       0.009
   0.00000000  0.03121818  0.00000000       0.009
   0.01521251  0.03121818  0.00000000       0.009
   0.03042503  0.03121818  0.00000000       0.009
   0.04563754  0.03121818  0.00000000       0.009
   0.06085006  0.03121818  0.00000000       0.009
   0.07606257  0.03121818  0.00000000       0.009
   0.09127509  0.03121818  0.00000000       0.009
   0.10648760  0.03121818  0.00000000       0.009
  -0.10648760  0.03121818  0.00000000       0.009
  -0.09127509  0.03121818  0.00000000       0.009
  -0.07606257  0.03121818  0.00000000       0.009
  -0.06085006  0.03121818  0.00000000       0.009
  -0.04563754  0.03121818  0.00000000       0.009
  -0.03042503  0.03121818  0.00000000       0.009
  -0.01521251  0.03121818  0.00000000       0.009
   0.00000000  0.04682727  0.00000000       0.009
   0.01521251  0.04682727  0.00000000       0.009
   0.03042503  0.04682727  0.00000000       0.009
   0.04563754  0.04682727  0.00000000       0.009
   0.06085006  0.04682727  0.00000000       0.009
   0.07606257  0.04682727  0.00000000       0.009
   0.09127509  0.04682727  0.00000000       0.009
   0.10648760  0.04682727  0.00000000       0.009
  -0.10648760  0.04682727  0.00000000       0.009
  -0.09127509  0.04682727  0.00000000       0.009
  -0.07606257  0.04682727  0.00000000       0.009
  -0.06085006  0.04682727  0.00000000       0.009
  -0.04563754  0.04682727  0.00000000       0.009
  -0.03042503  0.04682727  0.00000000       0.009
  -0.01521251  0.04682727  0.00000000       0.009
   0.00000000  0.06243636  0.00000000       0.009
   0.01521251  0.06243636  0.00000000       0.009
   0.03042503  0.06243636  0.00000000       0.009
   0.04563754  0.06243636  0.00000000       0.009
   0.06085006  0.06243636  0.00000000       0.009
   0.07606257  0.06243636  0.00000000       0.009
   0.09127509  0.06243636  0.00000000       0.009
   0.10648760  0.06243636  0.00000000       0.009
  -0.10648760  0.06243636  0.00000000       0.009
  -0.09127509  0.06243636  0.00000000       0.009
  -0.07606257  0.06243636  0.00000000       0.009
  -0.06085006  0.06243636  0.00000000       0.009
  -0.04563754  0.06243636  0.00000000       0.009
  -0.03042503  0.06243636  0.00000000       0.009
  -0.01521251  0.06243636  0.00000000       0.009
   0.00000000  0.07804545  0.00000000       0.009
   0.01521251  0.07804545  0.00000000       0.009
   0.03042503  0.07804545  0.00000000       0.009
   0.04563754  0.07804545  0.00000000       0.009
   0.06085006  0.07804545  0.00000000       0.009
   0.07606257  0.07804545  0.00000000       0.009
   0.09127509  0.07804545  0.00000000       0.009
   0.10648760  0.07804545  0.00000000       0.009
  -0.10648760  0.07804545  0.00000000       0.009
  -0.09127509  0.07804545  0.00000000       0.009
  -0.07606257  0.07804545  0.00000000       0.009
  -0.06085006  0.07804545  0.00000000       0.009
  -0.04563754  0.07804545  0.00000000       0.009
  -0.03042503  0.07804545  0.00000000       0.009
  -0.01521251  0.07804545  0.00000000       0.009
   0.00000000  0.09365454  0.00000000       0.009
   0.01521251  0.09365454  0.00000000       0.009
   0.03042503  0.09365454  0.00000000       0.009
   0.04563754  0.09365454  0.00000000       0.009
   0.06085006  0.09365454  0.00000000       0.009
   0.07606257  0.09365454  0.00000000       0.009
   0.09127509  0.09365454  0.00000000       0.009
   0.10648760  0.09365454  0.00000000       0.009
  -0.10648760  0.09365454  0.00000000       0.009
  -0.09127509  0.09365454  0.00000000       0.009
  -0.07606257  0.09365454  0.00000000       0.009
  -0.06085006  0.09365454  0.00000000       0.009
  -0.04563754  0.09365454  0.00000000       0.009
  -0.03042503  0.09365454  0.00000000       0.009
  -0.01521251  0.09365454  0.00000000       0.009
   0.00000000  0.10926363  0.00000000       0.009
   0.01521251  0.10926363  0.00000000       0.009
   0.03042503  0.10926363  0.00000000       0.009
   0.04563754  0.10926363  0.00000000       0.009
   0.06085006  0.10926363  0.00000000       0.009
   0.07606257  0.10926363  0.00000000       0.009
   0.09127509  0.10926363  0.00000000       0.009
   0.10648760  0.10926363  0.00000000       0.009
  -0.10648760  0.10926363  0.00000000       0.009
  -0.09127509  0.10926363  0.00000000       0.009
  -0.07606257  0.10926363  0.00000000       0.009
  -0.06085006  0.10926363  0.00000000       0.009
  -0.04563754  0.10926363  0.00000000       0.009
  -0.03042503  0.10926363  0.00000000       0.009
  -0.01521251  0.10926363  0.00000000       0.009
 
 k-points in reciprocal lattice and weights: KMesh Grid                              
   0.00000000  0.00000000  0.00000000       0.004
   0.06666667  0.00000000  0.00000000       0.009
   0.13333333  0.00000000  0.00000000       0.009
   0.20000000  0.00000000  0.00000000       0.009
   0.26666667  0.00000000  0.00000000       0.009
   0.33333333  0.00000000  0.00000000       0.009
   0.40000000  0.00000000  0.00000000       0.009
   0.46666667  0.00000000  0.00000000       0.009
   0.00000000  0.06666667  0.00000000       0.009
   0.06666667  0.06666667  0.00000000       0.009
   0.13333333  0.06666667  0.00000000       0.009
   0.20000000  0.06666667  0.00000000       0.009
   0.26666667  0.06666667  0.00000000       0.009
   0.33333333  0.06666667  0.00000000       0.009
   0.40000000  0.06666667  0.00000000       0.009
   0.46666667  0.06666667  0.00000000       0.009
  -0.46666667  0.06666667  0.00000000       0.009
  -0.40000000  0.06666667  0.00000000       0.009
  -0.33333333  0.06666667  0.00000000       0.009
  -0.26666667  0.06666667  0.00000000       0.009
  -0.20000000  0.06666667  0.00000000       0.009
  -0.13333333  0.06666667  0.00000000       0.009
  -0.06666667  0.06666667  0.00000000       0.009
   0.00000000  0.13333333  0.00000000       0.009
   0.06666667  0.13333333  0.00000000       0.009
   0.13333333  0.13333333  0.00000000       0.009
   0.20000000  0.13333333  0.00000000       0.009
   0.26666667  0.13333333  0.00000000       0.009
   0.33333333  0.13333333  0.00000000       0.009
   0.40000000  0.13333333  0.00000000       0.009
   0.46666667  0.13333333  0.00000000       0.009
  -0.46666667  0.13333333  0.00000000       0.009
  -0.40000000  0.13333333  0.00000000       0.009
  -0.33333333  0.13333333  0.00000000       0.009
  -0.26666667  0.13333333  0.00000000       0.009
  -0.20000000  0.13333333  0.00000000       0.009
  -0.13333333  0.13333333  0.00000000       0.009
  -0.06666667  0.13333333  0.00000000       0.009
   0.00000000  0.20000000  0.00000000       0.009
   0.06666667  0.20000000  0.00000000       0.009
   0.13333333  0.20000000  0.00000000       0.009
   0.20000000  0.20000000  0.00000000       0.009
   0.26666667  0.20000000  0.00000000       0.009
   0.33333333  0.20000000  0.00000000       0.009
   0.40000000  0.20000000  0.00000000       0.009
   0.46666667  0.20000000  0.00000000       0.009
  -0.46666667  0.20000000  0.00000000       0.009
  -0.40000000  0.20000000  0.00000000       0.009
  -0.33333333  0.20000000  0.00000000       0.009
  -0.26666667  0.20000000  0.00000000       0.009
  -0.20000000  0.20000000  0.00000000       0.009
  -0.13333333  0.20000000  0.00000000       0.009
  -0.06666667  0.20000000  0.00000000       0.009
   0.00000000  0.26666667  0.00000000       0.009
   0.06666667  0.26666667  0.00000000       0.009
   0.13333333  0.26666667  0.00000000       0.009
   0.20000000  0.26666667  0.00000000       0.009
   0.26666667  0.26666667  0.00000000       0.009
   0.33333333  0.26666667  0.00000000       0.009
   0.40000000  0.26666667  0.00000000       0.009
   0.46666667  0.26666667  0.00000000       0.009
  -0.46666667  0.26666667  0.00000000       0.009
  -0.40000000  0.26666667  0.00000000       0.009
  -0.33333333  0.26666667  0.00000000       0.009
  -0.26666667  0.26666667  0.00000000       0.009
  -0.20000000  0.26666667  0.00000000       0.009
  -0.13333333  0.26666667  0.00000000       0.009
  -0.06666667  0.26666667  0.00000000       0.009
   0.00000000  0.33333333  0.00000000       0.009
   0.06666667  0.33333333  0.00000000       0.009
   0.13333333  0.33333333  0.00000000       0.009
   0.20000000  0.33333333  0.00000000       0.009
   0.26666667  0.33333333  0.00000000       0.009
   0.33333333  0.33333333  0.00000000       0.009
   0.40000000  0.33333333  0.00000000       0.009
   0.46666667  0.33333333  0.00000000       0.009
  -0.46666667  0.33333333  0.00000000       0.009
  -0.40000000  0.33333333  0.00000000       0.009
  -0.33333333  0.33333333  0.00000000       0.009
  -0.26666667  0.33333333  0.00000000       0.009
  -0.20000000  0.33333333  0.00000000       0.009
  -0.13333333  0.33333333  0.00000000       0.009
  -0.06666667  0.33333333  0.00000000       0.009
   0.00000000  0.40000000  0.00000000       0.009
   0.06666667  0.40000000  0.00000000       0.009
   0.13333333  0.40000000  0.00000000       0.009
   0.20000000  0.40000000  0.00000000       0.009
   0.26666667  0.40000000  0.00000000       0.009
   0.33333333  0.40000000  0.00000000       0.009
   0.40000000  0.40000000  0.00000000       0.009
   0.46666667  0.40000000  0.00000000       0.009
  -0.46666667  0.40000000  0.00000000       0.009
  -0.40000000  0.40000000  0.00000000       0.009
  -0.33333333  0.40000000  0.00000000       0.009
  -0.26666667  0.40000000  0.00000000       0.009
  -0.20000000  0.40000000  0.00000000       0.009
  -0.13333333  0.40000000  0.00000000       0.009
  -0.06666667  0.40000000  0.00000000       0.009
   0.00000000  0.46666667  0.00000000       0.009
   0.06666667  0.46666667  0.00000000       0.009
   0.13333333  0.46666667  0.00000000       0.009
   0.20000000  0.46666667  0.00000000       0.009
   0.26666667  0.46666667  0.00000000       0.009
   0.33333333  0.46666667  0.00000000       0.009
   0.40000000  0.46666667  0.00000000       0.009
   0.46666667  0.46666667  0.00000000       0.009
  -0.46666667  0.46666667  0.00000000       0.009
  -0.40000000  0.46666667  0.00000000       0.009
  -0.33333333  0.46666667  0.00000000       0.009
  -0.26666667  0.46666667  0.00000000       0.009
  -0.20000000  0.46666667  0.00000000       0.009
  -0.13333333  0.46666667  0.00000000       0.009
  -0.06666667  0.46666667  0.00000000       0.009
 
 position of ions in fractional coordinates (direct lattice) 
   0.58124336  0.75000000  0.56874314
   0.08124336  0.25000000  0.43125686
   0.03286064  0.25000000  0.56707387
   0.53286061  0.75000000  0.43292613
 
 position of ions in cartesian coordinates  (Angst):
   2.54721576  3.20326160 11.37486283
   0.35603738  1.06775387  8.62513717
   0.14400706  1.06775387 11.34147733
   2.33518532  3.20326160  8.65852267
 


--------------------------------------------------------------------------------------------------------


 k-point  1 :   0.0000 0.0000 0.0000  plane waves:   12523
 k-point  2 :   0.0667 0.0000 0.0000  plane waves:   12509
 k-point  3 :   0.1333 0.0000 0.0000  plane waves:   12511
 k-point  4 :   0.2000 0.0000 0.0000  plane waves:   12485
 k-point  5 :   0.2667 0.0000 0.0000  plane waves:   12498
 k-point  6 :   0.3333 0.0000 0.0000  plane waves:   12522
 k-point  7 :   0.4000 0.0000 0.0000  plane waves:   12546
 k-point  8 :   0.4667 0.0000 0.0000  plane waves:   12530
 k-point  9 :   0.0000 0.0667 0.0000  plane waves:   12517
 k-point 10 :   0.0667 0.0667 0.0000  plane waves:   12512
 k-point 11 :   0.1333 0.0667 0.0000  plane waves:   12500
 k-point 12 :   0.2000 0.0667 0.0000  plane waves:   12494
 k-point 13 :   0.2667 0.0667 0.0000  plane waves:   12486
 k-point 14 :   0.3333 0.0667 0.0000  plane waves:   12518
 k-point 15 :   0.4000 0.0667 0.0000  plane waves:   12550
 k-point 16 :   0.4667 0.0667 0.0000  plane waves:   12528
 k-point 17 :  -0.4667 0.0667 0.0000  plane waves:   12528
 k-point 18 :  -0.4000 0.0667 0.0000  plane waves:   12550
 k-point 19 :  -0.3333 0.0667 0.0000  plane waves:   12518
 k-point 20 :  -0.2667 0.0667 0.0000  plane waves:   12486
 k-point 21 :  -0.2000 0.0667 0.0000  plane waves:   12494
 k-point 22 :  -0.1333 0.0667 0.0000  plane waves:   12500
 k-point 23 :  -0.0667 0.0667 0.0000  plane waves:   12512
 k-point 24 :   0.0000 0.1333 0.0000  plane waves:   12513
 k-point 25 :   0.0667 0.1333 0.0000  plane waves:   12520
 k-point 26 :   0.1333 0.1333 0.0000  plane waves:   12491
 k-point 27 :   0.2000 0.1333 0.0000  plane waves:   12479
 k-point 28 :   0.2667 0.1333 0.0000  plane waves:   12496
 k-point 29 :   0.3333 0.1333 0.0000  plane waves:   12518
 k-point 30 :   0.4000 0.1333 0.0000  plane waves:   12504
 k-point 31 :   0.4667 0.1333 0.0000  plane waves:   12509
 k-point 32 :  -0.4667 0.1333 0.0000  plane waves:   12509
 k-point 33 :  -0.4000 0.1333 0.0000  plane waves:   12504
 k-point 34 :  -0.3333 0.1333 0.0000  plane waves:   12518
 k-point 35 :  -0.2667 0.1333 0.0000  plane waves:   12496
 k-point 36 :  -0.2000 0.1333 0.0000  plane waves:   12479
 k-point 37 :  -0.1333 0.1333 0.0000  plane waves:   12491
 k-point 38 :  -0.0667 0.1333 0.0000  plane waves:   12520
 k-point 39 :   0.0000 0.2000 0.0000  plane waves:   12513
 k-point 40 :   0.0667 0.2000 0.0000  plane waves:   12505
 k-point 41 :   0.1333 0.2000 0.0000  plane waves:   12518
 k-point 42 :   0.2000 0.2000 0.0000  plane waves:   12503
 k-point 43 :   0.2667 0.2000 0.0000  plane waves:   12479
 k-point 44 :   0.3333 0.2000 0.0000  plane waves:   12499
 k-point 45 :   0.4000 0.2000 0.0000  plane waves:   12487
 k-point 46 :   0.4667 0.2000 0.0000  plane waves:   12500
 k-point 47 :  -0.4667 0.2000 0.0000  plane waves:   12500
 k-point 48 :  -0.4000 0.2000 0.0000  plane waves:   12487
 k-point 49 :  -0.3333 0.2000 0.0000  plane waves:   12499
 k-point 50 :  -0.2667 0.2000 0.0000  plane waves:   12479
 k-point 51 :  -0.2000 0.2000 0.0000  plane waves:   12503
 k-point 52 :  -0.1333 0.2000 0.0000  plane waves:   12518
 k-point 53 :  -0.0667 0.2000 0.0000  plane waves:   12505
 k-point 54 :   0.0000 0.2667 0.0000  plane waves:   12507
 k-point 55 :   0.0667 0.2667 0.0000  plane waves:   12490
 k-point 56 :   0.1333 0.2667 0.0000  plane waves:   12495
 k-point 57 :   0.2000 0.2667 0.0000  plane waves:   12480
 k-point 58 :   0.2667 0.2667 0.0000  plane waves:   12489
 k-point 59 :   0.3333 0.2667 0.0000  plane waves:   12493
 k-point 60 :   0.4000 0.2667 0.0000  plane waves:   12489
 k-point 61 :   0.4667 0.2667 0.0000  plane waves:   12497
 k-point 62 :  -0.4667 0.2667 0.0000  plane waves:   12497
 k-point 63 :  -0.4000 0.2667 0.0000  plane waves:   12489
 k-point 64 :  -0.3333 0.2667 0.0000  plane waves:   12493
 k-point 65 :  -0.2667 0.2667 0.0000  plane waves:   12489
 k-point 66 :  -0.2000 0.2667 0.0000  plane waves:   12480
 k-point 67 :  -0.1333 0.2667 0.0000  plane waves:   12495
 k-point 68 :  -0.0667 0.2667 0.0000  plane waves:   12490
 k-point 69 :   0.0000 0.3333 0.0000  plane waves:   12469
 k-point 70 :   0.0667 0.3333 0.0000  plane waves:   12472
 k-point 71 :   0.1333 0.3333 0.0000  plane waves:   12470
 k-point 72 :   0.2000 0.3333 0.0000  plane waves:   12483
 k-point 73 :   0.2667 0.3333 0.0000  plane waves:   12496
 k-point 74 :   0.3333 0.3333 0.0000  plane waves:   12471
 k-point 75 :   0.4000 0.3333 0.0000  plane waves:   12500
 k-point 76 :   0.4667 0.3333 0.0000  plane waves:   12493
 k-point 77 :  -0.4667 0.3333 0.0000  plane waves:   12493
 k-point 78 :  -0.4000 0.3333 0.0000  plane waves:   12500
 k-point 79 :  -0.3333 0.3333 0.0000  plane waves:   12471
 k-point 80 :  -0.2667 0.3333 0.0000  plane waves:   12496
 k-point 81 :  -0.2000 0.3333 0.0000  plane waves:   12483
 k-point 82 :  -0.1333 0.3333 0.0000  plane waves:   12470
 k-point 83 :  -0.0667 0.3333 0.0000  plane waves:   12472
 k-point 84 :   0.0000 0.4000 0.0000  plane waves:   12441
 k-point 85 :   0.0667 0.4000 0.0000  plane waves:   12466
 k-point 86 :   0.1333 0.4000 0.0000  plane waves:   12482
 k-point 87 :   0.2000 0.4000 0.0000  plane waves:   12480
 k-point 88 :   0.2667 0.4000 0.0000  plane waves:   12495
 k-point 89 :   0.3333 0.4000 0.0000  plane waves:   12466
 k-point 90 :   0.4000 0.4000 0.0000  plane waves:   12468
 k-point 91 :   0.4667 0.4000 0.0000  plane waves:   12464
 k-point 92 :  -0.4667 0.4000 0.0000  plane waves:   12464
 k-point 93 :  -0.4000 0.4000 0.0000  plane waves:   12468
 k-point 94 :  -0.3333 0.4000 0.0000  plane waves:   12466
 k-point 95 :  -0.2667 0.4000 0.0000  plane waves:   12495
 k-point 96 :  -0.2000 0.4000 0.0000  plane waves:   12480
 k-point 97 :  -0.1333 0.4000 0.0000  plane waves:   12482
 k-point 98 :  -0.0667 0.4000 0.0000  plane waves:   12466
 k-point 99 :   0.0000 0.4667 0.0000  plane waves:   12457
 k-point ** :   0.0667 0.4667 0.0000  plane waves:   12465
 k-point ** :   0.1333 0.4667 0.0000  plane waves:   12469
 k-point ** :   0.2000 0.4667 0.0000  plane waves:   12459
 k-point ** :   0.2667 0.4667 0.0000  plane waves:   12450
 k-point ** :   0.3333 0.4667 0.0000  plane waves:   12452
 k-point ** :   0.4000 0.4667 0.0000  plane waves:   12460
 k-point ** :   0.4667 0.4667 0.0000  plane waves:   12466
 k-point ** :  -0.4667 0.4667 0.0000  plane waves:   12466
 k-point ** :  -0.4000 0.4667 0.0000  plane waves:   12460
 k-point ** :  -0.3333 0.4667 0.0000  plane waves:   12452
 k-point ** :  -0.2667 0.4667 0.0000  plane waves:   12450
 k-point ** :  -0.2000 0.4667 0.0000  plane waves:   12459
 k-point ** :  -0.1333 0.4667 0.0000  plane waves:   12469
 k-point ** :  -0.0667 0.4667 0.0000  plane waves:   12465

 maximum and minimum number of plane-waves per node :       547      504

 maximum number of plane-waves:     12550
 maximum index in each direction: 
   IXMAX=    9   IYMAX=    8   IZMAX=   39
   IXMIN=   -9   IYMIN=   -8   IZMIN=  -39


 parallel 3D FFT for wavefunctions:
    minimum data exchange during FFTs selected (reduces bandwidth)
 parallel 3D FFT for charge:
    minimum data exchange during FFTs selected (reduces bandwidth)


 total amount of memory used by VASP MPI-rank0    62927. kBytes
=======================================================================

   base      :      30000. kBytes
   nonl-proj :      12326. kBytes
   fftplans  :       2677. kBytes
   grid      :       4349. kBytes
   one-center:          8. kBytes
   wavefun   :      13567. kBytes
 
     INWAV:  cpu time    0.0000: real time    0.0000
 Broyden mixing: mesh for mixing (old mesh)
   NGX = 17   NGY = 17   NGZ = 79
  (NGX  = 72   NGY  = 72   NGZ  =320)
  gives a total of  22831 points

 initial charge density was supplied:
 charge density of overlapping atoms calculated
 number of electron      20.0000000 magnetization 
 keeping initial charge density in first step


--------------------------------------------------------------------------------------------------------


 Maximum index for augmentation-charges         2238 (set IRDMAX)


--------------------------------------------------------------------------------------------------------


 First call to EWALD:  gamma=   0.246
 Maximum number of real-space cells 4x 4x 1
 Maximum number of reciprocal cells 2x 2x 7

    FEWALD:  cpu time    0.0047: real time    0.0056


--------------------------------------- Iteration      1(   1)  ---------------------------------------


    POTLOK:  cpu time    0.0505: real time    0.1342
    SETDIJ:  cpu time    0.0041: real time    0.0062
     EDDAV:  cpu time    2.7136: real time    2.8067
       DOS:  cpu time    0.0053: real time    0.0053
    --------------------------------------------
      LOOP:  cpu time    2.7735: real time    2.9523

 eigenvalue-minimisations  :  3164
 total energy-change (2. order) : 0.1437139E+03  (-0.6253426E+03)
 number of electron      20.0000000 magnetization 
 augmentation part       20.0000000 magnetization 

 Free energy of the ion-electron system (eV)
  ---------------------------------------------------
  alpha Z        PSCENC =         9.55197743
  Ewald energy   TEWEN  =      1160.81478656
  -Hartree energ DENC   =     -1762.80193565
  -exchange      EXHF   =         0.00000000
  -V(xc)+E(xc)   XCENC  =      -238.55291493
  PAW double counting   =       799.43158084     -524.17639913
  entropy T*S    EENTRO =        -0.01046388
  eigenvalues    EBANDS =        -2.97065773
  atomic energy  EATOM  =       702.42789710
  Solvation  Ediel_sol  =         0.00000000
  ---------------------------------------------------
  free energy    TOTEN  =       143.71387062 eV

  energy without entropy =      143.72433450  energy(sigma->0) =      143.71910256


--------------------------------------------------------------------------------------------------------




--------------------------------------- Iteration      1(   2)  ---------------------------------------


     EDDAV:  cpu time    4.1538: real time    4.1667
       DOS:  cpu time    0.0054: real time    0.0054
    --------------------------------------------
      LOOP:  cpu time    4.1592: real time    4.1721

 eigenvalue-minimisations  :  5152
 total energy-change (2. order) :-0.1390521E+03  (-0.1347055E+03)
 number of electron      20.0000000 magnetization 
 augmentation part       20.0000000 magnetization 

 Free energy of the ion-electron system (eV)
  ---------------------------------------------------
  alpha Z        PSCENC =         9.55197743
  Ewald energy   TEWEN  =      1160.81478656
  -Hartree energ DENC   =     -1762.80193565
  -exchange      EXHF   =         0.00000000
  -V(xc)+E(xc)   XCENC  =      -238.55291493
  PAW double counting   =       799.43158084     -524.17639913
  entropy T*S    EENTRO =        -0.00080766
  eigenvalues    EBANDS =      -142.03245023
  atomic energy  EATOM  =       702.42789710
  Solvation  Ediel_sol  =         0.00000000
  ---------------------------------------------------
  free energy    TOTEN  =         4.66173433 eV

  energy without entropy =        4.66254199  energy(sigma->0) =        4.66213816


--------------------------------------------------------------------------------------------------------




--------------------------------------- Iteration      1(   3)  ---------------------------------------


     EDDAV:  cpu time    3.4390: real time    3.4503
       DOS:  cpu time    0.0038: real time    0.0038
    --------------------------------------------
      LOOP:  cpu time    3.4428: real time    3.4542

 eigenvalue-minimisations  :  3950
 total energy-change (2. order) :-0.2062561E+02  (-0.2048217E+02)
 number of electron      20.0000000 magnetization 
 augmentation part       20.0000000 magnetization 

 Free energy of the ion-electron system (eV)
  ---------------------------------------------------
  alpha Z        PSCENC =         9.55197743
  Ewald energy   TEWEN  =      1160.81478656
  -Hartree energ DENC   =     -1762.80193565
  -exchange      EXHF   =         0.00000000
  -V(xc)+E(xc)   XCENC  =      -238.55291493
  PAW double counting   =       799.43158084     -524.17639913
  entropy T*S    EENTRO =        -0.00000000
  eigenvalues    EBANDS =      -162.65887209
  atomic energy  EATOM  =       702.42789710
  Solvation  Ediel_sol  =         0.00000000
  ---------------------------------------------------
  free energy    TOTEN  =       -15.96387986 eV

  energy without entropy =      -15.96387986  energy(sigma->0) =      -15.96387986


--------------------------------------------------------------------------------------------------------




--------------------------------------- Iteration      1(   4)  ---------------------------------------


     EDDAV:  cpu time    3.6807: real time    3.6959
       DOS:  cpu time    0.0038: real time    0.0038
    --------------------------------------------
      LOOP:  cpu time    3.6845: real time    3.6997

 eigenvalue-minimisations  :  4566
 total energy-change (2. order) :-0.8088469E+00  (-0.8065747E+00)
 number of electron      20.0000000 magnetization 
 augmentation part       20.0000000 magnetization 

 Free energy of the ion-electron system (eV)
  ---------------------------------------------------
  alpha Z        PSCENC =         9.55197743
  Ewald energy   TEWEN  =      1160.81478656
  -Hartree energ DENC   =     -1762.80193565
  -exchange      EXHF   =         0.00000000
  -V(xc)+E(xc)   XCENC  =      -238.55291493
  PAW double counting   =       799.43158084     -524.17639913
  entropy T*S    EENTRO =        -0.00000000
  eigenvalues    EBANDS =      -163.46771898
  atomic energy  EATOM  =       702.42789710
  Solvation  Ediel_sol  =         0.00000000
  ---------------------------------------------------
  free energy    TOTEN  =       -16.77272675 eV

  energy without entropy =      -16.77272675  energy(sigma->0) =      -16.77272675


--------------------------------------------------------------------------------------------------------




--------------------------------------- Iteration      1(   5)  ---------------------------------------


     EDDAV:  cpu time    3.5719: real time    3.5845
       DOS:  cpu time    0.0040: real time    0.0040
    CHARGE:  cpu time    0.2489: real time    0.2543
    MIXING:  cpu time    0.0014: real time    0.0017
    --------------------------------------------
      LOOP:  cpu time    3.8262: real time    3.8445

 eigenvalue-minimisations  :  4134
 total energy-change (2. order) :-0.1803196E-01  (-0.1801611E-01)
 number of electron      20.0000000 magnetization 
 augmentation part       -4.5243330 magnetization 

 Broyden mixing:
  rms(total) = 0.45378E+00    rms(broyden)= 0.45378E+00
  rms(prec ) = 0.49371E+00
  weight for this iteration     100.00

 Free energy of the ion-electron system (eV)
  ---------------------------------------------------
  alpha Z        PSCENC =         9.55197743
  Ewald energy   TEWEN  =      1160.81478656
  -Hartree energ DENC   =     -1762.80193565
  -exchange      EXHF   =         0.00000000
  -V(xc)+E(xc)   XCENC  =      -238.55291493
  PAW double counting   =       799.43158084     -524.17639913
  entropy T*S    EENTRO =        -0.00000000
  eigenvalues    EBANDS =      -163.48575094
  atomic energy  EATOM  =       702.42789710
  Solvation  Ediel_sol  =         0.00000000
  ---------------------------------------------------
  free energy    TOTEN  =       -16.79075871 eV

  energy without entropy =      -16.79075871  energy(sigma->0) =      -16.79075871


--------------------------------------------------------------------------------------------------------




--------------------------------------- Iteration      1(   6)  ---------------------------------------


    POTLOK:  cpu time    0.0374: real time    0.0383
    SETDIJ:  cpu time    0.0035: real time    0.0035
     EDDAV:  cpu time    3.3501: real time    3.4223
       DOS:  cpu time    0.0040: real time    0.0041
    CHARGE:  cpu time    0.2227: real time    0.2264
    MIXING:  cpu time    0.0014: real time    0.0014
    --------------------------------------------
      LOOP:  cpu time    3.6191: real time    3.6959

 eigenvalue-minimisations  :  3966
 total energy-change (2. order) : 0.4849046E+00  (-0.1225274E+00)
 number of electron      20.0000000 magnetization 
 augmentation part       -4.4920325 magnetization 

 Broyden mixing:
  rms(total) = 0.27877E+00    rms(broyden)= 0.27877E+00
  rms(prec ) = 0.28790E+00
  weight for this iteration     100.00

 eigenvalues of (default mixing * dielectric matrix)
  average eigenvalue GAMMA=   1.8201
  1.8201

 Free energy of the ion-electron system (eV)
  ---------------------------------------------------
  alpha Z        PSCENC =         9.55197743
  Ewald energy   TEWEN  =      1160.81478656
  -Hartree energ DENC   =     -1770.66692188
  -exchange      EXHF   =         0.00000000
  -V(xc)+E(xc)   XCENC  =      -238.07114952
  PAW double counting   =       925.49009692     -650.41969962
  entropy T*S    EENTRO =        -0.00000000
  eigenvalues    EBANDS =      -155.43284108
  atomic energy  EATOM  =       702.42789710
  Solvation  Ediel_sol  =         0.00000000
  ---------------------------------------------------
  free energy    TOTEN  =       -16.30585409 eV

  energy without entropy =      -16.30585409  energy(sigma->0) =      -16.30585409


--------------------------------------------------------------------------------------------------------




--------------------------------------- Iteration      1(   7)  ---------------------------------------


    POTLOK:  cpu time    0.0398: real time    0.0408
    SETDIJ:  cpu time    0.0034: real time    0.0035
     EDDAV:  cpu time    3.4258: real time    3.4992
       DOS:  cpu time    0.0038: real time    0.0038
    CHARGE:  cpu time    0.2258: real time    0.2293
    MIXING:  cpu time    0.0015: real time    0.0016
    --------------------------------------------
      LOOP:  cpu time    3.7001: real time    3.7783

 eigenvalue-minimisations  :  4080
 total energy-change (2. order) : 0.2826901E-01  (-0.3164911E-01)
 number of electron      20.0000000 magnetization 
 augmentation part       -4.4831799 magnetization 

 Broyden mixing:
  rms(total) = 0.10408E+00    rms(broyden)= 0.10408E+00
  rms(prec ) = 0.10953E+00
  weight for this iteration     100.00

 eigenvalues of (default mixing * dielectric matrix)
  average eigenvalue GAMMA=   1.7346
  1.3751  2.0942

 Free energy of the ion-electron system (eV)
  ---------------------------------------------------
  alpha Z        PSCENC =         9.55197743
  Ewald energy   TEWEN  =      1160.81478656
  -Hartree energ DENC   =     -1775.78683709
  -exchange      EXHF   =         0.00000000
  -V(xc)+E(xc)   XCENC  =      -237.74199951
  PAW double counting   =      1069.71332929     -794.78640062
  entropy T*S    EENTRO =        -0.00000000
  eigenvalues    EBANDS =      -150.47033824
  atomic energy  EATOM  =       702.42789710
  Solvation  Ediel_sol  =         0.00000000
  ---------------------------------------------------
  free energy    TOTEN  =       -16.27758507 eV

  energy without entropy =      -16.27758507  energy(sigma->0) =      -16.27758507


--------------------------------------------------------------------------------------------------------




--------------------------------------- Iteration      1(   8)  ---------------------------------------


    POTLOK:  cpu time    0.0383: real time    0.0393
    SETDIJ:  cpu time    0.0033: real time    0.0034
     EDDAV:  cpu time    3.6276: real time    3.7041
       DOS:  cpu time    0.0041: real time    0.0042
    CHARGE:  cpu time    0.2381: real time    0.2417
    MIXING:  cpu time    0.0016: real time    0.0016
    --------------------------------------------
      LOOP:  cpu time    3.9130: real time    3.9942

 eigenvalue-minimisations  :  4466
 total energy-change (2. order) : 0.9836693E-02  (-0.3909436E-02)
 number of electron      20.0000000 magnetization 
 augmentation part       -4.4873880 magnetization 

 Broyden mixing:
  rms(total) = 0.20423E-01    rms(broyden)= 0.20423E-01
  rms(prec ) = 0.27875E-01
  weight for this iteration     100.00

 eigenvalues of (default mixing * dielectric matrix)
  average eigenvalue GAMMA=   1.7117
  2.5345  1.3004  1.3004

 Free energy of the ion-electron system (eV)
  ---------------------------------------------------
  alpha Z        PSCENC =         9.55197743
  Ewald energy   TEWEN  =      1160.81478656
  -Hartree energ DENC   =     -1777.47688444
  -exchange      EXHF   =         0.00000000
  -V(xc)+E(xc)   XCENC  =      -237.66458957
  PAW double counting   =      1135.24282217     -860.35498935
  entropy T*S    EENTRO =        -0.00000000
  eigenvalues    EBANDS =      -148.80876828
  atomic energy  EATOM  =       702.42789710
  Solvation  Ediel_sol  =         0.00000000
  ---------------------------------------------------
  free energy    TOTEN  =       -16.26774838 eV

  energy without entropy =      -16.26774838  energy(sigma->0) =      -16.26774838


--------------------------------------------------------------------------------------------------------




--------------------------------------- Iteration      1(   9)  ---------------------------------------


    POTLOK:  cpu time    0.0381: real time    0.0391
    SETDIJ:  cpu time    0.0035: real time    0.0039
     EDDAV:  cpu time    3.6203: real time    3.6981
       DOS:  cpu time    0.0040: real time    0.0041
    CHARGE:  cpu time    0.2321: real time    0.2357
    MIXING:  cpu time    0.0017: real time    0.0017
    --------------------------------------------
      LOOP:  cpu time    3.8997: real time    3.9826

 eigenvalue-minimisations  :  4334
 total energy-change (2. order) : 0.3767030E-02  (-0.6677247E-03)
 number of electron      20.0000000 magnetization 
 augmentation part       -4.4854563 magnetization 

 Broyden mixing:
  rms(total) = 0.10102E-01    rms(broyden)= 0.10102E-01
  rms(prec ) = 0.15677E-01
  weight for this iteration     100.00

 eigenvalues of (default mixing * dielectric matrix)
  average eigenvalue GAMMA=   1.6972
  2.2042  2.2042  1.1902  1.1902

 Free energy of the ion-electron system (eV)
  ---------------------------------------------------
  alpha Z        PSCENC =         9.55197743
  Ewald energy   TEWEN  =      1160.81478656
  -Hartree energ DENC   =     -1779.47330187
  -exchange      EXHF   =         0.00000000
  -V(xc)+E(xc)   XCENC  =      -237.59092812
  PAW double counting   =      1153.64525126     -878.76971020
  entropy T*S    EENTRO =        -0.00000000
  eigenvalues    EBANDS =      -146.86995350
  atomic energy  EATOM  =       702.42789710
  Solvation  Ediel_sol  =         0.00000000
  ---------------------------------------------------
  free energy    TOTEN  =       -16.26398135 eV

  energy without entropy =      -16.26398135  energy(sigma->0) =      -16.26398135


--------------------------------------------------------------------------------------------------------




--------------------------------------- Iteration      1(  10)  ---------------------------------------


    POTLOK:  cpu time    0.0379: real time    0.0387
    SETDIJ:  cpu time    0.0035: real time    0.0036
     EDDAV:  cpu time    3.5559: real time    3.6317
       DOS:  cpu time    0.0040: real time    0.0041
    CHARGE:  cpu time    0.2262: real time    0.2305
    MIXING:  cpu time    0.0016: real time    0.0016
    --------------------------------------------
      LOOP:  cpu time    3.8291: real time    3.9102

 eigenvalue-minimisations  :  4334
 total energy-change (2. order) : 0.1248597E-02  (-0.1169709E-03)
 number of electron      20.0000000 magnetization 
 augmentation part       -4.4842112 magnetization 

 Broyden mixing:
  rms(total) = 0.51291E-02    rms(broyden)= 0.51291E-02
  rms(prec ) = 0.94602E-02
  weight for this iteration     100.00

 eigenvalues of (default mixing * dielectric matrix)
  average eigenvalue GAMMA=   1.8723
  3.3707  2.5982  1.2423  1.2423  0.9079

 Free energy of the ion-electron system (eV)
  ---------------------------------------------------
  alpha Z        PSCENC =         9.55197743
  Ewald energy   TEWEN  =      1160.81478656
  -Hartree energ DENC   =     -1780.72156274
  -exchange      EXHF   =         0.00000000
  -V(xc)+E(xc)   XCENC  =      -237.58021132
  PAW double counting   =      1143.17889640     -868.29312783
  entropy T*S    EENTRO =        -0.00000000
  eigenvalues    EBANDS =      -145.64138834
  atomic energy  EATOM  =       702.42789710
  Solvation  Ediel_sol  =         0.00000000
  ---------------------------------------------------
  free energy    TOTEN  =       -16.26273275 eV

  energy without entropy =      -16.26273275  energy(sigma->0) =      -16.26273275


--------------------------------------------------------------------------------------------------------




--------------------------------------- Iteration      1(  11)  ---------------------------------------


    POTLOK:  cpu time    0.0394: real time    0.0401
    SETDIJ:  cpu time    0.0033: real time    0.0034
     EDDAV:  cpu time    3.5237: real time    3.5981
       DOS:  cpu time    0.0041: real time    0.0042
    CHARGE:  cpu time    0.2386: real time    0.2435
    MIXING:  cpu time    0.0016: real time    0.0016
    --------------------------------------------
      LOOP:  cpu time    3.8107: real time    3.8910

 eigenvalue-minimisations  :  4298
 total energy-change (2. order) : 0.7552523E-03  (-0.1325124E-03)
 number of electron      20.0000000 magnetization 
 augmentation part       -4.4827855 magnetization 

 Broyden mixing:
  rms(total) = 0.33382E-02    rms(broyden)= 0.33382E-02
  rms(prec ) = 0.50312E-02
  weight for this iteration     100.00

 eigenvalues of (default mixing * dielectric matrix)
  average eigenvalue GAMMA=   1.8437
  3.3980  2.1969  2.1969  1.1962  1.1962  0.8782

 Free energy of the ion-electron system (eV)
  ---------------------------------------------------
  alpha Z        PSCENC =         9.55197743
  Ewald energy   TEWEN  =      1160.81478656
  -Hartree energ DENC   =     -1782.36865173
  -exchange      EXHF   =         0.00000000
  -V(xc)+E(xc)   XCENC  =      -237.54816070
  PAW double counting   =      1144.46129932     -869.57433650
  entropy T*S    EENTRO =        -0.00000000
  eigenvalues    EBANDS =      -144.02678897
  atomic energy  EATOM  =       702.42789710
  Solvation  Ediel_sol  =         0.00000000
  ---------------------------------------------------
  free energy    TOTEN  =       -16.26197750 eV

  energy without entropy =      -16.26197750  energy(sigma->0) =      -16.26197750


--------------------------------------------------------------------------------------------------------




--------------------------------------- Iteration      1(  12)  ---------------------------------------


    POTLOK:  cpu time    0.0413: real time    0.0422
    SETDIJ:  cpu time    0.0034: real time    0.0035
     EDDAV:  cpu time    3.1746: real time    3.2437
       DOS:  cpu time    0.0041: real time    0.0042
    CHARGE:  cpu time    0.2394: real time    0.2438
    MIXING:  cpu time    0.0017: real time    0.0017
    --------------------------------------------
      LOOP:  cpu time    3.4646: real time    3.5391

 eigenvalue-minimisations  :  3614
 total energy-change (2. order) :-0.8326654E-03  (-0.3093718E-04)
 number of electron      20.0000000 magnetization 
 augmentation part       -4.4821532 magnetization 

 Broyden mixing:
  rms(total) = 0.19318E-02    rms(broyden)= 0.19318E-02
  rms(prec ) = 0.28909E-02
  weight for this iteration     100.00

 eigenvalues of (default mixing * dielectric matrix)
  average eigenvalue GAMMA=   2.0687
  4.5968  3.0921  2.5048  1.2101  1.2101  1.0252  0.8420

 Free energy of the ion-electron system (eV)
  ---------------------------------------------------
  alpha Z        PSCENC =         9.55197743
  Ewald energy   TEWEN  =      1160.81478656
  -Hartree energ DENC   =     -1782.99898650
  -exchange      EXHF   =         0.00000000
  -V(xc)+E(xc)   XCENC  =      -237.53851971
  PAW double counting   =      1146.46821000     -871.58419762
  entropy T*S    EENTRO =        -0.00000000
  eigenvalues    EBANDS =      -143.40397744
  atomic energy  EATOM  =       702.42789710
  Solvation  Ediel_sol  =         0.00000000
  ---------------------------------------------------
  free energy    TOTEN  =       -16.26281017 eV

  energy without entropy =      -16.26281017  energy(sigma->0) =      -16.26281017


--------------------------------------------------------------------------------------------------------




--------------------------------------- Iteration      1(  13)  ---------------------------------------


    POTLOK:  cpu time    0.0387: real time    0.0395
    SETDIJ:  cpu time    0.0035: real time    0.0036
     EDDAV:  cpu time    3.2537: real time    3.3351
       DOS:  cpu time    0.0040: real time    0.0042
    CHARGE:  cpu time    0.2315: real time    0.2352
    MIXING:  cpu time    0.0017: real time    0.0017
    --------------------------------------------
      LOOP:  cpu time    3.5332: real time    3.6193

 eigenvalue-minimisations  :  3710
 total energy-change (2. order) :-0.4282014E-03  (-0.8284798E-05)
 number of electron      20.0000000 magnetization 
 augmentation part       -4.4819532 magnetization 

 Broyden mixing:
  rms(total) = 0.11841E-02    rms(broyden)= 0.11841E-02
  rms(prec ) = 0.15519E-02
  weight for this iteration     100.00

 eigenvalues of (default mixing * dielectric matrix)
  average eigenvalue GAMMA=   2.2312
  5.5869  3.3135  2.4904  2.1652  1.1625  1.1625  1.0592  0.9095

 Free energy of the ion-electron system (eV)
  ---------------------------------------------------
  alpha Z        PSCENC =         9.55197743
  Ewald energy   TEWEN  =      1160.81478656
  -Hartree energ DENC   =     -1783.40964949
  -exchange      EXHF   =         0.00000000
  -V(xc)+E(xc)   XCENC  =      -237.53741696
  PAW double counting   =      1145.18792708     -870.30260633
  entropy T*S    EENTRO =        -0.00000000
  eigenvalues    EBANDS =      -142.99615376
  atomic energy  EATOM  =       702.42789710
  Solvation  Ediel_sol  =         0.00000000
  ---------------------------------------------------
  free energy    TOTEN  =       -16.26323837 eV

  energy without entropy =      -16.26323837  energy(sigma->0) =      -16.26323837


--------------------------------------------------------------------------------------------------------




--------------------------------------- Iteration      1(  14)  ---------------------------------------


    POTLOK:  cpu time    0.0397: real time    0.0405
    SETDIJ:  cpu time    0.0034: real time    0.0035
     EDDAV:  cpu time    3.1933: real time    3.2603
       DOS:  cpu time    0.0041: real time    0.0041
    CHARGE:  cpu time    0.2397: real time    0.2436
    MIXING:  cpu time    0.0020: real time    0.0021
    --------------------------------------------
      LOOP:  cpu time    3.4821: real time    3.5541

 eigenvalue-minimisations  :  3932
 total energy-change (2. order) :-0.2653526E-03  (-0.4331229E-05)
 number of electron      20.0000000 magnetization 
 augmentation part       -4.4819309 magnetization 

 Broyden mixing:
  rms(total) = 0.41136E-03    rms(broyden)= 0.41136E-03
  rms(prec ) = 0.62863E-03
  weight for this iteration     100.00

 eigenvalues of (default mixing * dielectric matrix)
  average eigenvalue GAMMA=   2.2418
  6.7352  3.0694  2.5325  2.5325  1.1869  1.1869  1.0564  0.9380  0.9380

 Free energy of the ion-electron system (eV)
  ---------------------------------------------------
  alpha Z        PSCENC =         9.55197743
  Ewald energy   TEWEN  =      1160.81478656
  -Hartree energ DENC   =     -1783.61795335
  -exchange      EXHF   =         0.00000000
  -V(xc)+E(xc)   XCENC  =      -237.53731971
  PAW double counting   =      1145.45419858     -870.56828888
  entropy T*S    EENTRO =        -0.00000000
  eigenvalues    EBANDS =      -142.78880145
  atomic energy  EATOM  =       702.42789710
  Solvation  Ediel_sol  =         0.00000000
  ---------------------------------------------------
  free energy    TOTEN  =       -16.26350372 eV

  energy without entropy =      -16.26350372  energy(sigma->0) =      -16.26350372


--------------------------------------------------------------------------------------------------------




--------------------------------------- Iteration      1(  15)  ---------------------------------------


    POTLOK:  cpu time    0.0402: real time    0.0410
    SETDIJ:  cpu time    0.0034: real time    0.0034
     EDDAV:  cpu time    3.2853: real time    3.3564
       DOS:  cpu time    0.0041: real time    0.0041
    CHARGE:  cpu time    0.2418: real time    0.2457
    MIXING:  cpu time    0.0019: real time    0.0020
    --------------------------------------------
      LOOP:  cpu time    3.5766: real time    3.6526

 eigenvalue-minimisations  :  3770
 total energy-change (2. order) :-0.5505774E-04  (-0.2009378E-06)
 number of electron      20.0000000 magnetization 
 augmentation part       -4.4819466 magnetization 

 Broyden mixing:
  rms(total) = 0.33968E-03    rms(broyden)= 0.33968E-03
  rms(prec ) = 0.51167E-03
  weight for this iteration     100.00

 eigenvalues of (default mixing * dielectric matrix)
  average eigenvalue GAMMA=   2.3578
  6.5539  4.2755  2.7060  2.7060  1.9789  1.1425  1.1425  1.2038  0.9343  0.9343

 Free energy of the ion-electron system (eV)
  ---------------------------------------------------
  alpha Z        PSCENC =         9.55197743
  Ewald energy   TEWEN  =      1160.81478656
  -Hartree energ DENC   =     -1783.63339109
  -exchange      EXHF   =         0.00000000
  -V(xc)+E(xc)   XCENC  =      -237.53761955
  PAW double counting   =      1145.28304532     -870.39701783
  entropy T*S    EENTRO =        -0.00000000
  eigenvalues    EBANDS =      -142.77323672
  atomic energy  EATOM  =       702.42789710
  Solvation  Ediel_sol  =         0.00000000
  ---------------------------------------------------
  free energy    TOTEN  =       -16.26355878 eV

  energy without entropy =      -16.26355878  energy(sigma->0) =      -16.26355878


--------------------------------------------------------------------------------------------------------




--------------------------------------- Iteration      1(  16)  ---------------------------------------


    POTLOK:  cpu time    0.0387: real time    0.0396
    SETDIJ:  cpu time    0.0059: real time    0.0060
     EDDAV:  cpu time    3.0970: real time    3.1633
       DOS:  cpu time    0.0041: real time    0.0041
    CHARGE:  cpu time    0.2404: real time    0.2440
    MIXING:  cpu time    0.0022: real time    0.0022
    --------------------------------------------
      LOOP:  cpu time    3.3883: real time    3.4592

 eigenvalue-minimisations  :  3510
 total energy-change (2. order) :-0.4744254E-04  (-0.8527835E-06)
 number of electron      20.0000000 magnetization 
 augmentation part       -4.4819591 magnetization 

 Broyden mixing:
  rms(total) = 0.12819E-03    rms(broyden)= 0.12819E-03
  rms(prec ) = 0.22787E-03
  weight for this iteration     100.00

 eigenvalues of (default mixing * dielectric matrix)
  average eigenvalue GAMMA=   2.2818
  6.7929  4.5121  2.6471  2.6471  2.2672  1.1573  1.1573  1.1902  0.9334  0.9334
  0.8618

 Free energy of the ion-electron system (eV)
  ---------------------------------------------------
  alpha Z        PSCENC =         9.55197743
  Ewald energy   TEWEN  =      1160.81478656
  -Hartree energ DENC   =     -1783.68629140
  -exchange      EXHF   =         0.00000000
  -V(xc)+E(xc)   XCENC  =      -237.53772960
  PAW double counting   =      1145.11560544     -870.22957430
  entropy T*S    EENTRO =        -0.00000000
  eigenvalues    EBANDS =      -142.72027745
  atomic energy  EATOM  =       702.42789710
  Solvation  Ediel_sol  =         0.00000000
  ---------------------------------------------------
  free energy    TOTEN  =       -16.26360622 eV

  energy without entropy =      -16.26360622  energy(sigma->0) =      -16.26360622


--------------------------------------------------------------------------------------------------------




--------------------------------------- Iteration      1(  17)  ---------------------------------------


    POTLOK:  cpu time    0.0389: real time    0.0397
    SETDIJ:  cpu time    0.0035: real time    0.0035
     EDDAV:  cpu time    2.8483: real time    2.9087
       DOS:  cpu time    0.0038: real time    0.0039
    CHARGE:  cpu time    0.2233: real time    0.2267
    MIXING:  cpu time    0.0021: real time    0.0021
    --------------------------------------------
[...]
  band No.  band energies     occupation 
      1     -14.5505      2.00000
      2     -14.2938      2.00000
      3      -8.8209      2.00000
      4      -8.5975      2.00000
      5      -6.0831      2.00000
      6      -5.1180      2.00000
      7      -4.8286      2.00000
      8      -4.0827      2.00000
      9      -3.8668      2.00000
     10      -3.0829      2.00000
     11       0.1381      0.00000
     12       1.0880      0.00000
     13       1.1870      0.00000
     14       1.5949      0.00000

 k-point    96 :      -0.2000    0.4000    0.0000
  band No.  band energies     occupation 
      1     -14.6205      2.00000
      2     -14.3167      2.00000
      3      -8.9859      2.00000
      4      -8.7002      2.00000
      5      -5.6446      2.00000
      6      -4.8256      2.00000
      7      -4.5617      2.00000
      8      -3.9469      2.00000
      9      -3.4986      2.00000
     10      -2.7027      2.00000
     11      -0.3414      0.00000
     12       0.5718      0.00000
     13       0.7154      0.00000
     14       1.2379      0.00000

 k-point    97 :      -0.1333    0.4000    0.0000
  band No.  band energies     occupation 
      1     -14.6766      2.00000
      2     -14.3396      2.00000
      3      -9.1138      2.00000
      4      -8.7847      2.00000
      5      -5.1250      2.00000
      6      -4.7622      2.00000
      7      -4.1499      2.00000
      8      -3.9030      2.00000
      9      -2.9295      2.00000
     10      -2.4678      2.00000
     11      -0.6293      0.00000
     12      -0.1642      0.00000
     13       0.4932      0.00000
     14       0.8034      0.00000

 k-point    98 :      -0.0667    0.4000    0.0000
  band No.  band energies     occupation 
      1     -14.7126      2.00000
      2     -14.3560      2.00000
      3      -9.1938      2.00000
      4      -8.8397      2.00000
      5      -4.7671      2.00000
      6      -4.5865      2.00000
      7      -3.9320      2.00000
      8      -3.7391      2.00000
      9      -2.6348      2.00000
     10      -2.3501      2.00000
     11      -0.7648      0.00000
     12      -0.3817      0.00000
     13       0.2351      0.00000
     14       0.3742      0.00000

 k-point    99 :       0.0000    0.4667    0.0000
  band No.  band energies     occupation 
      1     -14.5789      2.00000
      2     -14.4539      2.00000
      3      -9.2063      2.00000
      4      -9.0817      2.00000
      5      -4.5251      2.00000
      6      -4.3035      2.00000
      7      -3.8538      2.00000
      8      -3.6567      2.00000
      9      -2.5483      2.00000
     10      -2.2022      2.00000
     11      -0.9041      0.00000
     12      -0.4599      0.00000
     13      -0.0772      0.00000
     14       0.1240      0.00000

 k-point   100 :       0.0667    0.4667    0.0000
  band No.  band energies     occupation 
      1     -14.5686      2.00000
      2     -14.4459      2.00000
      3      -9.1783      2.00000
      4      -9.0565      2.00000
      5      -4.5392      2.00000
      6      -4.4211      2.00000
      7      -4.0012      2.00000
      8      -3.8679      2.00000
      9      -2.4631      2.00000
     10      -2.3629      2.00000
     11      -0.8095      0.00000
     12      -0.6997      0.00000
     13       0.2899      0.00000
     14       0.5944      0.00000

 k-point   101 :       0.1333    0.4667    0.0000
  band No.  band energies     occupation 
      1     -14.5392      2.00000
      2     -14.4233      2.00000
      3      -9.0955      2.00000
      4      -8.9824      2.00000
      5      -4.8423      2.00000
      6      -4.6518      2.00000
      7      -4.2388      2.00000
      8      -4.1116      2.00000
      9      -2.8396      2.00000
     10      -2.6276      2.00000
     11      -0.5535      0.00000
     12      -0.3164      0.00000
     13       0.7951      0.00000
     14       0.8954      0.00000

 k-point   102 :       0.2000    0.4667    0.0000
  band No.  band energies     occupation 
      1     -14.4943      2.00000
      2     -14.3899      2.00000
      3      -8.9616      2.00000
      4      -8.8636      2.00000
      5      -5.3605      2.00000
      6      -5.0324      2.00000
      7      -4.4263      2.00000
      8      -4.1874      2.00000
      9      -3.3597      2.00000
     10      -3.0576      2.00000
     11      -0.0184      0.00000
     12       0.3432      0.00000
     13       1.0204      0.00000
     14       1.2453      0.00000

 k-point   103 :       0.2667    0.4667    0.0000
  band No.  band energies     occupation 
      1     -14.4399      2.00000
      2     -14.3519      2.00000
      3      -8.7847      2.00000
      4      -8.7089      2.00000
      5      -5.8388      2.00000
      6      -5.4933      2.00000
      7      -4.6274      2.00000
      8      -4.3603      2.00000
      9      -3.7003      2.00000
     10      -3.4259      2.00000
     11       0.5012      0.00000
     12       0.8615      0.00000
     13       1.4298      0.00000
     14       1.6723      0.00000

 k-point   104 :       0.3333    0.4667    0.0000
  band No.  band energies     occupation 
      1     -14.3841      2.00000
      2     -14.3169      2.00000
      3      -8.5814      2.00000
      4      -8.5341      2.00000
      5      -6.2300      2.00000
      6      -5.9131      2.00000
      7      -4.9345      2.00000
      8      -4.6700      2.00000
      9      -3.8047      2.00000
     10      -3.6058      2.00000
     11       0.8495      0.00000
     12       1.1246      0.00000
     13       1.9993      0.00000
     14       2.2650      0.00000

 k-point   105 :       0.4000    0.4667    0.0000
  band No.  band energies     occupation 
      1     -14.3352      2.00000
      2     -14.2930      2.00000
      3      -8.3859      2.00000
      4      -8.3672      2.00000
      5      -6.4997      2.00000
      6      -6.2648      2.00000
      7      -5.1961      2.00000
      8      -4.9984      2.00000
      9      -3.7964      2.00000
     10      -3.6757      2.00000
     11       1.0872      0.00000
     12       1.2586      0.00000
     13       2.5024      0.00000
     14       2.7278      0.00000

 k-point   106 :       0.4667    0.4667    0.0000
  band No.  band energies     occupation 
      1     -14.3010      2.00000
      2     -14.2866      2.00000
      3      -8.2582      2.00000
      4      -8.2559      2.00000
      5      -6.6053      2.00000
      6      -6.5158      2.00000
      7      -5.3041      2.00000
      8      -5.2304      2.00000
      9      -3.7577      2.00000
     10      -3.7170      2.00000
     11       1.2420      0.00000
     12       1.3003      0.00000
     13       2.7099      0.00000
     14       2.8035      0.00000

 k-point   107 :      -0.4667    0.4667    0.0000
  band No.  band energies     occupation 
      1     -14.3010      2.00000
      2     -14.2866      2.00000
      3      -8.2582      2.00000
      4      -8.2559      2.00000
      5      -6.6053      2.00000
      6      -6.5158      2.00000
      7      -5.3041      2.00000
      8      -5.2304      2.00000
      9      -3.7577      2.00000
     10      -3.7170      2.00000
     11       1.2420      0.00000
     12       1.3003      0.00000
     13       2.7099      0.00000
     14       2.8035      0.00000

 k-point   108 :      -0.4000    0.4667    0.0000
  band No.  band energies     occupation 
      1     -14.3352      2.00000
      2     -14.2930      2.00000
      3      -8.3859      2.00000
      4      -8.3672      2.00000
      5      -6.4997      2.00000
      6      -6.2648      2.00000
      7      -5.1961      2.00000
      8      -4.9984      2.00000
      9      -3.7964      2.00000
     10      -3.6757      2.00000
     11       1.0872      0.00000
     12       1.2586      0.00000
     13       2.5024      0.00000
     14       2.7278      0.00000

 k-point   109 :      -0.3333    0.4667    0.0000
  band No.  band energies     occupation 
      1     -14.3841      2.00000
      2     -14.3169      2.00000
      3      -8.5814      2.00000
      4      -8.5341      2.00000
      5      -6.2300      2.00000
      6      -5.9131      2.00000
      7      -4.9345      2.00000
      8      -4.6700      2.00000
      9      -3.8047      2.00000
     10      -3.6058      2.00000
     11       0.8495      0.00000
     12       1.1246      0.00000
     13       1.9993      0.00000
     14       2.2650      0.00000

 k-point   110 :      -0.2667    0.4667    0.0000
  band No.  band energies     occupation 
      1     -14.4399      2.00000
      2     -14.3519      2.00000
      3      -8.7847      2.00000
      4      -8.7089      2.00000
      5      -5.8388      2.00000
      6      -5.4933      2.00000
      7      -4.6274      2.00000
      8      -4.3603      2.00000
      9      -3.7003      2.00000
     10      -3.4259      2.00000
     11       0.5012      0.00000
     12       0.8615      0.00000
     13       1.4298      0.00000
     14       1.6723      0.00000

 k-point   111 :      -0.2000    0.4667    0.0000
  band No.  band energies     occupation 
      1     -14.4943      2.00000
      2     -14.3899      2.00000
      3      -8.9616      2.00000
      4      -8.8636      2.00000
      5      -5.3605      2.00000
      6      -5.0324      2.00000
      7      -4.4263      2.00000
      8      -4.1874      2.00000
      9      -3.3597      2.00000
     10      -3.0576      2.00000
     11      -0.0184      0.00000
     12       0.3432      0.00000
     13       1.0204      0.00000
     14       1.2453      0.00000

 k-point   112 :      -0.1333    0.4667    0.0000
  band No.  band energies     occupation 
      1     -14.5392      2.00000
      2     -14.4233      2.00000
      3      -9.0955      2.00000
      4      -8.9824      2.00000
      5      -4.8423      2.00000
      6      -4.6518      2.00000
      7      -4.2388      2.00000
      8      -4.1116      2.00000
      9      -2.8396      2.00000
     10      -2.6276      2.00000
     11      -0.5535      0.00000
     12      -0.3164      0.00000
     13       0.7951      0.00000
     14       0.8954      0.00000

 k-point   113 :      -0.0667    0.4667    0.0000
  band No.  band energies     occupation 
      1     -14.5686      2.00000
      2     -14.4459      2.00000
      3      -9.1783      2.00000
      4      -9.0565      2.00000
      5      -4.5392      2.00000
      6      -4.4211      2.00000
      7      -4.0012      2.00000
      8      -3.8679      2.00000
      9      -2.4631      2.00000
     10      -2.3629      2.00000
     11      -0.8095      0.00000
     12      -0.6997      0.00000
     13       0.2899      0.00000
     14       0.5944      0.00000


--------------------------------------------------------------------------------------------------------


 soft charge-density along one line, spin component           1
         0         1         2         3         4         5         6         7         8         9
 total charge-density along one line
 
 pseudopotential strength for first ion, spin component:           1
 30.076 -23.430  -0.000  -0.089   0.034  -0.000  -0.141   0.054
-23.430  28.114   0.000   0.050  -0.019   0.000   0.082  -0.031
 -0.000   0.000   6.330  -0.000   0.000   9.793  -0.000   0.000
 -0.089   0.050  -0.000   6.328   0.002  -0.000   9.789   0.003
  0.034  -0.019   0.000   0.002   6.330   0.000   0.003   9.792
 -0.000   0.000   9.793  -0.000   0.000  15.221  -0.000   0.000
 -0.141   0.082  -0.000   9.789   0.003  -0.000  15.215   0.004
  0.054  -0.031   0.000   0.003   9.792   0.000   0.004  15.220
  0.000  -0.000   0.007  -0.000  -0.000   0.011  -0.000  -0.000
 -0.000   0.000  -0.020  -0.000  -0.000  -0.031  -0.000  -0.000
 -0.002   0.003   0.000  -0.023  -0.004   0.000  -0.035  -0.006
  0.003  -0.002  -0.000   0.008  -0.020  -0.000   0.013  -0.031
 -0.001   0.000   0.000  -0.000   0.008   0.000  -0.000   0.013
 total augmentation occupancy for first ion, spin component:           1
  2.025  -0.015   0.000   0.238  -0.085  -0.000  -0.042   0.015  -0.000   0.000   0.023   0.002  -0.001
 -0.015   0.009  -0.000  -0.073   0.027   0.000   0.018  -0.006  -0.000  -0.000  -0.002   0.001  -0.000
  0.000  -0.000   1.517  -0.000  -0.000  -0.409   0.000   0.000   0.121  -0.043   0.000   0.000  -0.000
  0.238  -0.073  -0.000   1.837  -0.002   0.000  -0.485  -0.013   0.000   0.000  -0.266  -0.017  -0.001
 -0.085   0.027  -0.000  -0.002   1.507   0.000  -0.014  -0.401  -0.000  -0.000  -0.078  -0.045  -0.005
 -0.000   0.000  -0.409   0.000   0.000   0.119  -0.000  -0.000  -0.032   0.012  -0.000  -0.000   0.000
 -0.042   0.018   0.000  -0.485  -0.014  -0.000   0.140   0.007  -0.000  -0.000   0.074   0.005   0.000
  0.015  -0.006   0.000  -0.013  -0.401  -0.000   0.007   0.116   0.000   0.000   0.021   0.012   0.002
 -0.000  -0.000   0.121   0.000  -0.000  -0.032  -0.000   0.000   0.078   0.000   0.000   0.000  -0.000
  0.000  -0.000  -0.043   0.000  -0.000   0.012  -0.000   0.000   0.000   0.021  -0.000  -0.000   0.000
  0.023  -0.002   0.000  -0.266  -0.078  -0.000   0.074   0.021   0.000  -0.000   0.078   0.006   0.001
  0.002   0.001   0.000  -0.017  -0.045  -0.000   0.005   0.012   0.000  -0.000   0.006   0.022   0.001
 -0.001  -0.000  -0.000  -0.001  -0.005   0.000   0.000   0.002  -0.000   0.000   0.001   0.001   0.017


------------------------ aborting loop because EDIFF is reached ----------------------------------------


    CHARGE:  cpu time    0.2403: real time    0.2410
    FORLOC:  cpu time    0.0025: real time    0.0025
    FORNL :  cpu time    0.4160: real time    0.4169
    STRESS:  cpu time    0.7520: real time    0.7542
    FORCOR:  cpu time    0.0402: real time    0.0403
    FORHAR:  cpu time    0.0102: real time    0.0103
    MIXING:  cpu time    0.0009: real time    0.0009
    OFIELD:  cpu time    0.0000: real time    0.0000

  FORCE on cell =-STRESS in cart. coord.  units (eV):
  Direction    XX          YY          ZZ          XY          YZ          ZX
  --------------------------------------------------------------------------------------
  Alpha Z     9.55198     9.55198     9.55198
  Ewald    1615.45327  1618.83724 -2074.10231    -0.00000     0.00000     0.00002
  Hartree  1735.28874  1736.87708 -1688.95636    -0.00000     0.00000     0.00000
  E(xc)     -77.70140   -77.72119   -78.91606     0.00000     0.00000    -0.00000
  Local   -3603.51824 -3608.01762  3508.12510     0.00000    -0.00000    -0.00002
  n-local   162.67666   162.82177   167.20898    -0.00000    -0.00000     0.00000
  augment   -31.87699   -31.83463   -32.79243     0.00000    -0.00000     0.00000
  Kinetic   190.22813   189.73779   189.88053     0.00000     0.00000    -0.00000
  Fock        0.00000     0.00000     0.00000     0.00000     0.00000     0.00000
  -------------------------------------------------------------------------------------
  Total       0.10215     0.25241    -0.00057    -0.00000     0.00000     0.00000
  in kB       0.43721     1.08031    -0.00245    -0.00000     0.00000     0.00000
  external pressure =        0.51 kB  Pullay stress =        0.00 kB


 VOLUME and BASIS-vectors are now :
 -----------------------------------------------------------------------------
  energy-cutoff  :      600.00
  volume of cell :      374.34
      direct lattice vectors                 reciprocal lattice vectors
     4.382356765  0.000000000  0.000000000     0.228187720  0.000000000  0.000000000
     0.000000000  4.271015468  0.000000000     0.000000000  0.234136356  0.000000000
     0.000000000  0.000000000 20.000000000     0.000000000  0.000000000  0.050000000

  length of vectors
     4.382356765  4.271015468 20.000000000     0.228187720  0.234136356  0.050000000


 FORCES acting on ions
    electron-ion (+dipol)            ewald-force                    non-local-force                 convergence-correction
 -----------------------------------------------------------------------------------------------
   0.418E+01 -.240E-06 -.145E+03   -.563E+01 0.294E-06 0.149E+03   0.146E+01 -.553E-07 -.381E+01   0.139E-04 0.684E-08 -.328E-03
   0.418E+01 -.428E-06 0.145E+03   -.563E+01 0.541E-06 -.149E+03   0.146E+01 -.964E-07 0.381E+01   0.132E-04 -.419E-08 0.311E-03
   -.520E+01 0.267E-06 -.207E+03   0.563E+01 -.278E-06 0.209E+03   -.437E+00 0.141E-07 -.203E+01   0.147E-03 -.124E-07 -.440E-03
   -.520E+01 0.493E-06 0.207E+03   0.563E+01 -.558E-06 -.209E+03   -.437E+00 0.371E-07 0.203E+01   0.147E-03 0.214E-07 0.408E-03
 -----------------------------------------------------------------------------------------------
   -.204E+01 0.919E-07 0.507E-04   0.178E-14 0.978E-15 0.284E-13   0.204E+01 -.100E-06 -.905E-05   0.322E-03 0.116E-07 -.484E-04
 
 
 POSITION                                       TOTAL-FORCE (eV/Angst)
 -----------------------------------------------------------------------------------
      2.54329      3.20326     11.37695        -0.000085      0.000000     -0.000327
      0.35211      1.06775      8.62305        -0.000086      0.000000      0.000337
      0.14793      1.06775     11.34128         0.000086     -0.000000      0.000616
      2.33911      3.20326      8.65872         0.000085     -0.000000     -0.000626
 -----------------------------------------------------------------------------------
    total drift:                               -0.000100      0.000000     -0.000007


--------------------------------------------------------------------------------------------------------



  FREE ENERGIE OF THE ION-ELECTRON SYSTEM (eV)
  ---------------------------------------------------
  free  energy   TOTEN  =       -16.26376268 eV

  energy  without entropy=      -16.26376268  energy(sigma->0) =      -16.26376268
 
 d Force = 0.2282926E-06[ 0.118E-06, 0.339E-06]  d Energy = 0.3118205E-06-0.835E-07
 d Force =-0.3734735E-01[-0.373E-01,-0.373E-01]  d Ewald  =-0.3734735E-01-0.136E-10


--------------------------------------------------------------------------------------------------------


    POTLOK:  cpu time    0.0396: real time    0.0411


--------------------------------------------------------------------------------------------------------


 Conjugate gradient step on ions:
 trial-energy change:   -0.000000  1 .order   -0.000000   -0.000000   -0.000000
  (g-gl).g =-0.240E-06      g.g   = 0.123E-06  gl.gl    = 0.882E-05
 g(Force)  = 0.123E-06   g(Stress)= 0.000E+00 ortho     =-0.114E-07
 gamma     =  -0.02720
 trial     =   2.74880
 opt step  =   4.21354  (harmonic =   4.21354) maximal distance =0.00023062
 next E    =   -16.263763   (d E  =  -0.00000)


--------------------------------------------------------------------------------------------------------


  
 reached required accuracy - stopping structural energy minimisation
 writing wavefunctions
     LOOP+:  cpu time    7.9574: real time    9.0784
    4ORBIT:  cpu time    0.0000: real time    0.0000

 total amount of memory used by VASP MPI-rank0    62927. kBytes
=======================================================================

   base      :      30000. kBytes
   nonl-proj :      12326. kBytes
   fftplans  :       2677. kBytes
   grid      :       4349. kBytes
   one-center:          8. kBytes
   wavefun   :      13567. kBytes
 
  
  
 General timing and accounting informations for this job:
 ========================================================
  
                  Total CPU time used (sec):      200.653
                            User time (sec):      199.665
                          System time (sec):        0.988
                         Elapsed time (sec):      212.613
  
                   Maximum memory used (kb):      210348.
                   Average memory used (kb):           0.
  
                          Minor page faults:       148628
                          Major page faults:          117
                 Voluntary context switches:        10767
