 vasp.5.4.4.18Apr17-6-g9f103f2a35 (build Sep 16 2021 13:51:27) complex          
  
 executed on             LinuxIFC date 2023.02.26  09:55:27
 running on   24 total cores
 distrk:  each k-point on   24 cores,    1 groups
 distr:  one band on NCORES_PER_BAND=  24 cores,    1 groups


--------------------------------------------------------------------------------------------------------


 INCAR:
 POTCAR:    PAW_PBE Sn 08Apr2002                  
 POTCAR:    PAW_PBE Se 06Sep2000                  

 ----------------------------------------------------------------------------- 
|                                                                             |
|           W    W    AA    RRRRR   N    N  II  N    N   GGGG   !!!           |
|           W    W   A  A   R    R  NN   N  II  NN   N  G    G  !!!           |
|           W    W  A    A  R    R  N N  N  II  N N  N  G       !!!           |
|           W WW W  AAAAAA  RRRRR   N  N N  II  N  N N  G  GGG   !            |
|           WW  WW  A    A  R   R   N   NN  II  N   NN  G    G                |
|           W    W  A    A  R    R  N    N  II  N    N   GGGG   !!!           |
|                                                                             |
|      For optimal performance we recommend to set                            |
|        NCORE= 4 - approx SQRT( number of cores)                             |
|      NCORE specifies how many cores store one orbital (NPAR=cpu/NCORE).     |
|      This setting can  greatly improve the performance of VASP for DFT.     |
|      The default,   NCORE=1            might be grossly inefficient         |
|      on modern multi-core architectures or massively parallel machines.     |
|      Do your own testing !!!!                                               |
|      Unfortunately you need to use the default for GW and RPA calculations. |
|      (for HF NCORE is supported but not extensively tested yet)             |
|                                                                             |
 ----------------------------------------------------------------------------- 

 POTCAR:    PAW_PBE Sn 08Apr2002                  
   VRHFIN =Sn: s2p2                                                             
   LEXCH  = PE                                                                  
   EATOM  =    94.0860 eV,    6.9151 Ry                                         
                                                                                
   TITEL  = PAW_PBE Sn 08Apr2002                                                
   LULTRA =        F    use ultrasoft PP ?                                      
   IUNSCR =        1    unscreen: 0-lin 1-nonlin 2-no                           
   RPACOR =    2.000    partial core radius                                     
   POMASS =  118.710; ZVAL   =    4.000    mass and valenz                      
   RCORE  =    3.000    outmost cutoff radius                                   
   RWIGS  =    2.960; RWIGS  =    1.566    wigner-seitz radius (au A)           
   ENMAX  =  103.236; ENMIN  =   77.427 eV                                      
   ICORE  =        3    local potential                                         
   LCOR   =        T    correct aug charges                                     
   LPAW   =        T    paw PP                                                  
   EAUG   =  263.585                                                            
   DEXC   =    0.000                                                            
   RMAX   =    3.078    core radius for proj-oper                               
   RAUG   =    1.300    factor for augmentation sphere                          
   RDEP   =    3.022    radius for radial grids                                 
   RDEPT  =    2.655    core radius for aug-charge                              
                                                                                
   Atomic configuration                                                         
   13 entries                                                                   
     n  l   j            E        occ.                                          
     1  0  0.50    -29007.2859   2.0000                                         
     2  0  0.50     -4378.8056   2.0000                                         
     2  1  1.50     -3930.4293   6.0000                                         
     3  0  0.50      -845.0264   2.0000                                         
     3  1  1.50      -698.5725   6.0000                                         
     3  2  2.50      -473.2839  10.0000                                         
     4  0  0.50      -133.9036   2.0000                                         
     4  1  1.50       -89.6752   6.0000                                         
     4  2  2.50       -25.8375  10.0000                                         
     5  0  0.50       -10.5484   2.0000                                         
     5  1  0.50        -3.6940   2.0000                                         
     5  2  1.50        -1.3606   0.0000                                         
     4  3  2.50        -4.0817   0.0000                                         
   Description                                                                  
     l       E           TYP  RCUT    TYP  RCUT                                 
     0    -10.5483727     23  3.000                                             
     0     27.2116520     23  3.000                                             
     1     -3.6939829     23  3.000                                             
     1      1.9821976     23  3.000                                             
     2     -1.3605826     23  3.000                                             
     3     -2.7211652     23  3.000                                             
  local pseudopotential read in
  partial core-charges read in
  partial kinetic energy density read in
  atomic valenz-charges read in
  non local Contribution for L=           0  read in
    real space projection operators read in
  non local Contribution for L=           0  read in
    real space projection operators read in
  non local Contribution for L=           1  read in
    real space projection operators read in
  non local Contribution for L=           1  read in
    real space projection operators read in
  non local Contribution for L=           2  read in
    real space projection operators read in
    PAW grid and wavefunctions read in
 
   number of l-projection  operators is LMAX  =           5
   number of lm-projection operators is LMMAX =          13
 
 POTCAR:    PAW_PBE Se 06Sep2000                  
   VRHFIN =Se: s2p4                                                             
   LEXCH  = PE                                                                  
   EATOM  =   257.1286 eV,   18.8984 Ry                                         
                                                                                
   TITEL  = PAW_PBE Se 06Sep2000                                                
   LULTRA =        F    use ultrasoft PP ?                                      
   IUNSCR =        1    unscreen: 0-lin 1-nonlin 2-no                           
   RPACOR =    1.900    partial core radius                                     
   POMASS =   78.960; ZVAL   =    6.000    mass and valenz                      
   RCORE  =    2.100    outmost cutoff radius                                   
   RWIGS  =    2.200; RWIGS  =    1.164    wigner-seitz radius (au A)           
   ENMAX  =  211.555; ENMIN  =  158.666 eV                                      
   ICORE  =        3    local potential                                         
   LCOR   =        T    correct aug charges                                     
   LPAW   =        T    paw PP                                                  
   EAUG   =  446.842                                                            
   DEXC   =    0.000                                                            
   RMAX   =    2.147    core radius for proj-oper                               
   RAUG   =    1.300    factor for augmentation sphere                          
   RDEP   =    2.177    radius for radial grids                                 
   RDEPT  =    1.928    core radius for aug-charge                              
                                                                                
   Atomic configuration                                                         
   10 entries                                                                   
     n  l   j            E        occ.                                          
     1  0  0.50    -12503.4787   2.0000                                         
     2  0  0.50     -1606.9547   2.0000                                         
     2  1  1.50     -1413.3140   6.0000                                         
     3  0  0.50      -213.4885   2.0000                                         
     3  1  1.50      -152.9538   6.0000                                         
     3  2  2.50       -53.1221  10.0000                                         
     4  0  0.50       -17.2865   2.0000                                         
     4  1  0.50        -6.5110   4.0000                                         
     4  2  2.50        -6.8029   0.0000                                         
     4  3  2.50        -6.8029   0.0000                                         
   Description                                                                  
     l       E           TYP  RCUT    TYP  RCUT                                 
     0    -17.2865377     23  2.100                                             
     0    -15.3094411     23  2.100                                             
     1     -6.5110275     23  2.100                                             
     1     -0.0695192     23  2.100                                             
     2     -6.8029130     23  2.100                                             
     3     -1.3605826      7  2.100                                             
  local pseudopotential read in
  partial core-charges read in
  partial kinetic energy density read in
  atomic valenz-charges read in
  non local Contribution for L=           0  read in
    real space projection operators read in
  non local Contribution for L=           0  read in
    real space projection operators read in
  non local Contribution for L=           1  read in
    real space projection operators read in
  non local Contribution for L=           1  read in
    real space projection operators read in
  non local Contribution for L=           2  read in
    real space projection operators read in
    PAW grid and wavefunctions read in
 
   number of l-projection  operators is LMAX  =           5
   number of lm-projection operators is LMMAX =          13
 
 WARNING: PSMAXN for non-local potential too small
          PSMAXN should be >   12.5490833729506       NTYP=           1
  PAW_PBE Sn 08Apr2002                  :
 energy of atom  1       EATOM=  -94.0860
 kinetic energy error for atom=    0.0000 (will be added to EATOM!!)
  PAW_PBE Se 06Sep2000                  :
 energy of atom  2       EATOM= -257.1286
 kinetic energy error for atom=    0.0006 (will be added to EATOM!!)
 
 
 POSCAR:  SnSe-Monolayer                         
  positions in direct lattice
  velocities in cartesian coordinates
 exchange correlation table for  LEXCH =        8
   RHO(1)=    0.500       N(1)  =     2000
   RHO(2)=  100.500       N(2)  =     4000
 


--------------------------------------------------------------------------------------------------------


 ion  position               nearest neighbor table
   1  0.581  0.750  0.569-   4 2.72   3 2.91   3 2.91   3 3.20   3 3.20
   2  0.081  0.250  0.431-   3 2.72   4 2.91   4 2.91   4 3.20   4 3.20
   3  0.033  0.250  0.567-   2 2.72   1 2.91   1 2.91   1 3.20   1 3.20
   4  0.533  0.750  0.433-   1 2.72   2 2.91   2 2.91   2 3.20   2 3.20
 
  LATTYP: Found a simple orthorhombic cell.
 ALAT       =     4.2924778572
 B/A-ratio  =     1.0107293134
 C/A-ratio  =     4.6593134934
  
  Lattice vectors:
  
 A1 = (   0.0000000000,  -4.2924778572,   0.0000000000)
 A2 = (  -4.3385331973,   0.0000000000,   0.0000000000)
 A3 = (   0.0000000000,   0.0000000000, -20.0000000000)


Analysis of symmetry for initial positions (statically):
=====================================================================
 Subroutine PRICEL returns:
 Original cell was already a primitive cell.
 

 Routine SETGRP: Setting up the symmetry group for a 
 simple orthorhombic supercell.


 Subroutine GETGRP returns: Found  4 space group operations
 (whereof  1 operations were pure point group operations)
 out of a pool of  8 trial point group operations.


The static configuration has the point symmetry C_1 .
 The point group associated with its full space group is C_2v.


Analysis of symmetry for dynamics (positions and initial velocities):
=====================================================================
 Subroutine PRICEL returns:
 Original cell was already a primitive cell.
 

 Routine SETGRP: Setting up the symmetry group for a 
 simple orthorhombic supercell.


 Subroutine GETGRP returns: Found  4 space group operations
 (whereof  1 operations were pure point group operations)
 out of a pool of  8 trial point group operations.


The dynamic configuration has the point symmetry C_1 .
 The point group associated with its full space group is C_2v.


 Subroutine INISYM returns: Found  4 space group operations
 (whereof  1 operations are pure point group operations),
 and found     1 'primitive' translations

 
 
 KPOINTS: Automatic                               

Automatic generation of k-mesh.
Space group operators:
 irot       det(A)        alpha          n_x          n_y          n_z        tau_x        tau_y        tau_z
    1     1.000000     0.000000     1.000000     0.000000     0.000000     0.000000     0.000000     0.000000
    2    -1.000000   180.000000     0.000000     0.000000     1.000000    -0.500000    -0.500000     0.000000
    3     1.000000   180.000000     1.000000     0.000000     0.000000    -0.500000     0.000000     0.000000
    4    -1.000000   180.000000     0.000000     1.000000     0.000000     0.000000    -0.500000     0.000000
 
 Subroutine IBZKPT returns following result:
 ===========================================
 
 Found     64 irreducible k-points:
 
 Following reciprocal coordinates:
            Coordinates               Weight
  0.000000  0.000000  0.000000      1.000000
  0.066667  0.000000  0.000000      2.000000
  0.133333  0.000000  0.000000      2.000000
  0.200000  0.000000  0.000000      2.000000
  0.266667  0.000000  0.000000      2.000000
  0.333333  0.000000  0.000000      2.000000
  0.400000  0.000000  0.000000      2.000000
  0.466667  0.000000  0.000000      2.000000
  0.000000  0.066667  0.000000      2.000000
  0.066667  0.066667  0.000000      4.000000
  0.133333  0.066667  0.000000      4.000000
  0.200000  0.066667  0.000000      4.000000
  0.266667  0.066667  0.000000      4.000000
  0.333333  0.066667  0.000000      4.000000
  0.400000  0.066667  0.000000      4.000000
  0.466667  0.066667  0.000000      4.000000
  0.000000  0.133333  0.000000      2.000000
  0.066667  0.133333  0.000000      4.000000
  0.133333  0.133333  0.000000      4.000000
  0.200000  0.133333  0.000000      4.000000
  0.266667  0.133333  0.000000      4.000000
  0.333333  0.133333  0.000000      4.000000
  0.400000  0.133333  0.000000      4.000000
  0.466667  0.133333  0.000000      4.000000
  0.000000  0.200000  0.000000      2.000000
  0.066667  0.200000  0.000000      4.000000
  0.133333  0.200000  0.000000      4.000000
  0.200000  0.200000  0.000000      4.000000
  0.266667  0.200000  0.000000      4.000000
  0.333333  0.200000  0.000000      4.000000
  0.400000  0.200000  0.000000      4.000000
  0.466667  0.200000  0.000000      4.000000
  0.000000  0.266667  0.000000      2.000000
  0.066667  0.266667  0.000000      4.000000
  0.133333  0.266667  0.000000      4.000000
  0.200000  0.266667  0.000000      4.000000
  0.266667  0.266667  0.000000      4.000000
  0.333333  0.266667  0.000000      4.000000
  0.400000  0.266667  0.000000      4.000000
  0.466667  0.266667  0.000000      4.000000
  0.000000  0.333333  0.000000      2.000000
  0.066667  0.333333  0.000000      4.000000
  0.133333  0.333333  0.000000      4.000000
  0.200000  0.333333  0.000000      4.000000
  0.266667  0.333333  0.000000      4.000000
  0.333333  0.333333  0.000000      4.000000
  0.400000  0.333333  0.000000      4.000000
  0.466667  0.333333  0.000000      4.000000
  0.000000  0.400000  0.000000      2.000000
  0.066667  0.400000  0.000000      4.000000
  0.133333  0.400000  0.000000      4.000000
  0.200000  0.400000  0.000000      4.000000
  0.266667  0.400000  0.000000      4.000000
  0.333333  0.400000  0.000000      4.000000
  0.400000  0.400000  0.000000      4.000000
  0.466667  0.400000  0.000000      4.000000
  0.000000  0.466667  0.000000      2.000000
  0.066667  0.466667  0.000000      4.000000
  0.133333  0.466667  0.000000      4.000000
  0.200000  0.466667  0.000000      4.000000
  0.266667  0.466667  0.000000      4.000000
  0.333333  0.466667  0.000000      4.000000
  0.400000  0.466667  0.000000      4.000000
  0.466667  0.466667  0.000000      4.000000
 
 Following cartesian coordinates:
            Coordinates               Weight
  0.000000  0.000000  0.000000      1.000000
  0.015366  0.000000  0.000000      2.000000
  0.030732  0.000000  0.000000      2.000000
  0.046099  0.000000  0.000000      2.000000
  0.061465  0.000000  0.000000      2.000000
  0.076831  0.000000  0.000000      2.000000
  0.092197  0.000000  0.000000      2.000000
  0.107563  0.000000  0.000000      2.000000
  0.000000  0.015531  0.000000      2.000000
  0.015366  0.015531  0.000000      4.000000
  0.030732  0.015531  0.000000      4.000000
  0.046099  0.015531  0.000000      4.000000
  0.061465  0.015531  0.000000      4.000000
  0.076831  0.015531  0.000000      4.000000
  0.092197  0.015531  0.000000      4.000000
  0.107563  0.015531  0.000000      4.000000
  0.000000  0.031062  0.000000      2.000000
  0.015366  0.031062  0.000000      4.000000
  0.030732  0.031062  0.000000      4.000000
  0.046099  0.031062  0.000000      4.000000
  0.061465  0.031062  0.000000      4.000000
  0.076831  0.031062  0.000000      4.000000
  0.092197  0.031062  0.000000      4.000000
  0.107563  0.031062  0.000000      4.000000
  0.000000  0.046593  0.000000      2.000000
  0.015366  0.046593  0.000000      4.000000
  0.030732  0.046593  0.000000      4.000000
  0.046099  0.046593  0.000000      4.000000
  0.061465  0.046593  0.000000      4.000000
  0.076831  0.046593  0.000000      4.000000
  0.092197  0.046593  0.000000      4.000000
  0.107563  0.046593  0.000000      4.000000
  0.000000  0.062124  0.000000      2.000000
  0.015366  0.062124  0.000000      4.000000
  0.030732  0.062124  0.000000      4.000000
  0.046099  0.062124  0.000000      4.000000
  0.061465  0.062124  0.000000      4.000000
  0.076831  0.062124  0.000000      4.000000
  0.092197  0.062124  0.000000      4.000000
  0.107563  0.062124  0.000000      4.000000
  0.000000  0.077655  0.000000      2.000000
  0.015366  0.077655  0.000000      4.000000
  0.030732  0.077655  0.000000      4.000000
  0.046099  0.077655  0.000000      4.000000
  0.061465  0.077655  0.000000      4.000000
  0.076831  0.077655  0.000000      4.000000
  0.092197  0.077655  0.000000      4.000000
  0.107563  0.077655  0.000000      4.000000
  0.000000  0.093186  0.000000      2.000000
  0.015366  0.093186  0.000000      4.000000
  0.030732  0.093186  0.000000      4.000000
  0.046099  0.093186  0.000000      4.000000
  0.061465  0.093186  0.000000      4.000000
  0.076831  0.093186  0.000000      4.000000
  0.092197  0.093186  0.000000      4.000000
  0.107563  0.093186  0.000000      4.000000
  0.000000  0.108717  0.000000      2.000000
  0.015366  0.108717  0.000000      4.000000
  0.030732  0.108717  0.000000      4.000000
  0.046099  0.108717  0.000000      4.000000
  0.061465  0.108717  0.000000      4.000000
  0.076831  0.108717  0.000000      4.000000
  0.092197  0.108717  0.000000      4.000000
  0.107563  0.108717  0.000000      4.000000
 


--------------------------------------------------------------------------------------------------------




 Dimension of arrays:
   k-points           NKPTS =     64   k-points in BZ     NKDIM =     64   number of bands    NBANDS=     14
   number of dos      NEDOS =    301   number of ions     NIONS =      4
   non local maximal  LDIM  =      5   non local SUM 2l+1 LMDIM =     13
   total plane-waves  NPLWV = 207360
   max r-space proj   IRMAX =      1   max aug-charges    IRDMAX=  53783
   dimension x,y,z NGX =    36 NGY =   36 NGZ =  160
   dimension x,y,z NGXF=    72 NGYF=   72 NGZF=  320
   support grid    NGXF=    72 NGYF=   72 NGZF=  320
   ions per type =               2   2
   NGX,Y,Z   is equivalent  to a cutoff of  13.79, 13.94, 13.30 a.u.
   NGXF,Y,Z  is equivalent  to a cutoff of  27.59, 27.89, 26.60 a.u.

 SYSTEM =  SnSe                                    
 POSCAR =   SnSe-Monolayer                         

 Startparameter for this run:
   NWRITE =      2    write-flag & timer
   PREC   = accura    normal or accurate (medium, high low for compatibility)
   ISTART =      0    job   : 0-new  1-cont  2-samecut
   ICHARG =      2    charge: 1-file 2-atom 10-const
   ISPIN  =      1    spin polarized calculation?
   LNONCOLLINEAR =      F non collinear calculations
   LSORBIT =      F    spin-orbit coupling
   INIWAV =      1    electr: 0-lowe 1-rand  2-diag
   LASPH  =      F    aspherical Exc in radial PAW
   METAGGA=      F    non-selfconsistent MetaGGA calc.

 Electronic Relaxation 1
   ENCUT  =  600.0 eV  44.10 Ry    6.64 a.u.   8.67  8.57 39.94*2*pi/ulx,y,z
   ENINI  =  600.0     initial cutoff
   ENAUG  =  446.8 eV  augmentation charge cutoff
   NELM   =     60;   NELMIN=  2; NELMDL= -5     # of ELM steps 
   EDIFF  = 0.1E-05   stopping-criterion for ELM
   LREAL  =      F    real-space projection
   NLSPLINE    = F    spline interpolate recip. space projectors
   LCOMPAT=      F    compatible to vasp.4.4
   GGA_COMPAT  = T    GGA compatible to vasp.4.4-vasp.4.6
   LMAXPAW     = -100 max onsite density
   LMAXMIX     =    2 max onsite mixed and CHGCAR
   VOSKOWN=      0    Vosko Wilk Nusair interpolation
   ROPT   =    0.00000   0.00000
 Ionic relaxation
   EDIFFG = -.1E-02   stopping-criterion for IOM
   NSW    =    100    number of steps for IOM
   NBLOCK =      1;   KBLOCK =    100    inner block; outer block 
   IBRION =      2    ionic relax: 0-MD 1-quasi-New 2-CG
   NFREE  =      1    steps in history (QN), initial steepest desc. (CG)
   ISIF   =      2    stress and relaxation
   IWAVPR =     11    prediction:  0-non 1-charg 2-wave 3-comb
   ISYM   =      2    0-nonsym 1-usesym 2-fastsym
   LCORR  =      T    Harris-Foulkes like correction to forces

   POTIM  = 0.5000    time-step for ionic-motion
   TEIN   =    0.0    initial temperature
   TEBEG  =    0.0;   TEEND  =   0.0 temperature during run
   SMASS  =  -3.00    Nose mass-parameter (am)
   estimated Nose-frequenzy (Omega)   =  0.10E-29 period in steps =****** mass=  -0.430E-27a.u.
   SCALEE = 1.0000    scale energy and forces
   NPACO  =    256;   APACO  = 16.0  distance and # of slots for P.C.
   PSTRESS=    0.0 pullay stress

  Mass of Ions in am
   POMASS = 118.71 78.96
  Ionic Valenz
   ZVAL   =   4.00  6.00
  Atomic Wigner-Seitz radii
   RWIGS  =  -1.00 -1.00
  virtual crystal weights 
   VCA    =   1.00  1.00
   NELECT =      20.0000    total number of electrons
   NUPDOWN=      -1.0000    fix difference up-down

 DOS related values:
   EMIN   =  10.00;   EMAX   =-10.00  energy-range for DOS
   EFERMI =   0.00
   ISMEAR =     0;   SIGMA  =   0.10  broadening in eV -4-tet -1-fermi 0-gaus

 Electronic relaxation 2 (details)
   IALGO  =     38    algorithm
   LDIAG  =      T    sub-space diagonalisation (order eigenvalues)
   LSUBROT=      F    optimize rotation matrix (better conditioning)
   TURBO    =      0    0=normal 1=particle mesh
   IRESTART =      0    0=no restart 2=restart with 2 vectors
   NREBOOT  =      0    no. of reboots
   NMIN     =      0    reboot dimension
   EREF     =   0.00    reference energy to select bands
   IMIX   =      4    mixing-type and parameters
     AMIX     =   0.40;   BMIX     =  1.00
     AMIX_MAG =   1.60;   BMIX_MAG =  1.00
     AMIN     =   0.10
     WC   =   100.;   INIMIX=   1;  MIXPRE=   1;  MAXMIX= -45

 Intra band minimization:
   WEIMIN = 0.0010     energy-eigenvalue tresh-hold
   EBREAK =  0.18E-07  absolut break condition
   DEPER  =   0.30     relativ break condition  

   TIME   =   0.40     timestep for ELM

  volume/ion in A,a.u.               =      93.12       628.37
  Fermi-wavevector in a.u.,A,eV,Ry     =   0.617624  1.167141  5.190078  0.381460
  Thomas-Fermi vector in A             =   1.675777
 
 Write flags
   LWAVE        =      T    write WAVECAR
   LDOWNSAMPLE  =      F    k-point downsampling of WAVECAR
   LCHARG       =      T    write CHGCAR
   LVTOT        =      F    write LOCPOT, total local potential
   LVHAR        =      F    write LOCPOT, Hartree potential only
   LELF         =      F    write electronic localiz. function (ELF)
   LORBIT       =      0    0 simple, 1 ext, 2 COOP (PROOUT), +10 PAW based schemes


 Dipole corrections
   LMONO  =      F    monopole corrections only (constant potential shift)
   LDIPOL =      F    correct potential (dipole corrections)
   IDIPOL =      0    1-x, 2-y, 3-z, 4-all directions 
   EPSILON=  1.0000000 bulk dielectric constant

 Exchange correlation treatment:
   GGA     =    PE    GGA type
   LEXCH   =     8    internal setting for exchange type
   VOSKOWN=      0    Vosko Wilk Nusair interpolation
   LHFCALC =     F    Hartree Fock is set to
   LHFONE  =     F    Hartree Fock one center treatment
   AEXX    =    0.0000 exact exchange contribution

 Linear response parameters
   LEPSILON=     F    determine dielectric tensor
   LRPA    =     F    only Hartree local field effects (RPA)
   LNABLA  =     F    use nabla operator in PAW spheres
   LVEL    =     F    velocity operator in full k-point grid
   LINTERFAST=   F  fast interpolation
   KINTER  =     0    interpolate to denser k-point grid
   CSHIFT  =0.1000    complex shift for real part using Kramers Kronig
   OMEGAMAX=  -1.0    maximum frequency
   DEG_THRESHOLD= 0.2000000E-02 threshold for treating states as degnerate
   RTIME   =   -0.100 relaxation time in fs
  (WPLASMAI=    0.000 imaginary part of plasma frequency in eV, 0.658/RTIME)
   DFIELD  = 0.0000000 0.0000000 0.0000000 field for delta impulse in time
 
 Orbital magnetization related:
   ORBITALMAG=     F  switch on orbital magnetization
   LCHIMAG   =     F  perturbation theory with respect to B field
   DQ        =  0.001000  dq finite difference perturbation B field
   LLRAUG    =     F  two centre corrections for induced B field



--------------------------------------------------------------------------------------------------------


 conjugate gradient relaxation of ions
 charge density and potential will be updated during run
 non-spin polarized calculation
 Variant of blocked Davidson
 Davidson routine will perform the subspace rotation
 perform sub-space diagonalisation
    after iterative eigenvector-optimisation
 modified Broyden-mixing scheme, WC =      100.0
 initial mixing is a Kerker type mixing with AMIX =  0.4000 and BMIX =      1.0000
 Hartree-type preconditioning will be used
 using additional bands            4
 reciprocal scheme for non local part
 use partial core corrections
 calculate Harris-corrections to forces 
   (improved forces if not selfconsistent)
 use gradient corrections 
 use of overlap-Matrix (Vanderbilt PP)
 Gauss-broadening in eV      SIGMA  =   0.10


--------------------------------------------------------------------------------------------------------


  energy-cutoff  :      600.00
  volume of cell :      372.46
      direct lattice vectors                 reciprocal lattice vectors
     4.338533197  0.000000000  0.000000000     0.230492647  0.000000000  0.000000000
     0.000000000  4.292477857  0.000000000     0.000000000  0.232965675  0.000000000
     0.000000000  0.000000000 20.000000000     0.000000000  0.000000000  0.050000000

  length of vectors
     4.338533197  4.292477857 20.000000000     0.230492647  0.232965675  0.050000000


 
 k-points in units of 2pi/SCALE and weight: Automatic                               
   0.00000000  0.00000000  0.00000000       0.004
   0.01536618  0.00000000  0.00000000       0.009
   0.03073235  0.00000000  0.00000000       0.009
   0.04609853  0.00000000  0.00000000       0.009
   0.06146471  0.00000000  0.00000000       0.009
   0.07683088  0.00000000  0.00000000       0.009
   0.09219706  0.00000000  0.00000000       0.009
   0.10756324  0.00000000  0.00000000       0.009
   0.00000000  0.01553104  0.00000000       0.009
   0.01536618  0.01553104  0.00000000       0.018
   0.03073235  0.01553104  0.00000000       0.018
   0.04609853  0.01553104  0.00000000       0.018
   0.06146471  0.01553104  0.00000000       0.018
   0.07683088  0.01553104  0.00000000       0.018
   0.09219706  0.01553104  0.00000000       0.018
   0.10756324  0.01553104  0.00000000       0.018
   0.00000000  0.03106209  0.00000000       0.009
   0.01536618  0.03106209  0.00000000       0.018
   0.03073235  0.03106209  0.00000000       0.018
   0.04609853  0.03106209  0.00000000       0.018
   0.06146471  0.03106209  0.00000000       0.018
   0.07683088  0.03106209  0.00000000       0.018
   0.09219706  0.03106209  0.00000000       0.018
   0.10756324  0.03106209  0.00000000       0.018
   0.00000000  0.04659313  0.00000000       0.009
   0.01536618  0.04659313  0.00000000       0.018
   0.03073235  0.04659313  0.00000000       0.018
   0.04609853  0.04659313  0.00000000       0.018
   0.06146471  0.04659313  0.00000000       0.018
   0.07683088  0.04659313  0.00000000       0.018
   0.09219706  0.04659313  0.00000000       0.018
   0.10756324  0.04659313  0.00000000       0.018
   0.00000000  0.06212418  0.00000000       0.009
   0.01536618  0.06212418  0.00000000       0.018
   0.03073235  0.06212418  0.00000000       0.018
   0.04609853  0.06212418  0.00000000       0.018
   0.06146471  0.06212418  0.00000000       0.018
   0.07683088  0.06212418  0.00000000       0.018
   0.09219706  0.06212418  0.00000000       0.018
   0.10756324  0.06212418  0.00000000       0.018
   0.00000000  0.07765522  0.00000000       0.009
   0.01536618  0.07765522  0.00000000       0.018
   0.03073235  0.07765522  0.00000000       0.018
   0.04609853  0.07765522  0.00000000       0.018
   0.06146471  0.07765522  0.00000000       0.018
   0.07683088  0.07765522  0.00000000       0.018
   0.09219706  0.07765522  0.00000000       0.018
   0.10756324  0.07765522  0.00000000       0.018
   0.00000000  0.09318627  0.00000000       0.009
   0.01536618  0.09318627  0.00000000       0.018
   0.03073235  0.09318627  0.00000000       0.018
   0.04609853  0.09318627  0.00000000       0.018
   0.06146471  0.09318627  0.00000000       0.018
   0.07683088  0.09318627  0.00000000       0.018
   0.09219706  0.09318627  0.00000000       0.018
   0.10756324  0.09318627  0.00000000       0.018
   0.00000000  0.10871731  0.00000000       0.009
   0.01536618  0.10871731  0.00000000       0.018
   0.03073235  0.10871731  0.00000000       0.018
   0.04609853  0.10871731  0.00000000       0.018
   0.06146471  0.10871731  0.00000000       0.018
   0.07683088  0.10871731  0.00000000       0.018
   0.09219706  0.10871731  0.00000000       0.018
   0.10756324  0.10871731  0.00000000       0.018
 
 k-points in reciprocal lattice and weights: Automatic                               
   0.00000000  0.00000000  0.00000000       0.004
   0.06666667  0.00000000  0.00000000       0.009
   0.13333333  0.00000000  0.00000000       0.009
   0.20000000  0.00000000  0.00000000       0.009
   0.26666667  0.00000000  0.00000000       0.009
   0.33333333  0.00000000  0.00000000       0.009
   0.40000000  0.00000000  0.00000000       0.009
   0.46666667  0.00000000  0.00000000       0.009
   0.00000000  0.06666667  0.00000000       0.009
   0.06666667  0.06666667  0.00000000       0.018
   0.13333333  0.06666667  0.00000000       0.018
   0.20000000  0.06666667  0.00000000       0.018
   0.26666667  0.06666667  0.00000000       0.018
   0.33333333  0.06666667  0.00000000       0.018
   0.40000000  0.06666667  0.00000000       0.018
   0.46666667  0.06666667  0.00000000       0.018
   0.00000000  0.13333333  0.00000000       0.009
   0.06666667  0.13333333  0.00000000       0.018
   0.13333333  0.13333333  0.00000000       0.018
   0.20000000  0.13333333  0.00000000       0.018
   0.26666667  0.13333333  0.00000000       0.018
   0.33333333  0.13333333  0.00000000       0.018
   0.40000000  0.13333333  0.00000000       0.018
   0.46666667  0.13333333  0.00000000       0.018
   0.00000000  0.20000000  0.00000000       0.009
   0.06666667  0.20000000  0.00000000       0.018
   0.13333333  0.20000000  0.00000000       0.018
   0.20000000  0.20000000  0.00000000       0.018
   0.26666667  0.20000000  0.00000000       0.018
   0.33333333  0.20000000  0.00000000       0.018
   0.40000000  0.20000000  0.00000000       0.018
   0.46666667  0.20000000  0.00000000       0.018
   0.00000000  0.26666667  0.00000000       0.009
   0.06666667  0.26666667  0.00000000       0.018
   0.13333333  0.26666667  0.00000000       0.018
   0.20000000  0.26666667  0.00000000       0.018
   0.26666667  0.26666667  0.00000000       0.018
   0.33333333  0.26666667  0.00000000       0.018
   0.40000000  0.26666667  0.00000000       0.018
   0.46666667  0.26666667  0.00000000       0.018
   0.00000000  0.33333333  0.00000000       0.009
   0.06666667  0.33333333  0.00000000       0.018
   0.13333333  0.33333333  0.00000000       0.018
   0.20000000  0.33333333  0.00000000       0.018
   0.26666667  0.33333333  0.00000000       0.018
   0.33333333  0.33333333  0.00000000       0.018
   0.40000000  0.33333333  0.00000000       0.018
   0.46666667  0.33333333  0.00000000       0.018
   0.00000000  0.40000000  0.00000000       0.009
   0.06666667  0.40000000  0.00000000       0.018
   0.13333333  0.40000000  0.00000000       0.018
   0.20000000  0.40000000  0.00000000       0.018
   0.26666667  0.40000000  0.00000000       0.018
   0.33333333  0.40000000  0.00000000       0.018
   0.40000000  0.40000000  0.00000000       0.018
   0.46666667  0.40000000  0.00000000       0.018
   0.00000000  0.46666667  0.00000000       0.009
   0.06666667  0.46666667  0.00000000       0.018
   0.13333333  0.46666667  0.00000000       0.018
   0.20000000  0.46666667  0.00000000       0.018
   0.26666667  0.46666667  0.00000000       0.018
   0.33333333  0.46666667  0.00000000       0.018
   0.40000000  0.46666667  0.00000000       0.018
   0.46666667  0.46666667  0.00000000       0.018
 
 position of ions in fractional coordinates (direct lattice) 
   0.58124336  0.75000000  0.56874314
   0.08124336  0.25000000  0.43125686
   0.03286064  0.25000000  0.56707387
   0.53286061  0.75000000  0.43292613
 
 position of ions in cartesian coordinates  (Angst):
   2.52174361  3.21935839 11.37486283
   0.35247701  1.07311946  8.62513717
   0.14256699  1.07311946 11.34147733
   2.31183347  3.21935839  8.65852267
 


--------------------------------------------------------------------------------------------------------


 k-point  1 :   0.0000 0.0000 0.0000  plane waves:   12483
 k-point  2 :   0.0667 0.0000 0.0000  plane waves:   12489
 k-point  3 :   0.1333 0.0000 0.0000  plane waves:   12431
 k-point  4 :   0.2000 0.0000 0.0000  plane waves:   12431
 k-point  5 :   0.2667 0.0000 0.0000  plane waves:   12423
 k-point  6 :   0.3333 0.0000 0.0000  plane waves:   12449
 k-point  7 :   0.4000 0.0000 0.0000  plane waves:   12462
 k-point  8 :   0.4667 0.0000 0.0000  plane waves:   12468
 k-point  9 :   0.0000 0.0667 0.0000  plane waves:   12467
 k-point 10 :   0.0667 0.0667 0.0000  plane waves:   12459
 k-point 11 :   0.1333 0.0667 0.0000  plane waves:   12430
 k-point 12 :   0.2000 0.0667 0.0000  plane waves:   12443
 k-point 13 :   0.2667 0.0667 0.0000  plane waves:   12438
 k-point 14 :   0.3333 0.0667 0.0000  plane waves:   12432
 k-point 15 :   0.4000 0.0667 0.0000  plane waves:   12457
 k-point 16 :   0.4667 0.0667 0.0000  plane waves:   12456
 k-point 17 :   0.0000 0.1333 0.0000  plane waves:   12465
 k-point 18 :   0.0667 0.1333 0.0000  plane waves:   12438
 k-point 19 :   0.1333 0.1333 0.0000  plane waves:   12426
 k-point 20 :   0.2000 0.1333 0.0000  plane waves:   12428
 k-point 21 :   0.2667 0.1333 0.0000  plane waves:   12430
 k-point 22 :   0.3333 0.1333 0.0000  plane waves:   12427
 k-point 23 :   0.4000 0.1333 0.0000  plane waves:   12430
 k-point 24 :   0.4667 0.1333 0.0000  plane waves:   12440
 k-point 25 :   0.0000 0.2000 0.0000  plane waves:   12443
 k-point 26 :   0.0667 0.2000 0.0000  plane waves:   12449
 k-point 27 :   0.1333 0.2000 0.0000  plane waves:   12460
 k-point 28 :   0.2000 0.2000 0.0000  plane waves:   12432
 k-point 29 :   0.2667 0.2000 0.0000  plane waves:   12421
 k-point 30 :   0.3333 0.2000 0.0000  plane waves:   12431
 k-point 31 :   0.4000 0.2000 0.0000  plane waves:   12429
 k-point 32 :   0.4667 0.2000 0.0000  plane waves:   12430
 k-point 33 :   0.0000 0.2667 0.0000  plane waves:   12441
 k-point 34 :   0.0667 0.2667 0.0000  plane waves:   12450
 k-point 35 :   0.1333 0.2667 0.0000  plane waves:   12447
 k-point 36 :   0.2000 0.2667 0.0000  plane waves:   12425
 k-point 37 :   0.2667 0.2667 0.0000  plane waves:   12428
 k-point 38 :   0.3333 0.2667 0.0000  plane waves:   12427
 k-point 39 :   0.4000 0.2667 0.0000  plane waves:   12427
 k-point 40 :   0.4667 0.2667 0.0000  plane waves:   12416
 k-point 41 :   0.0000 0.3333 0.0000  plane waves:   12433
 k-point 42 :   0.0667 0.3333 0.0000  plane waves:   12421
 k-point 43 :   0.1333 0.3333 0.0000  plane waves:   12430
 k-point 44 :   0.2000 0.3333 0.0000  plane waves:   12430
 k-point 45 :   0.2667 0.3333 0.0000  plane waves:   12404
 k-point 46 :   0.3333 0.3333 0.0000  plane waves:   12401
 k-point 47 :   0.4000 0.3333 0.0000  plane waves:   12408
 k-point 48 :   0.4667 0.3333 0.0000  plane waves:   12422
 k-point 49 :   0.0000 0.4000 0.0000  plane waves:   12407
 k-point 50 :   0.0667 0.4000 0.0000  plane waves:   12413
 k-point 51 :   0.1333 0.4000 0.0000  plane waves:   12435
 k-point 52 :   0.2000 0.4000 0.0000  plane waves:   12426
 k-point 53 :   0.2667 0.4000 0.0000  plane waves:   12392
 k-point 54 :   0.3333 0.4000 0.0000  plane waves:   12412
 k-point 55 :   0.4000 0.4000 0.0000  plane waves:   12397
 k-point 56 :   0.4667 0.4000 0.0000  plane waves:   12406
 k-point 57 :   0.0000 0.4667 0.0000  plane waves:   12422
 k-point 58 :   0.0667 0.4667 0.0000  plane waves:   12428
 k-point 59 :   0.1333 0.4667 0.0000  plane waves:   12434
 k-point 60 :   0.2000 0.4667 0.0000  plane waves:   12414
 k-point 61 :   0.2667 0.4667 0.0000  plane waves:   12401
 k-point 62 :   0.3333 0.4667 0.0000  plane waves:   12385
 k-point 63 :   0.4000 0.4667 0.0000  plane waves:   12390
 k-point 64 :   0.4667 0.4667 0.0000  plane waves:   12387

 maximum and minimum number of plane-waves per node :       541      495

 maximum number of plane-waves:     12489
 maximum index in each direction: 
   IXMAX=    8   IYMAX=    8   IZMAX=   39
   IXMIN=   -9   IYMIN=   -9   IZMIN=  -39


 parallel 3D FFT for wavefunctions:
    minimum data exchange during FFTs selected (reduces bandwidth)
 parallel 3D FFT for charge:
    minimum data exchange during FFTs selected (reduces bandwidth)


 total amount of memory used by VASP MPI-rank0    51658. kBytes
=======================================================================

   base      :      30000. kBytes
   nonl-proj :       6968. kBytes
   fftplans  :       2678. kBytes
   grid      :       4349. kBytes
   one-center:          8. kBytes
   wavefun   :       7655. kBytes
 
     INWAV:  cpu time    0.0000: real time    0.0023
 Broyden mixing: mesh for mixing (old mesh)
   NGX = 17   NGY = 17   NGZ = 79
  (NGX  = 72   NGY  = 72   NGZ  =320)
  gives a total of  22831 points

 initial charge density was supplied:
 charge density of overlapping atoms calculated
 number of electron      20.0000000 magnetization 
 keeping initial charge density in first step


--------------------------------------------------------------------------------------------------------


 Maximum index for augmentation-charges         2246 (set IRDMAX)


--------------------------------------------------------------------------------------------------------


 First call to EWALD:  gamma=   0.246
 Maximum number of real-space cells 4x 4x 1
 Maximum number of reciprocal cells 2x 2x 7

    FEWALD:  cpu time    0.0013: real time    0.0021


--------------------------------------- Iteration      1(   1)  ---------------------------------------


    POTLOK:  cpu time    0.0748: real time    0.2717
    SETDIJ:  cpu time    0.0045: real time    0.0053
     EDDAV:  cpu time    1.3107: real time    1.3148
       DOS:  cpu time    0.0029: real time    0.0030
    --------------------------------------------
      LOOP:  cpu time    1.3928: real time    1.5948

 eigenvalue-minimisations  :  1792
 total energy-change (2. order) : 0.1448625E+03  (-0.6292684E+03)
 number of electron      20.0000000 magnetization 
 augmentation part       20.0000000 magnetization 

 Free energy of the ion-electron system (eV)
  ---------------------------------------------------
  alpha Z        PSCENC =         9.60021974
  Ewald energy   TEWEN  =      1168.95220058
  -Hartree energ DENC   =     -1771.04480632
  -exchange      EXHF   =         0.00000000
  -V(xc)+E(xc)   XCENC  =      -238.51852503
  PAW double counting   =       799.43158084     -524.17639913
  entropy T*S    EENTRO =        -0.01233679
  eigenvalues    EBANDS =        -1.79736206
  atomic energy  EATOM  =       702.42789710
  Solvation  Ediel_sol  =         0.00000000
  ---------------------------------------------------
  free energy    TOTEN  =       144.86246893 eV

  energy without entropy =      144.87480572  energy(sigma->0) =      144.86863733


--------------------------------------------------------------------------------------------------------




--------------------------------------- Iteration      1(   2)  ---------------------------------------


     EDDAV:  cpu time    1.9396: real time    1.9438
       DOS:  cpu time    0.0028: real time    0.0028
    --------------------------------------------
      LOOP:  cpu time    1.9424: real time    1.9466

 eigenvalue-minimisations  :  3018
 total energy-change (2. order) :-0.1402370E+03  (-0.1362140E+03)
 number of electron      20.0000000 magnetization 
 augmentation part       20.0000000 magnetization 

 Free energy of the ion-electron system (eV)
  ---------------------------------------------------
  alpha Z        PSCENC =         9.60021974
  Ewald energy   TEWEN  =      1168.95220058
  -Hartree energ DENC   =     -1771.04480632
  -exchange      EXHF   =         0.00000000
  -V(xc)+E(xc)   XCENC  =      -238.51852503
  PAW double counting   =       799.43158084     -524.17639913
  entropy T*S    EENTRO =        -0.00162916
  eigenvalues    EBANDS =      -142.04504293
  atomic energy  EATOM  =       702.42789710
  Solvation  Ediel_sol  =         0.00000000
  ---------------------------------------------------
  free energy    TOTEN  =         4.62549570 eV

  energy without entropy =        4.62712486  energy(sigma->0) =        4.62631028


--------------------------------------------------------------------------------------------------------




--------------------------------------- Iteration      1(   3)  ---------------------------------------


     EDDAV:  cpu time    1.4927: real time    1.5016
       DOS:  cpu time    0.0020: real time    0.0020
    --------------------------------------------
      LOOP:  cpu time    1.4947: real time    1.5035

 eigenvalue-minimisations  :  2230
 total energy-change (2. order) :-0.2060556E+02  (-0.2045883E+02)
 number of electron      20.0000000 magnetization 
 augmentation part       20.0000000 magnetization 

 Free energy of the ion-electron system (eV)
  ---------------------------------------------------
  alpha Z        PSCENC =         9.60021974
  Ewald energy   TEWEN  =      1168.95220058
  -Hartree energ DENC   =     -1771.04480632
  -exchange      EXHF   =         0.00000000
  -V(xc)+E(xc)   XCENC  =      -238.51852503
  PAW double counting   =       799.43158084     -524.17639913
  entropy T*S    EENTRO =        -0.00000000
  eigenvalues    EBANDS =      -162.65223507
  atomic energy  EATOM  =       702.42789710
  Solvation  Ediel_sol  =         0.00000000
  ---------------------------------------------------
  free energy    TOTEN  =       -15.98006729 eV

  energy without entropy =      -15.98006729  energy(sigma->0) =      -15.98006729


--------------------------------------------------------------------------------------------------------




--------------------------------------- Iteration      1(   4)  ---------------------------------------


     EDDAV:  cpu time    1.7284: real time    1.7318
       DOS:  cpu time    0.0019: real time    0.0019
    --------------------------------------------
      LOOP:  cpu time    1.7303: real time    1.7337

 eigenvalue-minimisations  :  2674
 total energy-change (2. order) :-0.7890577E+00  (-0.7870925E+00)
 number of electron      20.0000000 magnetization 
 augmentation part       20.0000000 magnetization 

 Free energy of the ion-electron system (eV)
  ---------------------------------------------------
  alpha Z        PSCENC =         9.60021974
  Ewald energy   TEWEN  =      1168.95220058
  -Hartree energ DENC   =     -1771.04480632
  -exchange      EXHF   =         0.00000000
  -V(xc)+E(xc)   XCENC  =      -238.51852503
  PAW double counting   =       799.43158084     -524.17639913
  entropy T*S    EENTRO =        -0.00000000
  eigenvalues    EBANDS =      -163.44129275
  atomic energy  EATOM  =       702.42789710
  Solvation  Ediel_sol  =         0.00000000
  ---------------------------------------------------
  free energy    TOTEN  =       -16.76912497 eV

  energy without entropy =      -16.76912497  energy(sigma->0) =      -16.76912497


--------------------------------------------------------------------------------------------------------




--------------------------------------- Iteration      1(   5)  ---------------------------------------


     EDDAV:  cpu time    1.5198: real time    1.5222
       DOS:  cpu time    0.0020: real time    0.0020
    CHARGE:  cpu time    0.1254: real time    0.1262
    MIXING:  cpu time    0.0014: real time    0.0014
    --------------------------------------------
      LOOP:  cpu time    1.6486: real time    1.6518

 eigenvalue-minimisations  :  2288
 total energy-change (2. order) :-0.1554419E-01  (-0.1553443E-01)
 number of electron      20.0000000 magnetization 
 augmentation part       -4.5257269 magnetization 

 Broyden mixing:
  rms(total) = 0.45595E+00    rms(broyden)= 0.45595E+00
  rms(prec ) = 0.49534E+00
  weight for this iteration     100.00

 Free energy of the ion-electron system (eV)
  ---------------------------------------------------
  alpha Z        PSCENC =         9.60021974
  Ewald energy   TEWEN  =      1168.95220058
  -Hartree energ DENC   =     -1771.04480632
  -exchange      EXHF   =         0.00000000
  -V(xc)+E(xc)   XCENC  =      -238.51852503
  PAW double counting   =       799.43158084     -524.17639913
  entropy T*S    EENTRO =        -0.00000000
  eigenvalues    EBANDS =      -163.45683694
  atomic energy  EATOM  =       702.42789710
  Solvation  Ediel_sol  =         0.00000000
  ---------------------------------------------------
  free energy    TOTEN  =       -16.78466916 eV

  energy without entropy =      -16.78466916  energy(sigma->0) =      -16.78466916


--------------------------------------------------------------------------------------------------------




--------------------------------------- Iteration      1(   6)  ---------------------------------------


    POTLOK:  cpu time    0.0370: real time    0.0371
    SETDIJ:  cpu time    0.0036: real time    0.0043
     EDDAV:  cpu time    1.4992: real time    1.5017
       DOS:  cpu time    0.0020: real time    0.0020
    CHARGE:  cpu time    0.1341: real time    0.1343
    MIXING:  cpu time    0.0012: real time    0.0012
    --------------------------------------------
      LOOP:  cpu time    1.6771: real time    1.6806

 eigenvalue-minimisations  :  2234
 total energy-change (2. order) : 0.4800477E+00  (-0.1213246E+00)
 number of electron      20.0000000 magnetization 
 augmentation part       -4.4934416 magnetization 

 Broyden mixing:
  rms(total) = 0.28047E+00    rms(broyden)= 0.28047E+00
  rms(prec ) = 0.28955E+00
  weight for this iteration     100.00

 eigenvalues of (default mixing * dielectric matrix)
  average eigenvalue GAMMA=   1.8332
  1.8332

 Free energy of the ion-electron system (eV)
  ---------------------------------------------------
  alpha Z        PSCENC =         9.60021974
  Ewald energy   TEWEN  =      1168.95220058
  -Hartree energ DENC   =     -1778.90290763
  -exchange      EXHF   =         0.00000000
  -V(xc)+E(xc)   XCENC  =      -238.03794177
  PAW double counting   =       926.52476354     -651.45693609
  entropy T*S    EENTRO =        -0.00000000
  eigenvalues    EBANDS =      -155.41191698
  atomic energy  EATOM  =       702.42789710
  Solvation  Ediel_sol  =         0.00000000
  ---------------------------------------------------
  free energy    TOTEN  =       -16.30462151 eV

  energy without entropy =      -16.30462151  energy(sigma->0) =      -16.30462151


--------------------------------------------------------------------------------------------------------




--------------------------------------- Iteration      1(   7)  ---------------------------------------


    POTLOK:  cpu time    0.0367: real time    0.0368
    SETDIJ:  cpu time    0.0032: real time    0.0037
     EDDAV:  cpu time    1.6145: real time    1.6171
       DOS:  cpu time    0.0020: real time    0.0020
    CHARGE:  cpu time    0.1252: real time    0.1260
    MIXING:  cpu time    0.0012: real time    0.0014
    --------------------------------------------
      LOOP:  cpu time    1.7828: real time    1.7870

 eigenvalue-minimisations  :  2392
 total energy-change (2. order) : 0.2889502E-01  (-0.3154452E-01)
 number of electron      20.0000000 magnetization 
 augmentation part       -4.4842386 magnetization 

 Broyden mixing:
  rms(total) = 0.10377E+00    rms(broyden)= 0.10377E+00
  rms(prec ) = 0.10922E+00
  weight for this iteration     100.00

 eigenvalues of (default mixing * dielectric matrix)
  average eigenvalue GAMMA=   1.7398
  1.3751  2.1046

 Free energy of the ion-electron system (eV)
  ---------------------------------------------------
  alpha Z        PSCENC =         9.60021974
  Ewald energy   TEWEN  =      1168.95220058
  -Hartree energ DENC   =     -1784.08975914
  -exchange      EXHF   =         0.00000000
  -V(xc)+E(xc)   XCENC  =      -237.70562947
  PAW double counting   =      1073.42330477     -798.50302783
  entropy T*S    EENTRO =        -0.00000000
  eigenvalues    EBANDS =      -150.38093225
  atomic energy  EATOM  =       702.42789710
  Solvation  Ediel_sol  =         0.00000000
  ---------------------------------------------------
  free energy    TOTEN  =       -16.27572649 eV

  energy without entropy =      -16.27572649  energy(sigma->0) =      -16.27572649


--------------------------------------------------------------------------------------------------------




--------------------------------------- Iteration      1(   8)  ---------------------------------------


    POTLOK:  cpu time    0.0372: real time    0.0373
    SETDIJ:  cpu time    0.0032: real time    0.0032
     EDDAV:  cpu time    1.6246: real time    1.6274
       DOS:  cpu time    0.0020: real time    0.0021
    CHARGE:  cpu time    0.1243: real time    0.1246
    MIXING:  cpu time    0.0012: real time    0.0012
    --------------------------------------------
      LOOP:  cpu time    1.7925: real time    1.7959

 eigenvalue-minimisations  :  2476
 total energy-change (2. order) : 0.1001168E-01  (-0.3881568E-02)
 number of electron      20.0000000 magnetization 
 augmentation part       -4.4884289 magnetization 

 Broyden mixing:
  rms(total) = 0.20259E-01    rms(broyden)= 0.20259E-01
  rms(prec ) = 0.27718E-01
  weight for this iteration     100.00

 eigenvalues of (default mixing * dielectric matrix)
  average eigenvalue GAMMA=   1.7205
  2.5411  1.3103  1.3103

 Free energy of the ion-electron system (eV)
  ---------------------------------------------------
  alpha Z        PSCENC =         9.60021974
  Ewald energy   TEWEN  =      1168.95220058
  -Hartree energ DENC   =     -1785.79729913
  -exchange      EXHF   =         0.00000000
  -V(xc)+E(xc)   XCENC  =      -237.62825660
  PAW double counting   =      1139.30907544     -864.42861222
  entropy T*S    EENTRO =        -0.00000000
  eigenvalues    EBANDS =      -148.70093973
  atomic energy  EATOM  =       702.42789710
  Solvation  Ediel_sol  =         0.00000000
  ---------------------------------------------------
  free energy    TOTEN  =       -16.26571481 eV

  energy without entropy =      -16.26571481  energy(sigma->0) =      -16.26571481


--------------------------------------------------------------------------------------------------------




--------------------------------------- Iteration      1(   9)  ---------------------------------------


    POTLOK:  cpu time    0.0371: real time    0.0373
    SETDIJ:  cpu time    0.0035: real time    0.0035
     EDDAV:  cpu time    1.5960: real time    1.5987
       DOS:  cpu time    0.0020: real time    0.0020
    CHARGE:  cpu time    0.1253: real time    0.1256
    MIXING:  cpu time    0.0012: real time    0.0012
    --------------------------------------------
      LOOP:  cpu time    1.7652: real time    1.7683

 eigenvalue-minimisations  :  2452
 total energy-change (2. order) : 0.3780322E-02  (-0.6512216E-03)
 number of electron      20.0000000 magnetization 
 augmentation part       -4.4864597 magnetization 

 Broyden mixing:
  rms(total) = 0.10081E-01    rms(broyden)= 0.10081E-01
  rms(prec ) = 0.15641E-01
  weight for this iteration     100.00

 eigenvalues of (default mixing * dielectric matrix)
  average eigenvalue GAMMA=   1.6807
  2.1682  2.1682  1.1933  1.1933

 Free energy of the ion-electron system (eV)
  ---------------------------------------------------
  alpha Z        PSCENC =         9.60021974
  Ewald energy   TEWEN  =      1168.95220058
  -Hartree energ DENC   =     -1787.81372681
  -exchange      EXHF   =         0.00000000
  -V(xc)+E(xc)   XCENC  =      -237.55471872
  PAW double counting   =      1157.72736992     -882.85919898
  entropy T*S    EENTRO =        -0.00000000
  eigenvalues    EBANDS =      -146.74197732
  atomic energy  EATOM  =       702.42789710
  Solvation  Ediel_sol  =         0.00000000
  ---------------------------------------------------
  free energy    TOTEN  =       -16.26193449 eV

  energy without entropy =      -16.26193449  energy(sigma->0) =      -16.26193449


--------------------------------------------------------------------------------------------------------




--------------------------------------- Iteration      1(  10)  ---------------------------------------


    POTLOK:  cpu time    0.0370: real time    0.0373
    SETDIJ:  cpu time    0.0031: real time    0.0032
     EDDAV:  cpu time    1.5933: real time    1.6019
       DOS:  cpu time    0.0021: real time    0.0021
    CHARGE:  cpu time    0.1241: real time    0.1245
    MIXING:  cpu time    0.0012: real time    0.0013
    --------------------------------------------
      LOOP:  cpu time    1.7608: real time    1.7701

 eigenvalue-minimisations  :  2446
 total energy-change (2. order) : 0.1171009E-02  (-0.1051484E-03)
 number of electron      20.0000000 magnetization 
 augmentation part       -4.4852446 magnetization 

 Broyden mixing:
  rms(total) = 0.50983E-02    rms(broyden)= 0.50983E-02
  rms(prec ) = 0.95738E-02
  weight for this iteration     100.00

 eigenvalues of (default mixing * dielectric matrix)
  average eigenvalue GAMMA=   1.8806
  3.3872  2.6005  1.2532  1.2532  0.9092

 Free energy of the ion-electron system (eV)
  ---------------------------------------------------
  alpha Z        PSCENC =         9.60021974
  Ewald energy   TEWEN  =      1168.95220058
  -Hartree energ DENC   =     -1789.00739257
  -exchange      EXHF   =         0.00000000
  -V(xc)+E(xc)   XCENC  =      -237.54470378
  PAW double counting   =      1147.38381345     -872.50564786
  entropy T*S    EENTRO =        -0.00000000
  eigenvalues    EBANDS =      -145.56715014
  atomic energy  EATOM  =       702.42789710
  Solvation  Ediel_sol  =         0.00000000
  ---------------------------------------------------
  free energy    TOTEN  =       -16.26076348 eV

  energy without entropy =      -16.26076348  energy(sigma->0) =      -16.26076348


--------------------------------------------------------------------------------------------------------




--------------------------------------- Iteration      1(  11)  ---------------------------------------


    POTLOK:  cpu time    0.0376: real time    0.0380
    SETDIJ:  cpu time    0.0032: real time    0.0032
     EDDAV:  cpu time    1.5915: real time    1.6280
       DOS:  cpu time    0.0020: real time    0.0020
    CHARGE:  cpu time    0.1241: real time    0.1244
    MIXING:  cpu time    0.0013: real time    0.0013
    --------------------------------------------
      LOOP:  cpu time    1.7597: real time    1.7968

 eigenvalue-minimisations  :  2410
 total energy-change (2. order) : 0.7946999E-03  (-0.1422825E-03)
 number of electron      20.0000000 magnetization 
 augmentation part       -4.4837634 magnetization 

 Broyden mixing:
  rms(total) = 0.33596E-02    rms(broyden)= 0.33596E-02
  rms(prec ) = 0.50286E-02
  weight for this iteration     100.00

 eigenvalues of (default mixing * dielectric matrix)
  average eigenvalue GAMMA=   1.8423
  3.3966  2.1862  2.1862  1.2049  1.2049  0.8751

 Free energy of the ion-electron system (eV)
  ---------------------------------------------------
  alpha Z        PSCENC =         9.60021974
  Ewald energy   TEWEN  =      1168.95220058
  -Hartree energ DENC   =     -1790.72084354
  -exchange      EXHF   =         0.00000000
  -V(xc)+E(xc)   XCENC  =      -237.51206153
  PAW double counting   =      1148.30106862     -873.42133132
  entropy T*S    EENTRO =        -0.00000000
  eigenvalues    EBANDS =      -143.88711844
  atomic energy  EATOM  =       702.42789710
  Solvation  Ediel_sol  =         0.00000000
  ---------------------------------------------------
  free energy    TOTEN  =       -16.25996878 eV

  energy without entropy =      -16.25996878  energy(sigma->0) =      -16.25996878


--------------------------------------------------------------------------------------------------------




--------------------------------------- Iteration      1(  12)  ---------------------------------------


    POTLOK:  cpu time    0.0375: real time    0.0376
    SETDIJ:  cpu time    0.0031: real time    0.0032
     EDDAV:  cpu time    1.3979: real time    1.4005
       DOS:  cpu time    0.0020: real time    0.0020
    CHARGE:  cpu time    0.1257: real time    0.1261
    MIXING:  cpu time    0.0013: real time    0.0013
    --------------------------------------------
      LOOP:  cpu time    1.5675: real time    1.5706

 eigenvalue-minimisations  :  2008
 total energy-change (2. order) :-0.8257535E-03  (-0.3043492E-04)
 number of electron      20.0000000 magnetization 
 augmentation part       -4.4831547 magnetization 

 Broyden mixing:
  rms(total) = 0.19867E-02    rms(broyden)= 0.19867E-02
  rms(prec ) = 0.29433E-02
  weight for this iteration     100.00

 eigenvalues of (default mixing * dielectric matrix)
  average eigenvalue GAMMA=   2.0742
  4.6107  3.0976  2.5002  1.2202  1.2202  1.0273  0.8434

 Free energy of the ion-electron system (eV)
  ---------------------------------------------------
  alpha Z        PSCENC =         9.60021974
  Ewald energy   TEWEN  =      1168.95220058
  -Hartree energ DENC   =     -1791.33132032
  -exchange      EXHF   =         0.00000000
  -V(xc)+E(xc)   XCENC  =      -237.50256342
  PAW double counting   =      1150.49220163     -875.61559444
  entropy T*S    EENTRO =        -0.00000000
  eigenvalues    EBANDS =      -143.28383540
  atomic energy  EATOM  =       702.42789710
  Solvation  Ediel_sol  =         0.00000000
  ---------------------------------------------------
  free energy    TOTEN  =       -16.26079453 eV

  energy without entropy =      -16.26079453  energy(sigma->0) =      -16.26079453


--------------------------------------------------------------------------------------------------------




--------------------------------------- Iteration      1(  13)  ---------------------------------------


    POTLOK:  cpu time    0.0376: real time    0.0380
    SETDIJ:  cpu time    0.0031: real time    0.0031
     EDDAV:  cpu time    1.4368: real time    1.4431
       DOS:  cpu time    0.0020: real time    0.0020
    CHARGE:  cpu time    0.1247: real time    0.1249
    MIXING:  cpu time    0.0015: real time    0.0015
    --------------------------------------------
      LOOP:  cpu time    1.6058: real time    1.6126

 eigenvalue-minimisations  :  2092
 total energy-change (2. order) :-0.4388678E-03  (-0.8538805E-05)
 number of electron      20.0000000 magnetization 
 augmentation part       -4.4829426 magnetization 

 Broyden mixing:
  rms(total) = 0.11871E-02    rms(broyden)= 0.11871E-02
  rms(prec ) = 0.15522E-02
  weight for this iteration     100.00

 eigenvalues of (default mixing * dielectric matrix)
  average eigenvalue GAMMA=   2.2306
  5.5622  3.3329  2.5092  2.1273  1.1702  1.1702  1.0634  0.9091

 Free energy of the ion-electron system (eV)
  ---------------------------------------------------
  alpha Z        PSCENC =         9.60021974
  Ewald energy   TEWEN  =      1168.95220058
  -Hartree energ DENC   =     -1791.75440342
  -exchange      EXHF   =         0.00000000
  -V(xc)+E(xc)   XCENC  =      -237.50147759
  PAW double counting   =      1149.07374784     -874.19573333
  entropy T*S    EENTRO =        -0.00000000
  eigenvalues    EBANDS =      -142.86368433
  atomic energy  EATOM  =       702.42789710
  Solvation  Ediel_sol  =         0.00000000
  ---------------------------------------------------
  free energy    TOTEN  =       -16.26123340 eV

  energy without entropy =      -16.26123340  energy(sigma->0) =      -16.26123340


--------------------------------------------------------------------------------------------------------




--------------------------------------- Iteration      1(  14)  ---------------------------------------


    POTLOK:  cpu time    0.0388: real time    0.0389
    SETDIJ:  cpu time    0.0034: real time    0.0039
     EDDAV:  cpu time    1.5408: real time    1.5433
       DOS:  cpu time    0.0020: real time    0.0020
    CHARGE:  cpu time    0.1282: real time    0.1297
    MIXING:  cpu time    0.0015: real time    0.0015
    --------------------------------------------
      LOOP:  cpu time    1.7147: real time    1.7192

 eigenvalue-minimisations  :  2242
 total energy-change (2. order) :-0.2643302E-03  (-0.4267308E-05)
 number of electron      20.0000000 magnetization 
 augmentation part       -4.4829200 magnetization 

 Broyden mixing:
  rms(total) = 0.41885E-03    rms(broyden)= 0.41885E-03
  rms(prec ) = 0.63300E-03
  weight for this iteration     100.00

 eigenvalues of (default mixing * dielectric matrix)
  average eigenvalue GAMMA=   2.2429
  6.7345  3.0768  2.5294  2.5294  1.1955  1.1955  1.0700  0.9277  0.9277

 Free energy of the ion-electron system (eV)
  ---------------------------------------------------
  alpha Z        PSCENC =         9.60021974
  Ewald energy   TEWEN  =      1168.95220058
  -Hartree energ DENC   =     -1791.96275493
  -exchange      EXHF   =         0.00000000
  -V(xc)+E(xc)   XCENC  =      -237.50133398
  PAW double counting   =      1149.38931116     -874.51074705
  entropy T*S    EENTRO =        -0.00000000
  eigenvalues    EBANDS =      -142.65629035
  atomic energy  EATOM  =       702.42789710
  Solvation  Ediel_sol  =         0.00000000
  ---------------------------------------------------
  free energy    TOTEN  =       -16.26149773 eV

  energy without entropy =      -16.26149773  energy(sigma->0) =      -16.26149773


--------------------------------------------------------------------------------------------------------




--------------------------------------- Iteration      1(  15)  ---------------------------------------


    POTLOK:  cpu time    0.0392: real time    0.0396
    SETDIJ:  cpu time    0.0032: real time    0.0032
     EDDAV:  cpu time    1.4663: real time    1.4686
       DOS:  cpu time    0.0021: real time    0.0021
    CHARGE:  cpu time    0.1245: real time    0.1247
    MIXING:  cpu time    0.0015: real time    0.0015
    --------------------------------------------
      LOOP:  cpu time    1.6368: real time    1.6398

 eigenvalue-minimisations  :  2144
 total energy-change (2. order) :-0.5447567E-04  (-0.2008954E-06)
 number of electron      20.0000000 magnetization 
 augmentation part       -4.4829366 magnetization 

 Broyden mixing:
  rms(total) = 0.34189E-03    rms(broyden)= 0.34189E-03
  rms(prec ) = 0.51371E-03
  weight for this iteration     100.00

 eigenvalues of (default mixing * dielectric matrix)
  average eigenvalue GAMMA=   2.3567
  6.5406  4.2689  2.7057  2.7057  1.9752  1.1496  1.1496  1.2028  0.9342  0.9342

 Free energy of the ion-electron system (eV)
  ---------------------------------------------------
  alpha Z        PSCENC =         9.60021974
  Ewald energy   TEWEN  =      1168.95220058
  -Hartree energ DENC   =     -1791.97718034
  -exchange      EXHF   =         0.00000000
  -V(xc)+E(xc)   XCENC  =      -237.50165180
  PAW double counting   =      1149.21262351     -874.33393119
  entropy T*S    EENTRO =        -0.00000000
  eigenvalues    EBANDS =      -142.64172981
  atomic energy  EATOM  =       702.42789710
  Solvation  Ediel_sol  =         0.00000000
  ---------------------------------------------------
  free energy    TOTEN  =       -16.26155221 eV

  energy without entropy =      -16.26155221  energy(sigma->0) =      -16.26155221


--------------------------------------------------------------------------------------------------------




--------------------------------------- Iteration      1(  16)  ---------------------------------------


    POTLOK:  cpu time    0.0379: real time    0.0380
    SETDIJ:  cpu time    0.0032: real time    0.0032
     EDDAV:  cpu time    1.3582: real time    1.3604
       DOS:  cpu time    0.0020: real time    0.0020
    CHARGE:  cpu time    0.1240: real time    0.1242
    MIXING:  cpu time    0.0016: real time    0.0016
    --------------------------------------------
      LOOP:  cpu time    1.5268: real time    1.5293

 eigenvalue-minimisations  :  1944
 total energy-change (2. order) :-0.4836536E-04  (-0.8473097E-06)
 number of electron      20.0000000 magnetization 
 augmentation part       -4.4829501 magnetization 

 Broyden mixing:
  rms(total) = 0.13429E-03    rms(broyden)= 0.13429E-03
  rms(prec ) = 0.23231E-03
  weight for this iteration     100.00

 eigenvalues of (default mixing * dielectric matrix)
  average eigenvalue GAMMA=   2.2829
  6.7908  4.5081  2.6493  2.6493  2.2642  1.1664  1.1664  1.1859  0.9305  0.9305
  0.8701

 Free energy of the ion-electron system (eV)
  ---------------------------------------------------
  alpha Z        PSCENC =         9.60021974
  Ewald energy   TEWEN  =      1168.95220058
  -Hartree energ DENC   =     -1792.02972098
  -exchange      EXHF   =         0.00000000
  -V(xc)+E(xc)   XCENC  =      -237.50178770
  PAW double counting   =      1149.01995847     -874.14123601
  entropy T*S    EENTRO =        -0.00000000
  eigenvalues    EBANDS =      -142.58913177
  atomic energy  EATOM  =       702.42789710
  Solvation  Ediel_sol  =         0.00000000
  ---------------------------------------------------
  free energy    TOTEN  =       -16.26160057 eV

  energy without entropy =      -16.26160057  energy(sigma->0) =      -16.26160057


--------------------------------------------------------------------------------------------------------




--------------------------------------- Iteration      1(  17)  ---------------------------------------


    POTLOK:  cpu time    0.0373: real time    0.0375
    SETDIJ:  cpu time    0.0031: real time    0.0031
     EDDAV:  cpu time    1.3236: real time    1.3262
       DOS:  cpu time    0.0021: real time    0.0021
    CHARGE:  cpu time    0.1242: real time    0.1247
    MIXING:  cpu time    0.0016: real time    0.0017
    --------------------------------------------
      LOOP:  cpu time    1.4919: real time    1.4952

 eigenvalue-minimisations  :  1896
 total energy-change (2. order) :-0.2356867E-04  (-0.1227940E-06)
 number of electron      20.0000000 magnetization 
 augmentation part       -4.4829308 magnetization 

 Broyden mixing:
  rms(total) = 0.13078E-03    rms(broyden)= 0.13078E-03
  rms(prec ) = 0.18893E-03
  weight for this iteration     100.00

 eigenvalues of (default mixing * dielectric matrix)
  average eigenvalue GAMMA=   2.4005
  6.9322  5.2509  2.9617  2.9617  2.3032  2.0375  1.1621  1.1621  0.9192  0.9681
  1.0735  1.0735

 Free energy of the ion-electron system (eV)
  ---------------------------------------------------
  alpha Z        PSCENC =         9.60021974
  Ewald energy   TEWEN  =      1168.95220058
  -Hartree energ DENC   =     -1792.04521660
  -exchange      EXHF   =         0.00000000
  -V(xc)+E(xc)   XCENC  =      -237.50164285
  PAW double counting   =      1149.08890489     -874.21030277
  entropy T*S    EENTRO =        -0.00000000
  eigenvalues    EBANDS =      -142.57368423
  atomic energy  EATOM  =       702.42789710
  Solvation  Ediel_sol  =         0.00000000
  ---------------------------------------------------
  free energy    TOTEN  =       -16.26162414 eV

  energy without entropy =      -16.26162414  energy(sigma->0) =      -16.26162414


--------------------------------------------------------------------------------------------------------




--------------------------------------- Iteration      1(  18)  ---------------------------------------


    POTLOK:  cpu time    0.0369: real time    0.0373
    SETDIJ:  cpu time    0.0031: real time    0.0031
     EDDAV:  cpu time    1.3997: real time    1.4097
       DOS:  cpu time    0.0020: real time    0.0020
    CHARGE:  cpu time    0.1248: real time    0.1250
    MIXING:  cpu time    0.0016: real time    0.0016
    --------------------------------------------
      LOOP:  cpu time    1.5682: real time    1.5788

 eigenvalue-minimisations  :  2038
 total energy-change (2. order) :-0.3839362E-04  (-0.3944118E-06)
 number of electron      20.0000000 magnetization 
 augmentation part       -4.4829200 magnetization 

 Broyden mixing:
  rms(total) = 0.65808E-04    rms(broyden)= 0.65808E-04
  rms(prec ) = 0.80548E-04
  weight for this iteration     100.00

 eigenvalues of (default mixing * dielectric matrix)
  average eigenvalue GAMMA=   2.3306
  7.0568  5.4329  2.9124  2.9124  2.4569  2.0641  1.1713  1.1713  1.1755  1.0724
  0.9909  0.9909  0.8894

 Free energy of the ion-electron system (eV)
  ---------------------------------------------------
  alpha Z        PSCENC =         9.60021974
  Ewald energy   TEWEN  =      1168.95220058
  -Hartree energ DENC   =     -1792.06844525
  -exchange      EXHF   =         0.00000000
  -V(xc)+E(xc)   XCENC  =      -237.50162689
  PAW double counting   =      1149.08235809     -874.20372985
  entropy T*S    EENTRO =        -0.00000000
  eigenvalues    EBANDS =      -142.55053606
  atomic energy  EATOM  =       702.42789710
  Solvation  Ediel_sol  =         0.00000000
  ---------------------------------------------------
  free energy    TOTEN  =       -16.26166254 eV

  energy without entropy =      -16.26166254  energy(sigma->0) =      -16.26166254


--------------------------------------------------------------------------------------------------------




--------------------------------------- Iteration      1(  19)  ---------------------------------------


    POTLOK:  cpu time    0.0372: real time    0.0373
    SETDIJ:  cpu time    0.0031: real time    0.0031
     EDDAV:  cpu time    1.3428: real time    1.3449
       DOS:  cpu time    0.0020: real time    0.0020
    CHARGE:  cpu time    0.1249: real time    0.1251
    MIXING:  cpu time    0.0017: real time    0.0017
    --------------------------------------------
      LOOP:  cpu time    1.5117: real time    1.5141

 eigenvalue-minimisations  :  1916
 total energy-change (2. order) :-0.4790642E-05  (-0.1235266E-07)
 number of electron      20.0000000 magnetization 
 augmentation part       -4.4829270 magnetization 

 Broyden mixing:
  rms(total) = 0.39435E-04    rms(broyden)= 0.39435E-04
  rms(prec ) = 0.49062E-04
  weight for this iteration     100.00

 eigenvalues of (default mixing * dielectric matrix)
  average eigenvalue GAMMA=   2.5703
  7.4719  7.4719  3.8415  3.0514  2.3876  2.3876  1.9559  1.1642  1.1642  1.0935
  1.0935  0.9236  0.9523  1.0244

 Free energy of the ion-electron system (eV)
  ---------------------------------------------------
  alpha Z        PSCENC =         9.60021974
  Ewald energy   TEWEN  =      1168.95220058
  -Hartree energ DENC   =     -1792.06774786
  -exchange      EXHF   =         0.00000000
  -V(xc)+E(xc)   XCENC  =      -237.50166040
  PAW double counting   =      1149.12163766     -874.24302766
  entropy T*S    EENTRO =        -0.00000000
  eigenvalues    EBANDS =      -142.55118648
  atomic energy  EATOM  =       702.42789710
  Solvation  Ediel_sol  =         0.00000000
  ---------------------------------------------------
  free energy    TOTEN  =       -16.26166733 eV

  energy without entropy =      -16.26166733  energy(sigma->0) =      -16.26166733


--------------------------------------------------------------------------------------------------------




--------------------------------------- Iteration      1(  20)  ---------------------------------------


    POTLOK:  cpu time    0.0373: real time    0.0374
    SETDIJ:  cpu time    0.0032: real time    0.0032
     EDDAV:  cpu time    1.1479: real time    1.1497
       DOS:  cpu time    0.0020: real time    0.0020
    CHARGE:  cpu time    0.1275: real time    0.1279
    MIXING:  cpu time    0.0018: real time    0.0018
    --------------------------------------------
      LOOP:  cpu time    1.3197: real time    1.3220

 eigenvalue-minimisations  :  1520
 total energy-change (2. order) :-0.7379676E-05  (-0.4258535E-07)
 number of electron      20.0000000 magnetization 
 augmentation part       -4.4829297 magnetization 

 Broyden mixing:
  rms(total) = 0.21806E-04    rms(broyden)= 0.21806E-04
  rms(prec ) = 0.24181E-04
  weight for this iteration     100.00

 eigenvalues of (default mixing * dielectric matrix)
  average eigenvalue GAMMA=   2.5525
  7.7797  7.7797  4.0262  2.9984  2.3519  2.3519  2.1637  1.4071  1.1632  1.1632
  0.9097  1.0890  1.0378  1.0328  1.0328

 Free energy of the ion-electron system (eV)
  ---------------------------------------------------
  alpha Z        PSCENC =         9.60021974
  Ewald energy   TEWEN  =      1168.95220058
  -Hartree energ DENC   =     -1792.07180904
  -exchange      EXHF   =         0.00000000
  -V(xc)+E(xc)   XCENC  =      -237.50166839
  PAW double counting   =      1149.10678989     -874.22815305
  entropy T*S    EENTRO =        -0.00000000
  eigenvalues    EBANDS =      -142.54715153
  atomic energy  EATOM  =       702.42789710
  Solvation  Ediel_sol  =         0.00000000
  ---------------------------------------------------
  free energy    TOTEN  =       -16.26167471 eV

  energy without entropy =      -16.26167471  energy(sigma->0) =      -16.26167471


--------------------------------------------------------------------------------------------------------




--------------------------------------- Iteration      1(  21)  ---------------------------------------


    POTLOK:  cpu time    0.0373: real time    0.0377
    SETDIJ:  cpu time    0.0032: real time    0.0032
     EDDAV:  cpu time    1.2812: real time    1.2881
       DOS:  cpu time    0.0020: real time    0.0020
    --------------------------------------------
      LOOP:  cpu time    1.3236: real time    1.3310

 eigenvalue-minimisations  :  1796
 total energy-change (2. order) :-0.7727042E-06  (-0.4022811E-08)
 number of electron      20.0000000 magnetization 
 augmentation part       -4.4829297 magnetization 

 Free energy of the ion-electron system (eV)
  ---------------------------------------------------
  alpha Z        PSCENC =         9.60021974
  Ewald energy   TEWEN  =      1168.95220058
  -Hartree energ DENC   =     -1792.07343723
  -exchange      EXHF   =         0.00000000
  -V(xc)+E(xc)   XCENC  =      -237.50164260
  PAW double counting   =      1149.10314076     -874.22450280
  entropy T*S    EENTRO =        -0.00000000
  eigenvalues    EBANDS =      -142.54555103
  atomic energy  EATOM  =       702.42789710
  Solvation  Ediel_sol  =         0.00000000
  ---------------------------------------------------
  free energy    TOTEN  =       -16.26167548 eV

  energy without entropy =      -16.26167548  energy(sigma->0) =      -16.26167548


--------------------------------------------------------------------------------------------------------




 average (electrostatic) potential at core
  the test charge radii are     1.4072  1.0808
  (the norm of the test charge is              1.0000)
       1 -51.2090       2 -51.2090       3 -59.9233       4 -59.9233
 
 
 
 E-fermi :  -1.4638     XC(G=0):  -3.3544     alpha+bet : -2.7015


 k-point     1 :       0.0000    0.0000    0.0000
  band No.  band energies     occupation 
      1     -15.3365      2.00000
      2     -14.3265      2.00000
      3      -8.2053      2.00000
      4      -7.2216      2.00000
      5      -5.4152      2.00000
      6      -5.0750      2.00000
      7      -5.0252      2.00000
      8      -3.8829      2.00000
      9      -3.7990      2.00000
     10      -2.5744      2.00000
     11      -0.4514      0.00000
     12       1.3715      0.00000
     13       1.8345      0.00000
     14       2.0596      0.00000

 k-point     2 :       0.0667    0.0000    0.0000
  band No.  band energies     occupation 
      1     -15.3177      2.00000
      2     -14.3236      2.00000
      3      -8.2772      2.00000
      4      -7.3036      2.00000
      5      -5.4203      2.00000
      6      -5.0436      2.00000
      7      -4.9567      2.00000
      8      -3.8608      2.00000
      9      -3.6874      2.00000
     10      -2.5910      2.00000
     11      -0.4407      0.00000
     12       1.4283      0.00000
     13       1.7442      0.00000
     14       1.9544      0.00000

 k-point     3 :       0.1333    0.0000    0.0000
  band No.  band energies     occupation 
      1     -15.2621      2.00000
[...]
      3      -8.8192      2.00000
      4      -8.4648      2.00000
      5      -6.1819      2.00000
      6      -4.9195      2.00000
      7      -4.8246      2.00000
      8      -3.8242      2.00000
      9      -3.8058      2.00000
     10      -2.6803      2.00000
     11      -0.1713      0.00000
     12       0.7622      0.00000
     13       1.1418      0.00000
     14       1.5745      0.00000

 k-point    46 :       0.3333    0.3333    0.0000
  band No.  band energies     occupation 
      1     -14.5585      2.00000
      2     -14.2460      2.00000
      3      -8.6990      2.00000
      4      -8.4528      2.00000
      5      -6.3958      2.00000
      6      -5.1428      2.00000
      7      -5.0070      2.00000
      8      -4.0224      2.00000
      9      -4.0197      2.00000
     10      -3.0654      2.00000
     11       0.2282      0.00000
     12       1.1980      0.00000
     13       1.5231      0.00000
     14       1.8433      0.00000

 k-point    47 :       0.4000    0.3333    0.0000
  band No.  band energies     occupation 
      1     -14.4608      2.00000
      2     -14.2637      2.00000
      3      -8.6037      2.00000
      4      -8.4647      2.00000
      5      -6.4242      2.00000
      6      -5.5566      2.00000
      7      -5.0093      2.00000
      8      -4.3098      2.00000
      9      -3.9728      2.00000
     10      -3.3766      2.00000
     11       0.5829      0.00000
     12       1.3820      0.00000
     13       1.6787      0.00000
     14       2.3837      0.00000

 k-point    48 :       0.4667    0.3333    0.0000
  band No.  band energies     occupation 
      1     -14.3737      2.00000
      2     -14.3063      2.00000
      3      -8.5392      2.00000
      4      -8.4951      2.00000
      5      -6.2678      2.00000
      6      -5.9605      2.00000
      7      -4.8699      2.00000
      8      -4.6185      2.00000
      9      -3.8184      2.00000
     10      -3.6182      2.00000
     11       0.8944      0.00000
     12       1.1649      0.00000
     13       2.1041      0.00000
     14       2.3969      0.00000

 k-point    49 :       0.0000    0.4000    0.0000
  band No.  band energies     occupation 
      1     -14.7186      2.00000
      2     -14.3540      2.00000
      3      -9.2303      2.00000
      4      -8.8716      2.00000
      5      -4.7651      2.00000
      6      -4.1586      2.00000
      7      -4.0116      2.00000
      8      -3.4740      2.00000
      9      -2.7687      2.00000
     10      -1.9537      2.00000
     11      -0.9770      0.00000
     12      -0.0483      0.00000
     13       0.1218      0.00000
     14       0.3437      0.00000

 k-point    50 :       0.0667    0.4000    0.0000
  band No.  band energies     occupation 
      1     -14.7056      2.00000
      2     -14.3474      2.00000
      3      -9.2019      2.00000
      4      -8.8513      2.00000
      5      -4.7574      2.00000
      6      -4.5288      2.00000
      7      -3.9061      2.00000
      8      -3.6769      2.00000
      9      -2.5672      2.00000
     10      -2.2631      2.00000
     11      -0.7177      0.00000
     12      -0.3467      0.00000
     13       0.2668      0.00000
     14       0.3696      0.00000

 k-point    51 :       0.1333    0.4000    0.0000
  band No.  band energies     occupation 
      1     -14.6678      2.00000
      2     -14.3291      2.00000
      3      -9.1179      2.00000
      4      -8.7923      2.00000
      5      -5.0832      2.00000
      6      -4.7457      2.00000
      7      -4.1102      2.00000
      8      -3.8849      2.00000
      9      -2.8746      2.00000
     10      -2.3984      2.00000
     11      -0.5987      0.00000
     12      -0.0989      0.00000
     13       0.4942      0.00000
     14       0.8383      0.00000

 k-point    52 :       0.2000    0.4000    0.0000
  band No.  band energies     occupation 
      1     -14.6091      2.00000
      2     -14.3035      2.00000
      3      -8.9831      2.00000
      4      -8.7011      2.00000
      5      -5.6216      2.00000
      6      -4.8002      2.00000
      7      -4.5383      2.00000
      8      -3.9261      2.00000
      9      -3.4784      2.00000
     10      -2.6668      2.00000
     11      -0.2944      0.00000
     12       0.6498      0.00000
     13       0.7301      0.00000
     14       1.2544      0.00000

 k-point    53 :       0.2667    0.4000    0.0000
  band No.  band energies     occupation 
      1     -14.5358      2.00000
      2     -14.2773      2.00000
      3      -8.8081      2.00000
      4      -8.5893      2.00000
      5      -6.0790      2.00000
      6      -5.1078      2.00000
      7      -4.7941      2.00000
      8      -4.0562      2.00000
      9      -3.8783      2.00000
     10      -3.0775      2.00000
     11       0.1834      0.00000
     12       1.1268      0.00000
     13       1.2322      0.00000
     14       1.6528      0.00000

 k-point    54 :       0.3333    0.4000    0.0000
  band No.  band energies     occupation 
      1     -14.4563      2.00000
      2     -14.2587      2.00000
      3      -8.6141      2.00000
      4      -8.4738      2.00000
      5      -6.4134      2.00000
      6      -5.5122      2.00000
      7      -5.0539      2.00000
      8      -4.3218      2.00000
      9      -3.9764      2.00000
     10      -3.3777      2.00000
     11       0.5768      0.00000
     12       1.3777      0.00000
     13       1.6685      0.00000
     14       2.3525      0.00000

 k-point    55 :       0.4000    0.4000    0.0000
  band No.  band energies     occupation 
      1     -14.3803      2.00000
      2     -14.2559      2.00000
      3      -8.4397      2.00000
      4      -8.3759      2.00000
      5      -6.5820      2.00000
      6      -5.9370      2.00000
      7      -5.2024      2.00000
      8      -4.6666      2.00000
      9      -3.9170      2.00000
     10      -3.5553      2.00000
     11       0.8864      0.00000
     12       1.3854      0.00000
     13       2.2023      0.00000
     14       2.8190      0.00000

 k-point    56 :       0.4667    0.4000    0.0000
  band No.  band energies     occupation 
      1     -14.3174      2.00000
      2     -14.2749      2.00000
      3      -8.3345      2.00000
      4      -8.3199      2.00000
      5      -6.5462      2.00000
      6      -6.3106      2.00000
      7      -5.1685      2.00000
      8      -4.9744      2.00000
      9      -3.8087      2.00000
     10      -3.6872      2.00000
     11       1.1323      0.00000
     12       1.3025      0.00000
     13       2.5801      0.00000
     14       2.8024      0.00000

 k-point    57 :       0.0000    0.4667    0.0000
  band No.  band energies     occupation 
      1     -14.5725      2.00000
      2     -14.4470      2.00000
      3      -9.2176      2.00000
      4      -9.0941      2.00000
      5      -4.5138      2.00000
      6      -4.2811      2.00000
      7      -3.7833      2.00000
      8      -3.5803      2.00000
      9      -2.4711      2.00000
     10      -2.1028      2.00000
     11      -0.8558      0.00000
     12      -0.3968      0.00000
     13      -0.0619      0.00000
     14       0.1408      0.00000

 k-point    58 :       0.0667    0.4667    0.0000
  band No.  band energies     occupation 
      1     -14.5617      2.00000
      2     -14.4385      2.00000
      3      -9.1883      2.00000
      4      -9.0677      2.00000
      5      -4.5239      2.00000
      6      -4.3813      2.00000
      7      -3.9625      2.00000
      8      -3.8071      2.00000
      9      -2.3783      2.00000
     10      -2.2745      2.00000
     11      -0.7635      0.00000
     12      -0.6621      0.00000
     13       0.3235      0.00000
     14       0.6210      0.00000

 k-point    59 :       0.1333    0.4667    0.0000
  band No.  band energies     occupation 
      1     -14.5305      2.00000
      2     -14.4141      2.00000
      3      -9.1016      2.00000
      4      -8.9897      2.00000
      5      -4.7981      2.00000
      6      -4.6206      2.00000
      7      -4.2102      2.00000
      8      -4.0957      2.00000
      9      -2.7848      2.00000
     10      -2.5655      2.00000
     11      -0.5034      0.00000
     12      -0.2507      0.00000
     13       0.7965      0.00000
     14       0.9223      0.00000

 k-point    60 :       0.2000    0.4667    0.0000
  band No.  band energies     occupation 
      1     -14.4830      2.00000
      2     -14.3780      2.00000
      3      -8.9609      2.00000
      4      -8.8642      2.00000
      5      -5.3338      2.00000
      6      -5.0047      2.00000
      7      -4.4028      2.00000
      8      -4.1657      2.00000
      9      -3.3402      2.00000
     10      -3.0321      2.00000
     11       0.0428      0.00000
     12       0.4137      0.00000
     13       1.0422      0.00000
     14       1.2717      0.00000

 k-point    61 :       0.2667    0.4667    0.0000
  band No.  band energies     occupation 
      1     -14.4255      2.00000
      2     -14.3368      2.00000
      3      -8.7737      2.00000
      4      -8.6996      2.00000
      5      -5.8315      2.00000
      6      -5.4838      2.00000
      7      -4.5942      2.00000
      8      -4.3299      2.00000
      9      -3.7095      2.00000
     10      -3.4295      2.00000
     11       0.5473      0.00000
     12       0.9043      0.00000
     13       1.4903      0.00000
     14       1.7497      0.00000

 k-point    62 :       0.3333    0.4667    0.0000
  band No.  band energies     occupation 
      1     -14.3663      2.00000
      2     -14.2987      2.00000
      3      -8.5563      2.00000
      4      -8.5114      2.00000
      5      -6.2422      2.00000
      6      -5.9217      2.00000
      7      -4.9110      2.00000
      8      -4.6463      2.00000
      9      -3.8191      2.00000
     10      -3.6178      2.00000
     11       0.8857      0.00000
     12       1.1570      0.00000
     13       2.0851      0.00000
     14       2.3701      0.00000

 k-point    63 :       0.4000    0.4667    0.0000
  band No.  band energies     occupation 
      1     -14.3147      2.00000
      2     -14.2721      2.00000
      3      -8.3434      2.00000
      4      -8.3283      2.00000
      5      -6.5315      2.00000
      6      -6.2915      2.00000
      7      -5.1869      2.00000
      8      -4.9880      2.00000
      9      -3.8073      2.00000
     10      -3.6857      2.00000
     11       1.1287      0.00000
     12       1.2990      0.00000
     13       2.5838      0.00000
     14       2.8193      0.00000

 k-point    64 :       0.4667    0.4667    0.0000
  band No.  band energies     occupation 
      1     -14.2789      2.00000
      2     -14.2644      2.00000
      3      -8.2020      2.00000
      4      -8.2020      2.00000
      5      -6.6507      2.00000
      6      -6.5582      2.00000
      7      -5.3030      2.00000
      8      -5.2287      2.00000
      9      -3.7660      2.00000
     10      -3.7250      2.00000
     11       1.2918      0.00000
     12       1.3499      0.00000
     13       2.7000      0.00000
     14       2.7727      0.00000


--------------------------------------------------------------------------------------------------------


 soft charge-density along one line, spin component           1
         0         1         2         3         4         5         6         7         8         9
 total charge-density along one line
 
 pseudopotential strength for first ion, spin component:           1
 30.068 -23.424  -0.000  -0.089   0.028  -0.000  -0.140   0.044
-23.424  28.110   0.000   0.050  -0.015   0.000   0.082  -0.025
 -0.000   0.000   6.328   0.000   0.000   9.790   0.000   0.000
 -0.089   0.050   0.000   6.326   0.001   0.000   9.787   0.002
  0.028  -0.015   0.000   0.001   6.328   0.000   0.002   9.790
 -0.000   0.000   9.790   0.000   0.000  15.217   0.000   0.000
 -0.140   0.082   0.000   9.787   0.002   0.000  15.211   0.003
  0.044  -0.025   0.000   0.002   9.790   0.000   0.003  15.216
  0.000  -0.000   0.006   0.000  -0.000   0.009   0.000  -0.000
  0.000  -0.000  -0.020  -0.000   0.000  -0.031  -0.000   0.000
 -0.002   0.003   0.000  -0.022  -0.003   0.000  -0.035  -0.005
  0.002  -0.001   0.000   0.007  -0.020   0.000   0.010  -0.031
 -0.000   0.000   0.000  -0.000   0.007   0.000  -0.000   0.010
 total augmentation occupancy for first ion, spin component:           1
  2.026  -0.015   0.000   0.237  -0.070   0.000  -0.042   0.012   0.000   0.000   0.024   0.002   0.000
 -0.015   0.009   0.000  -0.073   0.022   0.000   0.018  -0.005  -0.000   0.000  -0.002   0.001  -0.000
 -0.000   0.000   1.509  -0.000   0.000  -0.406  -0.000   0.000   0.099  -0.042   0.000  -0.000   0.000
  0.237  -0.073  -0.000   1.838  -0.001  -0.000  -0.487  -0.011   0.000   0.000  -0.269  -0.014  -0.000
 -0.070   0.022   0.000  -0.001   1.497   0.000  -0.011  -0.399  -0.000   0.000  -0.063  -0.044  -0.005
  0.000   0.000  -0.406   0.000   0.000   0.118   0.000  -0.000  -0.026   0.011   0.000   0.000  -0.000
 -0.042   0.018   0.000  -0.487  -0.011  -0.000   0.141   0.006   0.000   0.000   0.075   0.004   0.000
  0.012  -0.005  -0.000  -0.011  -0.399   0.000   0.006   0.115   0.000   0.000   0.017   0.012   0.002
  0.000  -0.000   0.099   0.000   0.000  -0.026   0.000  -0.000   0.079   0.000   0.000   0.000   0.000
  0.000   0.000  -0.042   0.000  -0.000   0.011  -0.000   0.000   0.000   0.021   0.000   0.000   0.000
  0.024  -0.002  -0.000  -0.269  -0.063   0.000   0.075   0.017   0.000   0.000   0.079   0.005   0.001
  0.002   0.001   0.000  -0.014  -0.044   0.000   0.004   0.012   0.000   0.000   0.005   0.022   0.000
  0.000  -0.000   0.000  -0.000  -0.005   0.000   0.000   0.002   0.000   0.000   0.001   0.000   0.017


------------------------ aborting loop because EDIFF is reached ----------------------------------------


    CHARGE:  cpu time    0.1685: real time    0.1687
    FORLOC:  cpu time    0.0019: real time    0.0019
    FORNL :  cpu time    0.1974: real time    0.1977
    STRESS:  cpu time    0.3622: real time    0.3627
    FORCOR:  cpu time    0.0394: real time    0.0394
    FORHAR:  cpu time    0.0101: real time    0.0102
    MIXING:  cpu time    0.0009: real time    0.0009
    OFIELD:  cpu time    0.0000: real time    0.0000

  FORCE on cell =-STRESS in cart. coord.  units (eV):
  Direction    XX          YY          ZZ          XY          YZ          ZX
  --------------------------------------------------------------------------------------
  Alpha Z     9.60022     9.60022     9.60022
  Ewald    1623.47923  1626.49231 -2083.07793     0.00000    -0.00000     0.00000
  Hartree  1743.10180  1744.09120 -1696.90544    -0.00000    -0.00000     0.00000
  E(xc)     -77.70090   -77.70671   -78.93885    -0.00000    -0.00000     0.00000
  Local   -3619.35104 -3622.96659  3525.08147     0.00000     0.00000     0.00000
  n-local   162.61589   162.74221   167.27716    -0.48161    -0.00000     0.00000
  augment   -31.87615   -31.83383   -32.80388    -0.00000     0.00000     0.00000
  Kinetic   190.39211   189.79601   189.76585     5.67845    -0.00000    -0.00000
  Fock        0.00000     0.00000     0.00000     0.00000     0.00000     0.00000
  -------------------------------------------------------------------------------------
  Total       0.26116     0.21482    -0.00139     0.00000     0.00000     0.00000
  in kB       1.12339     0.92407    -0.00599     0.00000     0.00000     0.00000
  external pressure =        0.68 kB  Pullay stress =        0.00 kB


 VOLUME and BASIS-vectors are now :
 -----------------------------------------------------------------------------
  energy-cutoff  :      600.00
  volume of cell :      372.46
      direct lattice vectors                 reciprocal lattice vectors
     4.338533197  0.000000000  0.000000000     0.230492647  0.000000000  0.000000000
     0.000000000  4.292477857  0.000000000     0.000000000  0.232965675  0.000000000
     0.000000000  0.000000000 20.000000000     0.000000000  0.000000000  0.050000000

  length of vectors
     4.338533197  4.292477857 20.000000000     0.230492647  0.232965675  0.050000000


 FORCES acting on ions
    electron-ion (+dipol)            ewald-force                    non-local-force                 convergence-correction
 -----------------------------------------------------------------------------------------------
   0.329E+01 -.207E-13 -.145E+03   -.449E+01 -.189E-14 0.149E+03   0.119E+01 0.000E+00 -.379E+01   -.237E-03 -.216E-13 -.248E-03
   0.329E+01 0.298E-13 0.145E+03   -.449E+01 0.234E-14 -.149E+03   0.119E+01 0.000E+00 0.379E+01   -.237E-03 0.134E-13 0.248E-03
   -.415E+01 -.393E-13 -.209E+03   0.449E+01 0.130E-14 0.211E+03   -.346E+00 0.000E+00 -.203E+01   0.386E-02 0.313E-13 -.149E-03
   -.415E+01 -.111E-12 0.209E+03   0.449E+01 -.701E-15 -.211E+03   -.346E+00 0.000E+00 0.203E+01   0.386E-02 -.491E-13 0.149E-03
 -----------------------------------------------------------------------------------------------
   -.170E+01 -.142E-12 0.221E-06   0.266E-14 0.106E-14 0.000E+00   0.170E+01 0.000E+00 -.444E-15   0.725E-02 -.261E-13 -.137E-09
 
 
 POSITION                                       TOTAL-FORCE (eV/Angst)
 -----------------------------------------------------------------------------------
      2.49929      3.21936     11.37330         0.000195      0.000000     -0.000133
      0.33002      1.07312      8.62670         0.000195      0.000000      0.000133
      0.16502      1.07312     11.34639        -0.000195     -0.000000     -0.000052
      2.33429      3.21936      8.65361        -0.000195      0.000000      0.000052
 -----------------------------------------------------------------------------------
    total drift:                                0.000333     -0.000000      0.000000


--------------------------------------------------------------------------------------------------------



  FREE ENERGIE OF THE ION-ELECTRON SYSTEM (eV)
  ---------------------------------------------------
  free  energy   TOTEN  =       -16.26311477 eV

  energy  without entropy=      -16.26311477  energy(sigma->0) =      -16.26311477
 
 d Force = 0.2288599E-05[ 0.658E-06, 0.392E-05]  d Energy = 0.2439859E-05-0.151E-06
 d Force = 0.4712540E-02[ 0.463E-02, 0.480E-02]  d Ewald  = 0.4712537E-02 0.262E-08


--------------------------------------------------------------------------------------------------------


    POTLOK:  cpu time    0.0411: real time    0.0411


--------------------------------------------------------------------------------------------------------




--------------------------------------------------------------------------------------------------------


  
 reached required accuracy - stopping structural energy minimisation
 writing wavefunctions
     LOOP+:  cpu time    6.1203: real time    6.7228
    4ORBIT:  cpu time    0.0000: real time    0.0000

 total amount of memory used by VASP MPI-rank0    51658. kBytes
=======================================================================

   base      :      30000. kBytes
   nonl-proj :       6968. kBytes
   fftplans  :       2678. kBytes
   grid      :       4349. kBytes
   one-center:          8. kBytes
   wavefun   :       7655. kBytes
 
  
  
 General timing and accounting informations for this job:
 ========================================================
  
                  Total CPU time used (sec):      172.609
                            User time (sec):      171.873
                          System time (sec):        0.736
                         Elapsed time (sec):      183.363
  
                   Maximum memory used (kb):      199340.
                   Average memory used (kb):           0.
  
                          Minor page faults:       104967
                          Major page faults:          119
                 Voluntary context switches:         7988
