
     Program PWSCF v.6.6 starts on  6Mar2023 at 16:29:42 

     This program is part of the open-source Quantum ESPRESSO suite
     for quantum simulation of materials; please cite
         "P. Giannozzi et al., J. Phys.:Condens. Matter 21 395502 (2009);
         "P. Giannozzi et al., J. Phys.:Condens. Matter 29 465901 (2017);
          URL http://www.quantum-espresso.org", 
     in publications or presentations arising from this work. More details at
     http://www.quantum-espresso.org/quote

     Parallel version (MPI), running on    24 processors

     MPI processes distributed on     1 nodes
     R & G space division:  proc/nbgrp/npool/nimage =      24
     Fft bands division:     nmany     =       1
     Reading input from INCAR-scf.pw

     Current dimensions of program PWSCF are:
     Max number of different atomic species (ntypx) = 10
     Max number of k-points (npk) =  40000
     Max angular momentum in pseudopotentials (lmaxx) =  3

     Subspace diagonalization in iterative solution of the eigenvalue problem:
     a serial algorithm will be used

 
     Parallelization info
     --------------------
     sticks:   dense  smooth     PW     G-vecs:    dense   smooth      PW
     Min         423     271     74                19922    10195    1447
     Max         425     272     76                19926    10197    1448
     Sum       10179    6519   1779               478197   244711   34751
 


     bravais-lattice index     =            0
     lattice parameter (alat)  =      12.1557  a.u.
     unit-cell volume          =    2532.0349 (a.u.)^3
     number of atoms/cell      =           32
     number of atomic types    =            3
     number of electrons       =       128.00
     number of Kohn-Sham states=           77
     kinetic-energy cutoff     =      80.0000  Ry
     charge density cutoff     =     500.0000  Ry
     convergence threshold     =      1.0E-10
     mixing beta               =       0.7000
     number of iterations used =            8  plain     mixing
     Exchange-correlation= LDA
                           (   1   1   0   0   0   0   0)

     celldm(1)=  12.155663  celldm(2)=   0.000000  celldm(3)=   0.000000
     celldm(4)=   0.000000  celldm(5)=   0.000000  celldm(6)=   0.000000

     crystal axes: (cart. coord. in units of alat)
               a(1) = (   1.000000   0.000000   0.000000 )  
               a(2) = (   0.000000   1.732079   0.000000 )  
               a(3) = (   0.000000   0.000000   0.813890 )  

     reciprocal axes: (cart. coord. in units 2 pi/alat)
               b(1) = (  1.000000  0.000000  0.000000 )  
               b(2) = (  0.000000  0.577341  0.000000 )  
               b(3) = (  0.000000  0.000000  1.228667 )  


     PseudoPot. # 1 for Al read from file:
     ./Al.pz-n-rrkjus_psl.0.1.UPF
     MD5 check sum: 3b788946f5b2ec323a58a29a5ff2368a
     Pseudo is Ultrasoft + core correction, Zval =  3.0
     Generated using "atomic" code by A. Dal Corso v.5.0.2 svn rev. 9415
     Using radial grid of 1135 points,  4 beta functions with: 
                l(1) =   0
                l(2) =   0
                l(3) =   1
                l(4) =   1
     Q(r) pseudized with 0 coefficients 


     PseudoPot. # 2 for N  read from file:
     ./N.pz-n-rrkjus_psl.0.1.UPF
     MD5 check sum: 5663b752f1eef59ba9d503062cb6a42c
     Pseudo is Ultrasoft + core correction, Zval =  5.0
     Generated using "atomic" code by A. Dal Corso v.5.0.2 svn rev. 9415
     Using radial grid of 1085 points,  4 beta functions with: 
                l(1) =   0
                l(2) =   0
                l(3) =   1
                l(4) =   1
     Q(r) pseudized with 0 coefficients 


     PseudoPot. # 3 for B  read from file:
     ./B.pz-n-rrkjus_psl.0.1.UPF
     MD5 check sum: afbcbde2cf54223ea3a4e9251853ad92
     Pseudo is Ultrasoft + core correction, Zval =  3.0
     Generated using "atomic" code by A. Dal Corso v.5.0.2 svn rev. 9415
     Using radial grid of 1059 points,  4 beta functions with: 
                l(1) =   0
                l(2) =   0
                l(3) =   1
                l(4) =   1
     Q(r) pseudized with 0 coefficients 


     atomic species   valence    mass     pseudopotential
        Al             3.00    26.98154     Al( 1.00)
        N              5.00    14.00674     N ( 1.00)
        B              3.00    10.81100     B ( 1.00)

     No symmetry found



   Cartesian axes

     site n.     atom                  positions (alat units)
         1           Al  tau(   1) = (   0.1316730   0.2712142   0.4402537  )
         2           N   tau(   2) = (   0.1316730   0.2712142   0.7464490  )
         3           Al  tau(   3) = (   0.1316730   0.5598929   0.0329504  )
         4           N   tau(   4) = (   0.1316730   0.5598929   0.3398619  )
         5           Al  tau(   5) = (   0.3816730   0.7042323   0.4402537  )
         6           N   tau(   6) = (   0.3816730   0.7042323   0.7464490  )
         7           Al  tau(   7) = (   0.3816730   0.9929110   0.0329504  )
         8           N   tau(   8) = (   0.3816730   0.9929110   0.3398619  )
         9           Al  tau(   9) = (   0.1316730   1.1372503   0.4402537  )
        10           N   tau(  10) = (   0.1316730   1.1372503   0.7464490  )
        11           Al  tau(  11) = (   0.1316730   1.4259291   0.0329504  )
        12           N   tau(  12) = (   0.1316730   1.4259291   0.3398619  )
        13           Al  tau(  13) = (   0.3816730   1.5702684   0.4402537  )
        14           N   tau(  14) = (   0.3816730   1.5702684   0.7464490  )
        15           Al  tau(  15) = (   0.3816730   0.1268748   0.0329504  )
        16           N   tau(  16) = (   0.3816730   0.1268748   0.3398619  )
        17           Al  tau(  17) = (   0.6316730   0.2712142   0.4402537  )
        18           N   tau(  18) = (   0.6316730   0.2712142   0.7464490  )
        19           Al  tau(  19) = (   0.6316730   0.5598929   0.0329504  )
        20           N   tau(  20) = (   0.6316730   0.5598929   0.3398619  )
        21           B   tau(  21) = (   0.8816730   0.7042323   0.4402537  )
        22           N   tau(  22) = (   0.8816730   0.7042323   0.7464490  )
        23           Al  tau(  23) = (   0.8816730   0.9929110   0.0329504  )
        24           N   tau(  24) = (   0.8816730   0.9929110   0.3398619  )
        25           B   tau(  25) = (   0.6316730   1.1372503   0.4402537  )
        26           N   tau(  26) = (   0.6316730   1.1372503   0.7464490  )
        27           B   tau(  27) = (   0.6316730   1.4259291   0.0329504  )
        28           N   tau(  28) = (   0.6316730   1.4259291   0.3398619  )
        29           B   tau(  29) = (   0.8816730   1.5702684   0.4402537  )
        30           N   tau(  30) = (   0.8816730   1.5702684   0.7464490  )
        31           Al  tau(  31) = (   0.8816730   0.1268748   0.0329504  )
        32           N   tau(  32) = (   0.8816730   0.1268748   0.3398619  )

     number of k points=    46  Gaussian smearing, width (Ry)=  0.0100
                       cart. coord. in units 2pi/alat
        k(    1) = (   0.0000000   0.0000000   0.0000000), wk =   0.0222222
        k(    2) = (   0.0000000   0.0000000   0.2047778), wk =   0.0444444
        k(    3) = (   0.0000000   0.0000000   0.4095556), wk =   0.0444444
        k(    4) = (   0.0000000   0.0000000  -0.6143333), wk =   0.0222222
        k(    5) = (   0.0000000   0.1924469   0.0000000), wk =   0.0444444
        k(    6) = (   0.0000000   0.1924469   0.2047778), wk =   0.0444444
        k(    7) = (   0.0000000   0.1924469   0.4095556), wk =   0.0444444
        k(    8) = (   0.0000000   0.1924469  -0.6143333), wk =   0.0444444
        k(    9) = (   0.2000000   0.0000000   0.0000000), wk =   0.0444444
        k(   10) = (   0.2000000   0.0000000   0.2047778), wk =   0.0444444
        k(   11) = (   0.2000000   0.0000000   0.4095556), wk =   0.0444444
        k(   12) = (   0.2000000   0.0000000  -0.6143333), wk =   0.0444444
        k(   13) = (   0.2000000   0.1924469   0.0000000), wk =   0.0444444
        k(   14) = (   0.2000000   0.1924469   0.2047778), wk =   0.0444444
        k(   15) = (   0.2000000   0.1924469   0.4095556), wk =   0.0444444
        k(   16) = (   0.2000000   0.1924469  -0.6143333), wk =   0.0444444
        k(   17) = (   0.4000000   0.0000000   0.0000000), wk =   0.0444444
        k(   18) = (   0.4000000   0.0000000   0.2047778), wk =   0.0444444
        k(   19) = (   0.4000000   0.0000000   0.4095556), wk =   0.0444444
        k(   20) = (   0.4000000   0.0000000  -0.6143333), wk =   0.0444444
        k(   21) = (   0.4000000   0.1924469   0.0000000), wk =   0.0444444
        k(   22) = (   0.4000000   0.1924469   0.2047778), wk =   0.0444444
        k(   23) = (   0.4000000   0.1924469   0.4095556), wk =   0.0444444
        k(   24) = (   0.4000000   0.1924469  -0.6143333), wk =   0.0444444
        k(   25) = (   0.0000000  -0.1924469   0.2047778), wk =   0.0444444
        k(   26) = (   0.0000000  -0.1924469   0.4095556), wk =   0.0444444
        k(   27) = (  -0.2000000   0.0000000   0.2047778), wk =   0.0444444
        k(   28) = (  -0.2000000   0.0000000   0.4095556), wk =   0.0444444
        k(   29) = (  -0.2000000   0.1924469   0.0000000), wk =   0.0444444
        k(   30) = (  -0.2000000  -0.1924469   0.2047778), wk =   0.0444444
        k(   31) = (  -0.2000000   0.1924469  -0.2047778), wk =   0.0444444
        k(   32) = (   0.2000000  -0.1924469  -0.2047778), wk =   0.0444444
        k(   33) = (  -0.2000000  -0.1924469   0.4095556), wk =   0.0444444
        k(   34) = (  -0.2000000   0.1924469  -0.4095556), wk =   0.0444444
        k(   35) = (   0.2000000  -0.1924469  -0.4095556), wk =   0.0444444
        k(   36) = (  -0.2000000   0.1924469   0.6143333), wk =   0.0444444
        k(   37) = (  -0.4000000   0.0000000   0.2047778), wk =   0.0444444
        k(   38) = (  -0.4000000   0.0000000   0.4095556), wk =   0.0444444
        k(   39) = (  -0.4000000   0.1924469   0.0000000), wk =   0.0444444
        k(   40) = (  -0.4000000  -0.1924469   0.2047778), wk =   0.0444444
        k(   41) = (  -0.4000000   0.1924469  -0.2047778), wk =   0.0444444
        k(   42) = (   0.4000000  -0.1924469  -0.2047778), wk =   0.0444444
        k(   43) = (  -0.4000000  -0.1924469   0.4095556), wk =   0.0444444
        k(   44) = (  -0.4000000   0.1924469  -0.4095556), wk =   0.0444444
        k(   45) = (   0.4000000  -0.1924469  -0.4095556), wk =   0.0444444
        k(   46) = (  -0.4000000   0.1924469   0.6143333), wk =   0.0444444

     Dense  grid:   478197 G-vectors     FFT dimensions: (  90, 150,  72)

     Smooth grid:   244711 G-vectors     FFT dimensions: (  72, 120,  60)

     Estimated max dynamical RAM per process >     107.01 MB

     Estimated total dynamical RAM >       2.51 GB

     Check: negative core charge=   -0.000004

     Initial potential from superposition of free atoms

     starting charge  127.97455, renormalised to  128.00000
     Starting wfcs are  128 randomized atomic wfcs

     total cpu time spent up to now is       13.3 secs

     Self-consistent Calculation

     iteration #  1     ecut=    80.00 Ry     beta= 0.70
     Davidson diagonalization with overlap
     ethr =  1.00E-02,  avg # of iterations =  2.2

     total cpu time spent up to now is       38.2 secs

     total energy              =    -412.31589155 Ry
     estimated scf accuracy    <       8.21523337 Ry

     iteration #  2     ecut=    80.00 Ry     beta= 0.70
     Davidson diagonalization with overlap
     ethr =  6.42E-03,  avg # of iterations =  3.4

     total cpu time spent up to now is       71.4 secs

     total energy              =    -414.80205408 Ry
     estimated scf accuracy    <       8.59862628 Ry

     iteration #  3     ecut=    80.00 Ry     beta= 0.70
     Davidson diagonalization with overlap
     ethr =  6.42E-03,  avg # of iterations =  1.9

     total cpu time spent up to now is       92.2 secs

     total energy              =    -415.80483440 Ry
     estimated scf accuracy    <       0.79063680 Ry

     iteration #  4     ecut=    80.00 Ry     beta= 0.70
     Davidson diagonalization with overlap
     ethr =  6.18E-04,  avg # of iterations =  3.2

     total cpu time spent up to now is      122.8 secs

     total energy              =    -416.20243908 Ry
     estimated scf accuracy    <       0.03909429 Ry

     iteration #  5     ecut=    80.00 Ry     beta= 0.70
     Davidson diagonalization with overlap
     c_bands:  1 eigenvalues not converged
     c_bands:  1 eigenvalues not converged
     c_bands:  1 eigenvalues not converged
     c_bands:  2 eigenvalues not converged
     c_bands:  1 eigenvalues not converged
     c_bands:  2 eigenvalues not converged
     c_bands:  1 eigenvalues not converged
     c_bands:  1 eigenvalues not converged
     c_bands:  1 eigenvalues not converged
     c_bands:  1 eigenvalues not converged
     c_bands:  1 eigenvalues not converged
     c_bands:  1 eigenvalues not converged
     c_bands:  1 eigenvalues not converged
     c_bands:  1 eigenvalues not converged
     c_bands:  1 eigenvalues not converged
     c_bands:  1 eigenvalues not converged
     c_bands:  2 eigenvalues not converged
     c_bands:  2 eigenvalues not converged
     c_bands:  2 eigenvalues not converged
     ethr =  3.05E-05,  avg # of iterations = 17.9

     total cpu time spent up to now is      190.6 secs

     total energy              =    -416.23726543 Ry
     estimated scf accuracy    <       0.13149123 Ry

     iteration #  6     ecut=    80.00 Ry     beta= 0.70
     Davidson diagonalization with overlap
     c_bands:  1 eigenvalues not converged
     ethr =  3.05E-05,  avg # of iterations =  6.3

     total cpu time spent up to now is      219.3 secs

     total energy              =    -416.23452248 Ry
     estimated scf accuracy    <       0.04324325 Ry

     iteration #  7     ecut=    80.00 Ry     beta= 0.70
     Davidson diagonalization with overlap
     ethr =  3.05E-05,  avg # of iterations =  1.2

     total cpu time spent up to now is      238.2 secs

     total energy              =    -416.23502638 Ry
     estimated scf accuracy    <       0.01218193 Ry

     iteration #  8     ecut=    80.00 Ry     beta= 0.70
     Davidson diagonalization with overlap
     c_bands:  1 eigenvalues not converged
     c_bands:  1 eigenvalues not converged
     c_bands:  1 eigenvalues not converged
     c_bands:  1 eigenvalues not converged
     ethr =  9.52E-06,  avg # of iterations = 11.0

     total cpu time spent up to now is      273.0 secs

     total energy              =    -416.23589248 Ry
     estimated scf accuracy    <       0.00373507 Ry

     iteration #  9     ecut=    80.00 Ry     beta= 0.70
     Davidson diagonalization with overlap
     c_bands:  1 eigenvalues not converged
     c_bands:  1 eigenvalues not converged
     c_bands:  1 eigenvalues not converged
     c_bands:  1 eigenvalues not converged
     c_bands:  1 eigenvalues not converged
     c_bands:  1 eigenvalues not converged
     c_bands:  1 eigenvalues not converged
     c_bands:  1 eigenvalues not converged
     c_bands:  1 eigenvalues not converged
     ethr =  2.92E-06,  avg # of iterations = 13.3

     total cpu time spent up to now is      314.9 secs

     total energy              =    -416.23692315 Ry
     estimated scf accuracy    <       0.00020875 Ry

     iteration # 10     ecut=    80.00 Ry     beta= 0.70
     Davidson diagonalization with overlap
     c_bands:  1 eigenvalues not converged
     ethr =  1.63E-07,  avg # of iterations =  6.0

     total cpu time spent up to now is      354.2 secs

     total energy              =    -416.23712297 Ry
     estimated scf accuracy    <       0.00004934 Ry

     iteration # 11     ecut=    80.00 Ry     beta= 0.70
     Davidson diagonalization with overlap
     ethr =  3.85E-08,  avg # of iterations =  2.3

     total cpu time spent up to now is      377.5 secs

     total energy              =    -416.23710662 Ry
     estimated scf accuracy    <       0.00004613 Ry

     iteration # 12     ecut=    80.00 Ry     beta= 0.70
     Davidson diagonalization with overlap
     ethr =  3.60E-08,  avg # of iterations =  2.0

     total cpu time spent up to now is      402.8 secs

     total energy              =    -416.23711604 Ry
     estimated scf accuracy    <       0.00000147 Ry

     iteration # 13     ecut=    80.00 Ry     beta= 0.70
     Davidson diagonalization with overlap
     ethr =  1.15E-09,  avg # of iterations =  6.5

     total cpu time spent up to now is      450.0 secs

     total energy              =    -416.23711791 Ry
     estimated scf accuracy    <       0.00000406 Ry

     iteration # 14     ecut=    80.00 Ry     beta= 0.70
     Davidson diagonalization with overlap
     ethr =  1.15E-09,  avg # of iterations =  1.6

     total cpu time spent up to now is      469.5 secs

     total energy              =    -416.23711691 Ry
     estimated scf accuracy    <       0.00000316 Ry

     iteration # 15     ecut=    80.00 Ry     beta= 0.70
     Davidson diagonalization with overlap
     ethr =  1.15E-09,  avg # of iterations =  2.0

     total cpu time spent up to now is      493.7 secs

     total energy              =    -416.23711703 Ry
     estimated scf accuracy    <       0.00000067 Ry

     iteration # 16     ecut=    80.00 Ry     beta= 0.70
     Davidson diagonalization with overlap
     ethr =  5.22E-10,  avg # of iterations =  1.4

     total cpu time spent up to now is      512.8 secs

     total energy              =    -416.23711697 Ry
     estimated scf accuracy    <       0.00000026 Ry

     iteration # 17     ecut=    80.00 Ry     beta= 0.70
     Davidson diagonalization with overlap
     ethr =  2.07E-10,  avg # of iterations =  4.0

     total cpu time spent up to now is      541.9 secs

     total energy              =    -416.23711706 Ry
     estimated scf accuracy    <          7.4E-09 Ry

     iteration # 18     ecut=    80.00 Ry     beta= 0.70
     Davidson diagonalization with overlap
     ethr =  5.78E-12,  avg # of iterations =  7.2

     total cpu time spent up to now is      594.9 secs

     total energy              =    -416.23711707 Ry
     estimated scf accuracy    <       0.00000001 Ry

     iteration # 19     ecut=    80.00 Ry     beta= 0.70
     Davidson diagonalization with overlap
     ethr =  5.78E-12,  avg # of iterations =  1.5

     total cpu time spent up to now is      614.4 secs

     total energy              =    -416.23711707 Ry
     estimated scf accuracy    <          4.7E-09 Ry

     iteration # 20     ecut=    80.00 Ry     beta= 0.70
     Davidson diagonalization with overlap
     ethr =  3.69E-12,  avg # of iterations =  2.0

     total cpu time spent up to now is      638.4 secs

     total energy              =    -416.23711707 Ry
     estimated scf accuracy    <          5.6E-10 Ry

     iteration # 21     ecut=    80.00 Ry     beta= 0.70
     Davidson diagonalization with overlap
     ethr =  4.38E-13,  avg # of iterations =  6.0

     total cpu time spent up to now is      681.2 secs

     total energy              =    -416.23711707 Ry
     estimated scf accuracy    <          1.5E-09 Ry

     iteration # 22     ecut=    80.00 Ry     beta= 0.70
     Davidson diagonalization with overlap
     ethr =  4.38E-13,  avg # of iterations =  2.0

     total cpu time spent up to now is      705.1 secs

     total energy              =    -416.23711707 Ry
     estimated scf accuracy    <          2.6E-10 Ry

     iteration # 23     ecut=    80.00 Ry     beta= 0.70
     Davidson diagonalization with overlap
     ethr =  2.04E-13,  avg # of iterations =  4.9

     total cpu time spent up to now is      740.5 secs

     total energy              =    -416.23711707 Ry
     estimated scf accuracy    <          1.1E-10 Ry

     iteration # 24     ecut=    80.00 Ry     beta= 0.70
     Davidson diagonalization with overlap
     ethr =  1.00E-13,  avg # of iterations =  2.0

     total cpu time spent up to now is      761.7 secs

     End of self-consistent calculation

          k = 0.0000 0.0000 0.0000 ( 30625 PWs)   bands (ev):

    -9.4226  -8.7532  -8.7440  -7.8166  -7.7693  -7.6963  -7.6942  -7.6414
    -7.6223  -7.2792  -7.2491  -7.1434  -7.0800  -7.0674  -7.0164  -6.9613
    -0.9503  -0.6271  -0.5354  -0.3596   0.0081   0.0895   0.3268   0.5219
     0.6654   0.7281   0.8262   0.8815   1.0022   1.5085   1.5290   1.5661
     1.5984   1.6608   1.7123   1.7307   2.0250   2.0526   2.4552   2.5934
     2.8558   2.8673   2.8764   3.0521   3.1121   3.1344   3.2204   3.2918
     3.3747   3.4411   3.4490   3.5448   4.1282   4.1384   4.1779   4.2074
     4.2303   4.3987   4.4196   4.5245   4.5737   4.8434   4.8505   4.8677
     7.6984   8.8601   8.9530   9.2147   9.7452   9.8913  10.0551  10.1824
    10.2429  10.3105  10.3184  10.3593  10.6580

          k = 0.0000 0.0000 0.2048 ( 30624 PWs)   bands (ev):

    -9.3320  -8.6738  -8.6643  -7.7981  -7.7698  -7.7171  -7.6555  -7.6502
    -7.5978  -7.3986  -7.3711  -7.1850  -7.1150  -7.1089  -7.0641  -7.0064
    -0.7836  -0.7064  -0.6390  -0.3399   0.0211   0.1445   0.1663   0.3588
     0.4654   0.5506   0.6581   0.6728   0.7465   1.6192   1.6859   1.8073
     1.9090   1.9480   1.9959   2.0531   2.1518   2.1654   2.3561   2.4025
     2.8979   2.9168   2.9483   3.0358   3.0834   3.3418   3.4254   3.4645
     3.4877   3.5587   3.6942   3.7326   4.0828   4.1124   4.1303   4.1649
     4.1775   4.2081   4.3451   4.3819   4.4402   4.4978   4.7942   4.8157
     8.1287   8.8000   8.9211   9.0759   9.5463   9.7329   9.8546   9.9151
    10.0226  10.3122  10.4160  10.4497  10.7788

          k = 0.0000 0.0000 0.4096 ( 30622 PWs)   bands (ev):

    -9.0705  -8.4474  -8.4367  -8.1990  -7.7266  -7.7174  -7.6365  -7.5874
    -7.5374  -7.5118  -7.4728  -7.2986  -7.2180  -7.2141  -7.1902  -7.1286
    -0.8566  -0.7760  -0.7380  -0.2882  -0.0427  -0.0294   0.0241   0.2434
     0.3747   0.4606   0.5412   0.5661   0.6488   1.4742   1.6512   1.8324
     1.8759   2.4155   2.5317   2.5539   2.5813   2.7167   2.7747   2.7869
     2.9321   3.0559   3.0915   3.1530   3.1593   3.2020   3.5364   3.6837
     3.6993   3.7420   3.7621   3.8489   3.8683   3.8968   3.9540   4.0122
     4.0220   4.0739   4.1754   4.2538   4.3005   4.3659   4.6603   4.6812
     8.5706   8.6494   8.7876   8.9075   9.4820   9.5590   9.6442   9.8543
    10.0204  10.2589  10.3713  10.6011  10.7203

          k = 0.0000 0.0000-0.6143 ( 30544 PWs)   bands (ev):

    -8.7023  -8.6367  -8.1353  -8.1249  -8.0759  -8.0612  -7.4869  -7.4593
    -7.4524  -7.4063  -7.3888  -7.3658  -7.3479  -7.3169  -7.3004  -7.2671
    -0.9073  -0.8067  -0.6800  -0.5147  -0.2186  -0.1952  -0.0097   0.1471
     0.1831   0.4093   0.8727   1.0283   1.0749   1.2189   1.5230   1.7271
     2.0377   2.0843   2.2132   2.2765   3.0847   3.1767   3.2015   3.2928
     3.3019   3.3367   3.3882   3.4155   3.4653   3.4808   3.4922   3.5000
     3.5402   3.6192   3.6369   3.6699   3.7159   3.7921   3.8254   3.8461
     3.8824   3.9543   3.9911   4.0726   4.4258   4.4468   4.5249   4.5502
     8.7261   8.7735   8.8087   8.8783   9.3546   9.3627   9.6080   9.9331
    10.0281  10.2655  10.3378  10.4523  10.5561

          k = 0.0000 0.1924 0.0000 ( 30572 PWs)   bands (ev):

    -9.3500  -9.0965  -8.3176  -7.9005  -7.8106  -7.7516  -7.7133  -7.6495
    -7.5853  -7.4258  -7.1448  -7.1166  -7.0637  -7.0489  -7.0210  -6.9621
    -0.8860  -0.6752  -0.4744  -0.2185  -0.1238   0.1319   0.2379   0.3687
     0.6932   0.8213   0.8498   0.9129   1.0494   1.1491   1.3882   1.5093
     1.5836   1.6234   1.6389   1.7671   2.1402   2.1685   2.6030   2.6266
     2.7675   2.9288   3.0764   3.1924   3.2397   3.3380   3.3570   3.3839
     3.4576   3.5316   3.5905   3.7330   3.7533   3.9122   3.9893   4.0293
     4.0931   4.2680   4.3881   4.3921   4.6428   4.6995   4.8178   4.8434
     8.1027   8.7445   9.0975   9.2461   9.6468  10.0350  10.1093  10.2362
    10.2939  10.3772  10.4642  10.5196  10.7333

          k = 0.0000 0.1924 0.2048 ( 30621 PWs)   bands (ev):

    -9.2605  -9.0105  -8.2490  -7.8489  -7.7656  -7.7548  -7.6997  -7.6673
    -7.6056  -7.5715  -7.2095  -7.1800  -7.1126  -7.0986  -7.0694  -7.0067
    -0.7506  -0.6505  -0.5601  -0.2224  -0.0726  -0.0037   0.1014   0.2058
     0.4553   0.5727   0.6645   0.7950   0.8927   1.1582   1.5804   1.7517
     1.8237   1.8878   1.9397   1.9960   2.2710   2.3536   2.7014   2.7343
     2.8203   3.0002   3.1445   3.1995   3.2788   3.3321   3.4414   3.4972
     3.6093   3.6339   3.7304   3.7761   3.8119   3.8965   3.9069   3.9836
     4.0658   4.0899   4.1707   4.3008   4.5289   4.6293   4.6634   4.7866
     8.4165   8.8003   9.0312   9.1192   9.6072   9.8536   9.8919   9.9547
    10.1361  10.1785  10.2995  10.6079  10.8672

          k = 0.0000 0.1924 0.4096 ( 30612 PWs)   bands (ev):

    -9.0023  -8.7630  -8.1492  -8.0524  -7.9513  -7.7032  -7.6370  -7.5777
    -7.5504  -7.4850  -7.4320  -7.2982  -7.2618  -7.2140  -7.1927  -7.1283
    -0.7982  -0.6952  -0.6511  -0.3032  -0.0834   0.0005   0.0561   0.2418
     0.2662   0.3725   0.4457   0.5248   0.6168   0.8511   2.0315   2.0971
     2.2476   2.3448   2.5208   2.5727   2.6441   2.7679   2.8493   2.8908
     3.0186   3.0924   3.1052   3.1275   3.2204   3.2764   3.3280   3.4769
     3.5134   3.8126   3.8206   3.8638   3.9030   3.9357   3.9694   3.9726
     4.0120   4.0362   4.0609   4.1599   4.2092   4.4485   4.4596   4.6369
     8.6972   8.7678   8.8850   9.0565   9.5565   9.7146   9.7436   9.9176
     9.9705  10.0570  10.2052  10.5406  10.6916

          k = 0.0000 0.1924-0.6143 ( 30608 PWs)   bands (ev):

    -8.6398  -8.5753  -8.4176  -8.3523  -7.8005  -7.7467  -7.5195  -7.4781
    -7.4727  -7.4401  -7.4366  -7.3853  -7.3684  -7.3229  -7.3067  -7.2733
    -0.8348  -0.7137  -0.6044  -0.4976  -0.1212  -0.0473  -0.0264   0.0467
     0.0793   0.2442   0.3630   0.5093   1.3663   1.5176   1.5541   1.7221
     2.3238   2.3704   2.4978   2.5634   2.8819   2.9231   3.0476   3.1032
     3.1797   3.3082   3.3230   3.3968   3.4799   3.5071   3.5516   3.5908
     3.6382   3.6644   3.7053   3.7349   3.7473   3.7788   3.8198   3.8338
     3.8509   3.8962   4.1327   4.1499   4.2409   4.2589   4.3781   4.4933
     8.8131   8.8623   8.9214   9.0237   9.4982   9.5392   9.7584   9.8643
     9.9992  10.1630  10.2851  10.3917  10.4925

          k = 0.2000 0.0000 0.0000 ( 30551 PWs)   bands (ev):

    -9.3378  -8.6802  -8.6710  -8.2447  -7.8506  -7.8423  -7.6437  -7.5764
    -7.3945  -7.2479  -7.2177  -7.1565  -7.0925  -7.0663  -7.0379  -6.9834
    -0.8530  -0.5010  -0.4225  -0.2121   0.1431   0.2012   0.3535   0.5552
     0.7109   0.8031   0.9095   1.0176   1.1951   1.3181   1.3776   1.4025
     1.4752   1.6774   1.7182   1.7548   2.1604   2.2128   2.2412   2.4850
     2.6985   2.7746   2.8311   2.8447   2.9037   3.1291   3.2643   3.3343
     3.4085   3.4598   3.6689   3.8051   3.8904   3.9268   4.0100   4.1174
     4.1683   4.2771   4.3256   4.3508   4.3767   4.4496   4.7987   4.8033
     8.1472   9.1223   9.2358   9.5081   9.7349  10.0054  10.0968  10.2448
    10.3188  10.4399  10.5733  10.7192  10.9061

          k = 0.2000 0.0000 0.2048 ( 30587 PWs)   bands (ev):

    -9.2484  -8.6023  -8.5929  -8.1782  -7.8011  -7.7913  -7.7389  -7.6053
    -7.3849  -7.3497  -7.3349  -7.2186  -7.1307  -7.1061  -7.0857  -7.0392
    -0.6893  -0.5834  -0.4992  -0.2223   0.1180   0.2159   0.2367   0.4872
     0.5251   0.6640   0.7194   0.7587   1.0948   1.1682   1.6145   1.7404
     1.7786   1.8302   1.9055   2.0170   2.1630   2.2142   2.4862   2.5770
     2.6352   2.7658   2.9011   2.9102   3.1882   3.2446   3.3591   3.4074
     3.5374   3.6212   3.6699   3.7906   3.8083   3.8759   4.0305   4.0605
     4.0913   4.1155   4.1955   4.2470   4.3654   4.3944   4.6808   4.7415
     8.4638   9.0136   9.1686   9.4130   9.7304   9.8722   9.9995  10.1456
    10.1842  10.2421  10.5732  10.6888  10.9228

          k = 0.2000 0.0000 0.4096 ( 30629 PWs)   bands (ev):

    -8.9905  -8.3805  -8.3699  -8.1351  -7.9901  -7.6959  -7.6812  -7.6374
    -7.6280  -7.4859  -7.4165  -7.3243  -7.2497  -7.2277  -7.1855  -7.1236
    -0.7522  -0.6457  -0.5688  -0.1907   0.0746   0.1411   0.1587   0.3394
     0.4707   0.5167   0.5955   0.6619   0.8739   1.1660   1.4245   1.5756
     2.0743   2.3860   2.4287   2.5028   2.5733   2.6447   2.6656   2.7151
     2.8595   3.0551   3.1072   3.1537   3.2395   3.3381   3.3787   3.4234
     3.4479   3.6266   3.7047   3.7831   3.8456   3.8926   3.9364   3.9484
     3.9799   4.0071   4.0953   4.1424   4.1888   4.2144   4.4719   4.5904
     8.7613   8.8874   9.0919   9.1983   9.6209   9.8212   9.9398  10.0529
    10.1804  10.3858  10.4977  10.7121  10.9153

          k = 0.2000 0.0000-0.6143 ( 30606 PWs)   bands (ev):

    -8.6283  -8.5634  -8.0764  -8.0659  -8.0179  -8.0034  -7.7445  -7.6919
    -7.4916  -7.4678  -7.4401  -7.4144  -7.3596  -7.3143  -7.2195  -7.1727
    -0.8092  -0.6389  -0.5442  -0.3638  -0.0673  -0.0310   0.0540   0.2584
     0.3914   0.6315   0.8431   0.9976   1.0452   1.1676   1.4553   1.5704
     1.6440   1.7263   2.6630   2.8268   2.8778   2.9607   3.0397   3.0790
     3.1869   3.2224   3.2738   3.3104   3.3401   3.4039   3.4717   3.5156
     3.5447   3.6012   3.6541   3.6795   3.7144   3.7562   3.7741   3.8177
     3.8325   3.8978   3.9203   3.9917   4.1595   4.2646   4.3361   4.4438
     8.9482   9.0071   9.0508   9.1426   9.5473   9.6067   9.8654  10.1226
    10.2775  10.4006  10.4539  10.6187  10.6703

          k = 0.2000 0.1924 0.0000 ( 30552 PWs)   bands (ev):

    -9.2665  -9.0169  -8.2545  -8.2017  -8.0359  -7.8439  -7.6368  -7.5458
    -7.4548  -7.3834  -7.1578  -7.1111  -7.0806  -7.0545  -7.0190  -6.9813
    -0.7875  -0.5894  -0.3544  -0.0637   0.0160   0.1584   0.3764   0.5562
     0.7337   0.8707   0.9169   0.9684   1.0549   1.1405   1.2975   1.4299
     1.5102   1.5929   1.6422   1.7609   2.0810   2.2815   2.5627   2.6164
     2.7638   2.8136   2.9434   2.9785   3.0161   3.0915   3.1809   3.3441
     3.4308   3.6117   3.6663   3.7781   3.8191   3.8747   3.9488   3.9665
     4.0228   4.0720   4.1602   4.2766   4.5621   4.5954   4.7654   4.7743
     8.4295   8.9710   9.3553   9.4999   9.8142   9.8423  10.1630  10.2628
    10.3583  10.5738  10.5999  10.7509  10.9189

          k = 0.2000 0.1924 0.2048 ( 30597 PWs)   bands (ev):

    -9.1782  -8.9322  -8.1878  -8.1369  -7.9761  -7.7946  -7.6989  -7.5982
    -7.5272  -7.4283  -7.2196  -7.1862  -7.1308  -7.1071  -7.0726  -7.0358
    -0.6588  -0.5564  -0.4266  -0.0861   0.0075   0.0533   0.2131   0.3582
     0.5218   0.6585   0.8331   0.9102   1.0544   1.1345   1.4209   1.5529
     1.7127   1.7637   1.8680   1.9527   2.4586   2.5372   2.6301   2.6740
     2.7835   2.8268   2.8918   2.9298   3.0517   3.2916   3.3494   3.4120
     3.5707   3.5986   3.6559   3.7300   3.7708   3.8473   3.8997   3.9413
     4.0116   4.0658   4.1290   4.1957   4.4772   4.5246   4.6196   4.7067
     8.6530   9.0159   9.2486   9.4232   9.6503   9.8996  10.0145  10.1141
    10.2705  10.3352  10.5150  10.7921  10.9898

          k = 0.2000 0.1924 0.4096 ( 30622 PWs)   bands (ev):

    -8.9237  -8.6887  -8.0872  -7.9970  -7.9552  -7.8947  -7.8062  -7.6549
    -7.4900  -7.4150  -7.4081  -7.3579  -7.3008  -7.2382  -7.1811  -7.1273
    -0.7116  -0.5871  -0.4835  -0.2162   0.0496   0.1304   0.1670   0.3249
     0.4090   0.4687   0.5570   0.6605   0.7504   0.8446   1.5402   2.0824
     2.2666   2.3417   2.4110   2.4374   2.4804   2.5838   2.6822   2.8957
     2.9575   3.0004   3.0690   3.1545   3.2042   3.2602   3.3420   3.3953
     3.5063   3.6041   3.6594   3.7320   3.8205   3.8547   3.9018   3.9646
     3.9974   4.0802   4.0946   4.1044   4.2202   4.2931   4.3505   4.5416
     8.8776   9.0113   9.0797   9.2900   9.6149   9.8703   9.9811  10.1114
    10.1942  10.2436  10.3826  10.6850  10.8242

          k = 0.2000 0.1924-0.6143 ( 30602 PWs)   bands (ev):

    -8.5675  -8.5037  -8.3499  -8.2854  -7.7624  -7.7120  -7.7075  -7.6627
    -7.5906  -7.5318  -7.4630  -7.4143  -7.3672  -7.3204  -7.2439  -7.1953
    -0.7608  -0.5654  -0.4873  -0.3532   0.0118   0.0553   0.0980   0.1832
     0.2854   0.3950   0.4798   0.5601   1.3168   1.4784   1.5115   1.6837
     1.8527   2.0166   2.5217   2.6810   2.7982   2.9381   2.9847   3.0043
     3.0891   3.1409   3.2674   3.3556   3.4046   3.4630   3.5141   3.5378
     3.5752   3.6399   3.6670   3.7011   3.7271   3.7671   3.7963   3.8493
     3.8678   3.9374   3.9666   4.0094   4.0379   4.1579   4.2766   4.3934
     8.9866   9.0609   9.1416   9.2502   9.6481   9.7397   9.9629  10.0835
    10.1880  10.2529  10.4537  10.5269  10.6433

          k = 0.4000 0.0000 0.0000 ( 30540 PWs)   bands (ev):

    -9.0931  -8.7061  -8.4739  -8.4642  -8.1641  -8.1556  -7.5024  -7.4487
    -7.2935  -7.2493  -7.2116  -7.1574  -7.1387  -7.0735  -7.0291  -7.0225
    -0.6067  -0.2993  -0.1740   0.0561   0.2441   0.4555   0.5444   0.5888
     0.7243   0.8333   0.9408   1.0858   1.1726   1.2928   1.3918   1.4858
     1.5958   1.6660   1.7495   1.7768   1.8955   2.0397   2.1047   2.3910
     2.6172   2.6986   2.7485   2.8014   2.8655   3.0022   3.0884   3.1150
     3.1754   3.2288   3.3874   3.7780   3.8384   3.8703   3.9790   4.0458
     4.0634   4.0989   4.1767   4.2225   4.2556   4.3729   4.6100   4.6512
     8.9293   9.5108   9.5654   9.7546   9.8698   9.9947  10.1291  10.3868
    10.5025  10.7010  10.8598  11.0412  11.1945

          k = 0.4000 0.0000 0.2048 ( 30578 PWs)   bands (ev):

    -9.0074  -8.6276  -8.4008  -8.3909  -8.1000  -8.0912  -7.5951  -7.4770
    -7.3716  -7.2896  -7.2760  -7.2411  -7.1980  -7.1237  -7.1116  -7.0683
    -0.4751  -0.3596  -0.2237   0.0565   0.2110   0.3809   0.4294   0.5233
     0.6737   0.7528   0.8758   0.9928   1.0888   1.3901   1.4711   1.5564
     1.6379   1.7377   1.8629   1.8998   1.9706   2.1382   2.4282   2.5168
     2.7390   2.7781   2.8305   2.8929   2.9643   3.0264   3.0325   3.0571
     3.1467   3.3081   3.4040   3.7652   3.8000   3.8548   3.9287   3.9574
     4.0343   4.0897   4.1574   4.2409   4.2799   4.3905   4.5276   4.5573
     9.0390   9.4263   9.5726   9.7519   9.8961  10.0283  10.1481  10.3443
    10.4182  10.6407  10.7574  11.0179  11.1205

          k = 0.4000 0.0000 0.4096 ( 30588 PWs)   bands (ev):

    -8.7611  -8.4035  -8.1939  -8.1827  -7.9572  -7.9189  -7.9105  -7.6901
    -7.5445  -7.5368  -7.3772  -7.3706  -7.3560  -7.2174  -7.1832  -7.1242
    -0.5459  -0.3651  -0.2374  -0.0167   0.3065   0.3715   0.4538   0.5046
     0.5954   0.6522   0.6908   0.7859   1.0387   1.1417   1.2382   1.5362
     1.7158   1.9919   2.3268   2.3427   2.4073   2.5077   2.5597   2.6046
     2.6895   2.9192   2.9619   3.0351   3.1005   3.1658   3.3051   3.3216
     3.5123   3.5233   3.6025   3.6419   3.6897   3.7391   3.7968   3.8923
     3.9163   4.0255   4.0697   4.1148   4.1558   4.1904   4.2335   4.3545
     9.1324   9.3610   9.5587   9.6323   9.9082  10.1265  10.2325  10.3670
    10.5185  10.6593  10.7885  10.8691  10.9550

          k = 0.4000 0.0000-0.6143 ( 30602 PWs)   bands (ev):

    -8.4178  -8.3563  -8.0988  -8.0364  -7.9132  -7.9039  -7.8615  -7.8455
    -7.6829  -7.6696  -7.6226  -7.6096  -7.2871  -7.2448  -7.1981  -7.1521
    -0.6271  -0.2889  -0.2722  -0.1035   0.2263   0.2753   0.3907   0.4520
     0.6938   0.7229   0.8048   0.9186   0.9951   1.1638   1.3788   1.4498
     1.5491   1.5934   1.9761   2.1489   2.8870   2.9106   2.9866   3.0575
     3.1039   3.1214   3.1503   3.2181   3.2415   3.3274   3.4068   3.4353
     3.5599   3.5970   3.6103   3.6657   3.6700   3.6861   3.7205   3.7533
     3.7595   3.8178   3.8491   3.9319   3.9649   4.0152   4.0665   4.1972
     9.3474   9.3920   9.4796   9.5719   9.8858  10.0535  10.3243  10.4676
    10.5242  10.5661  10.6443  10.8272  10.8707

          k = 0.4000 0.1924 0.0000 ( 30574 PWs)   bands (ev):

    -9.0260  -8.7888  -8.6469  -8.4362  -8.0763  -7.8256  -7.6952  -7.5083
    -7.4067  -7.2808  -7.2408  -7.1448  -7.0718  -7.0516  -7.0023  -6.9835
    -0.5552  -0.3544  -0.1577   0.1292   0.2376   0.3512   0.4877   0.6363
     0.7216   0.8806   0.9738   1.0604   1.1066   1.3135   1.3868   1.5071
     1.5534   1.6747   1.8072   1.9029   1.9622   2.0334   2.1677   2.2389
     2.4234   2.5236   2.5972   2.8891   3.0179   3.1471   3.1948   3.2621
     3.3034   3.3486   3.4343   3.4814   3.5383   3.6225   3.6809   3.8108
     4.1084   4.2944   4.3816   4.4008   4.4485   4.4878   4.6059   4.6655
     8.9956   9.3664   9.5228   9.6741   9.9125  10.0168  10.1530  10.2728
    10.4384  10.6472  10.7297  11.0735  11.2365

          k = 0.4000 0.1924 0.2048 ( 30571 PWs)   bands (ev):

    -8.9415  -8.7083  -8.5698  -8.3635  -8.0153  -7.7748  -7.6533  -7.5653
    -7.4581  -7.4069  -7.3539  -7.2408  -7.1361  -7.0953  -7.0570  -7.0320
    -0.4526  -0.3506  -0.2146   0.1526   0.1866   0.3194   0.4057   0.5072
     0.5653   0.7229   0.8082   0.9417   1.2281   1.3906   1.5293   1.6507
     1.7667   1.8776   1.9085   2.0038   2.1061   2.2067   2.2652   2.3698
     2.4229   2.5075   2.5577   2.7375   2.9697   3.0750   3.2042   3.2632
     3.3152   3.4182   3.4801   3.5359   3.6286   3.7089   3.7771   3.9793
     4.1299   4.2487   4.3000   4.3299   4.3763   4.4535   4.4894   4.5870
     9.0202   9.3833   9.4450   9.6535   9.9309  10.0707  10.2146  10.2727
    10.4759  10.6462  10.8171  10.9506  11.0648

          k = 0.4000 0.1924 0.4096 ( 30606 PWs)   bands (ev):

    -8.6991  -8.4776  -8.3502  -8.1575  -7.9141  -7.8441  -7.7396  -7.6581
    -7.6265  -7.5302  -7.5045  -7.3813  -7.3196  -7.2062  -7.1963  -7.1257
    -0.5132  -0.3832  -0.2216  -0.0029   0.2867   0.3589   0.4014   0.4740
     0.5411   0.6105   0.6992   0.7363   1.0557   1.3301   1.4262   1.7210
     1.8889   2.0678   2.1411   2.2451   2.2688   2.4335   2.4746   2.5536
     2.6846   2.7026   2.8423   2.9474   3.0547   3.1504   3.2183   3.3119
     3.4026   3.4774   3.5907   3.8200   3.8496   3.9058   3.9544   3.9964
     4.0130   4.0271   4.0771   4.1027   4.1486   4.1530   4.2460   4.3880
     9.1295   9.3723   9.4571   9.5538   9.8778  10.0292  10.2911  10.4346
    10.5074  10.6499  10.7040  10.8591  10.9894

          k = 0.4000 0.1924-0.6143 ( 30622 PWs)   bands (ev):

    -8.3627  -8.3024  -8.1599  -8.1002  -8.0523  -7.9909  -7.8817  -7.8210
    -7.6205  -7.5700  -7.4605  -7.4107  -7.3719  -7.3264  -7.2612  -7.2115
    -0.5893  -0.3446  -0.2690  -0.0779   0.2404   0.2639   0.3111   0.4799
     0.5852   0.6885   0.7694   0.9875   1.1235   1.2438   1.3805   1.4915
     1.6829   1.8443   2.1132   2.2686   2.3456   2.4946   2.5294   2.6930
     3.1093   3.1489   3.2121   3.2763   3.3298   3.3931   3.4298   3.5211
     3.5761   3.6117   3.6858   3.6994   3.7223   3.7852   3.8127   3.8314
     3.8564   3.8760   3.9154   3.9261   3.9757   4.0195   4.0777   4.2087
     9.3090   9.3681   9.4766   9.5476   9.8430  10.0850  10.1947  10.3800
    10.4937  10.6148  10.7250  10.7881  10.8731

          k = 0.0000-0.1924 0.2048 ( 30621 PWs)   bands (ev):

    -9.2605  -9.0105  -8.2490  -7.8485  -7.7657  -7.7548  -7.7003  -7.6678
    -7.6048  -7.5713  -7.2103  -7.1798  -7.1125  -7.0975  -7.0700  -7.0067
    -0.7521  -0.6486  -0.5599  -0.2291  -0.0733   0.0048   0.1026   0.2058
     0.4415   0.5927   0.6911   0.8050   0.8693   1.0983   1.6509   1.6972
     1.8207   1.9176   1.9421   1.9721   2.2861   2.3683   2.6945   2.7426
     2.8311   2.9858   3.1421   3.1795   3.2890   3.3236   3.4710   3.4857
     3.6228   3.6644   3.6929   3.7570   3.7904   3.8838   3.9285   3.9822
     4.0677   4.1081   4.1725   4.2965   4.5169   4.6365   4.6741   4.7812
     8.4130   8.8033   9.0065   9.1417   9.6045   9.7750   9.8483  10.0624
    10.1880  10.2086  10.3473  10.5776  10.8678

          k = 0.0000-0.1924 0.4096 ( 30612 PWs)   bands (ev):

    -9.0022  -8.7631  -8.1495  -8.0519  -7.9513  -7.7033  -7.6371  -7.5773
    -7.5497  -7.4857  -7.4330  -7.2979  -7.2615  -7.2131  -7.1934  -7.1284
    -0.7986  -0.6987  -0.6465  -0.3056  -0.0854  -0.0021   0.0536   0.2475
     0.2853   0.3898   0.4197   0.5536   0.6031   0.8153   2.0096   2.0939
     2.3377   2.3744   2.4697   2.5750   2.6120   2.7902   2.8310   2.8677
     3.0181   3.0748   3.1334   3.1562   3.1951   3.2779   3.3668   3.4700
     3.4871   3.8021   3.8265   3.8619   3.9083   3.9471   3.9582   3.9843
     3.9954   4.0230   4.0617   4.1579   4.2174   4.4596   4.4694   4.6275
     8.6711   8.7378   8.9211   9.0556   9.5720   9.6230   9.7913   9.9433
    10.0554  10.1160  10.1946  10.5168  10.6670

          k =-0.2000 0.0000 0.2048 ( 30587 PWs)   bands (ev):

    -9.2484  -8.6023  -8.5929  -8.1783  -7.8024  -7.7912  -7.7375  -7.6052
    -7.3802  -7.3549  -7.3348  -7.2191  -7.1303  -7.1061  -7.0853  -7.0392
    -0.6858  -0.5856  -0.5068  -0.2122   0.1141   0.2137   0.2505   0.4787
     0.5289   0.6606   0.6964   0.7749   1.0883   1.1739   1.6183   1.7350
     1.7820   1.8354   1.9201   2.0044   2.1582   2.2146   2.4869   2.5424
     2.6911   2.7448   2.8969   2.9122   3.1859   3.2573   3.3380   3.4173
     3.5392   3.6172   3.6818   3.7761   3.8217   3.8768   4.0227   4.0509
     4.0983   4.1259   4.1948   4.2422   4.3607   4.3939   4.6837   4.7422
     8.4648   9.0110   9.2287   9.3428   9.7139   9.8839   9.9839  10.1386
    10.2222  10.2840  10.5215  10.7620  10.8824

          k =-0.2000 0.0000 0.4096 ( 30629 PWs)   bands (ev):

    -8.9905  -8.3805  -8.3699  -8.1352  -7.9907  -7.6958  -7.6794  -7.6386
    -7.6267  -7.4855  -7.4185  -7.3264  -7.2478  -7.2274  -7.1851  -7.1240
    -0.7534  -0.6523  -0.5613  -0.1755   0.0639   0.1151   0.1747   0.3460
     0.4662   0.5174   0.5942   0.6657   0.8688   1.1707   1.4256   1.5790
     2.0738   2.3910   2.4061   2.5143   2.5909   2.6132   2.6798   2.7059
     2.8627   3.0659   3.1203   3.1444   3.2288   3.3497   3.3642   3.4108
     3.4593   3.6425   3.7164   3.7897   3.8477   3.8945   3.9201   3.9419
     3.9652   4.0073   4.0993   4.1546   4.1819   4.2082   4.4756   4.5911
     8.7772   8.8708   9.0936   9.1880   9.6726   9.8084   9.9250  10.0439
    10.2195  10.2865  10.5649  10.7560  10.8183

          k =-0.2000 0.1924 0.0000 ( 30552 PWs)   bands (ev):

    -9.2665  -9.0169  -8.2538  -8.2024  -8.0357  -7.8438  -7.6391  -7.5419
    -7.4578  -7.3821  -7.1583  -7.1110  -7.0801  -7.0554  -7.0179  -6.9819
    -0.7947  -0.5538  -0.3756  -0.1535   0.0639   0.2309   0.3953   0.4759
     0.7817   0.8609   0.9090   0.9842   1.0168   1.1885   1.2623   1.4375
     1.5025   1.5784   1.6442   1.7694   2.0934   2.2838   2.5590   2.6201
     2.7604   2.8300   2.9320   2.9811   3.0062   3.0648   3.1680   3.3623
     3.4423   3.6033   3.6976   3.7910   3.8189   3.8533   3.9483   3.9589
     4.0313   4.0657   4.1661   4.2720   4.5636   4.5995   4.7618   4.7710
     8.4322   8.9715   9.2950   9.5261   9.8057   9.9707  10.1305  10.2654
    10.3617  10.4941  10.6245  10.7562  10.8599

          k =-0.2000-0.1924 0.2048 ( 30597 PWs)   bands (ev):

    -9.1782  -8.9322  -8.1878  -8.1370  -7.9762  -7.7941  -7.6996  -7.5979
    -7.5264  -7.4282  -7.2200  -7.1880  -7.1303  -7.1070  -7.0710  -7.0364
    -0.6547  -0.5572  -0.4417  -0.0746   0.0048   0.0889   0.1993   0.3480
     0.5126   0.6940   0.8076   0.8690   1.0628   1.1292   1.4287   1.6277
     1.6768   1.7497   1.8747   1.9399   2.4503   2.5177   2.6595   2.6931
     2.7499   2.8295   2.8939   2.9480   3.0460   3.3092   3.3459   3.4083
     3.5574   3.6071   3.6515   3.7255   3.7853   3.8379   3.9018   3.9495
     4.0067   4.0794   4.1054   4.1942   4.4752   4.5200   4.6194   4.7158
     8.6675   8.9522   9.3075   9.3851   9.7167   9.9247   9.9884  10.1466
    10.2146  10.3399  10.4706  10.7833  10.9982

          k =-0.2000 0.1924-0.2048 ( 30597 PWs)   bands (ev):

    -9.1782  -8.9322  -8.1870  -8.1378  -7.9757  -7.7940  -7.6995  -7.6024
    -7.5212  -7.4299  -7.2207  -7.1841  -7.1344  -7.1053  -7.0706  -7.0371
    -0.6661  -0.5098  -0.4680  -0.1535   0.0697   0.1053   0.2259   0.2868
     0.5556   0.7011   0.7519   0.9036   1.0690   1.1282   1.4178   1.6257
     1.6519   1.7881   1.8488   1.9537   2.4697   2.5112   2.6490   2.7036
     2.7496   2.8279   2.8740   2.9484   3.0430   3.2946   3.3458   3.4163
     3.5724   3.6054   3.6455   3.7323   3.8058   3.8392   3.9023   3.9342
     4.0105   4.0627   4.1173   4.1947   4.4790   4.5205   4.6191   4.7089
     8.6668   8.9665   9.1953   9.4693   9.7667   9.8790  10.0123  10.1439
    10.2855  10.3420  10.4446  10.7353  10.9779

          k = 0.2000-0.1924-0.2048 ( 30597 PWs)   bands (ev):

    -9.1782  -8.9322  -8.1870  -8.1379  -7.9758  -7.7944  -7.6988  -7.6025
    -7.5209  -7.4298  -7.2206  -7.1855  -7.1347  -7.1046  -7.0702  -7.0370
    -0.6591  -0.5140  -0.4786  -0.1382   0.0580   0.1142   0.2220   0.2804
     0.5681   0.6656   0.7866   0.9126   1.0349   1.1643   1.4057   1.5585
     1.7228   1.7894   1.8622   1.9287   2.4748   2.5323   2.6521   2.6752
     2.7377   2.8319   2.9000   2.9267   3.0460   3.2823   3.3397   3.4281
     3.5667   3.6049   3.6616   3.7341   3.8177   3.8300   3.8891   3.9410
     4.0005   4.0700   4.1297   4.1839   4.4771   4.5261   4.6253   4.7009
     8.6585   9.0232   9.2609   9.3455   9.7793   9.8609   9.9703  10.1386
    10.2636  10.3540  10.4583  10.8211  10.9978

          k =-0.2000-0.1924 0.4096 ( 30622 PWs)   bands (ev):

    -8.9237  -8.6887  -8.0878  -7.9967  -7.9561  -7.8938  -7.8056  -7.6547
    -7.4886  -7.4172  -7.4075  -7.3600  -7.3001  -7.2388  -7.1786  -7.1283
    -0.7127  -0.5938  -0.4800  -0.1944   0.0353   0.1273   0.1738   0.3247
     0.4074   0.4661   0.5655   0.6447   0.7480   0.8422   1.5421   2.1715
     2.1974   2.3521   2.3995   2.4197   2.4864   2.5475   2.6998   2.8880
     2.9628   3.0389   3.0781   3.1437   3.1932   3.2491   3.3468   3.4049
     3.5040   3.6186   3.6801   3.7150   3.8065   3.8610   3.9013   3.9704
     3.9858   4.0573   4.0929   4.1143   4.2121   4.2965   4.3487   4.5546
     8.7830   8.9660   9.2335   9.2771   9.7721   9.8504   9.8975  10.0805
    10.1592  10.2586  10.4266  10.6335  10.8300

          k =-0.2000 0.1924-0.4096 ( 30622 PWs)   bands (ev):

    -8.9237  -8.6888  -8.0874  -7.9962  -7.9555  -7.8941  -7.8066  -7.6557
    -7.4893  -7.4167  -7.4079  -7.3558  -7.3013  -7.2398  -7.1788  -7.1283
    -0.7048  -0.5874  -0.5051  -0.1932   0.0439   0.0994   0.2286   0.3370
     0.3810   0.4682   0.5367   0.6382   0.7785   0.8361   1.5416   2.1374
     2.2489   2.3304   2.3654   2.4330   2.4819   2.5656   2.7339   2.9022
     2.9523   3.0220   3.0724   3.1096   3.1922   3.2541   3.3533   3.4280
     3.4979   3.6048   3.6813   3.7281   3.8056   3.8465   3.9098   3.9800
     3.9995   4.0552   4.0774   4.1208   4.2087   4.3020   4.3484   4.5477
     8.7635   8.9912   9.1868   9.3372   9.7204   9.8285   9.9405  10.1019
    10.1709  10.2546  10.3718  10.6558  10.7966

          k = 0.2000-0.1924-0.4096 ( 30622 PWs)   bands (ev):

    -8.9236  -8.6888  -8.0873  -7.9966  -7.9568  -7.8929  -7.8064  -7.6552
    -7.4894  -7.4170  -7.4044  -7.3625  -7.2977  -7.2403  -7.1791  -7.1280
    -0.7014  -0.5933  -0.5066  -0.1776   0.0241   0.1068   0.2204   0.3314
     0.3933   0.4727   0.5293   0.6457   0.7519   0.8666   1.5442   2.0904
     2.2749   2.3295   2.3906   2.4248   2.4825   2.5779   2.7207   2.8855
     2.9653   3.0090   3.0707   3.1183   3.1763   3.2761   3.3457   3.4227
     3.5053   3.6252   3.6811   3.7126   3.8065   3.8461   3.9091   3.9719
     4.0030   4.0578   4.0914   4.1092   4.2120   4.2968   4.3612   4.5360
     8.8766   8.9961   9.1281   9.2329   9.7441   9.8532   9.9409  10.0793
    10.1355  10.2188  10.4156  10.6942  10.7768

          k =-0.2000 0.1924 0.6143 ( 30602 PWs)   bands (ev):

    -8.5674  -8.5036  -8.3501  -8.2855  -7.7558  -7.7195  -7.7078  -7.6599
    -7.5901  -7.5374  -7.4632  -7.4105  -7.3655  -7.3205  -7.2447  -7.1958
    -0.7419  -0.6119  -0.4888  -0.3111   0.0077   0.0403   0.1216   0.1751
     0.2542   0.4320   0.4579   0.5679   1.3240   1.4832   1.5000   1.6764
     1.8594   2.0119   2.5228   2.6943   2.7891   2.9199   2.9770   3.0216
     3.1086   3.1407   3.2385   3.3390   3.4406   3.4720   3.5172   3.5330
     3.5731   3.6358   3.6640   3.6877   3.7484   3.7669   3.7763   3.8592
     3.8845   3.9406   3.9502   4.0067   4.0416   4.1641   4.2735   4.3870
     8.9715   9.0696   9.1600   9.2429   9.6509   9.7537   9.9540  10.0432
    10.1333  10.3597  10.4040  10.5118  10.7091

          k =-0.4000 0.0000 0.2048 ( 30578 PWs)   bands (ev):

    -9.0074  -8.6276  -8.4008  -8.3909  -8.1001  -8.0912  -7.5949  -7.4766
    -7.3726  -7.2883  -7.2751  -7.2421  -7.2000  -7.1231  -7.1109  -7.0685
    -0.4704  -0.3651  -0.2341   0.0814   0.2236   0.3523   0.4209   0.5286
     0.6706   0.7752   0.8711   0.9908   1.0724   1.3738   1.4859   1.5571
     1.6630   1.7295   1.8680   1.8962   1.9622   2.1365   2.4302   2.5286
     2.7182   2.7723   2.8654   2.9032   2.9214   2.9997   3.0381   3.0865
     3.1436   3.3170   3.4057   3.7568   3.8231   3.8473   3.9125   3.9533
     4.0515   4.0816   4.1631   4.2372   4.2799   4.3832   4.5328   4.5579
     9.0496   9.4132   9.5633   9.7568   9.9037  10.0641  10.1271  10.2974
    10.4452  10.6608  10.7424  11.0225  11.1568

          k =-0.4000 0.0000 0.4096 ( 30588 PWs)   bands (ev):

    -8.7610  -8.4036  -8.1937  -8.1827  -7.9612  -7.9153  -7.9098  -7.6902
    -7.5439  -7.5371  -7.3784  -7.3757  -7.3500  -7.2180  -7.1832  -7.1240
    -0.5477  -0.3701  -0.2277  -0.0080   0.2938   0.3531   0.4547   0.5226
     0.6054   0.6465   0.6984   0.7710   1.0407   1.1365   1.2381   1.5493
     1.7148   1.9906   2.3049   2.3484   2.4331   2.4977   2.5680   2.5878
     2.6874   2.8935   2.9801   3.0533   3.1120   3.1671   3.2609   3.3443
     3.5146   3.5481   3.6108   3.6184   3.6881   3.7302   3.8073   3.8825
     3.9269   4.0163   4.0679   4.1240   4.1470   4.1797   4.2459   4.3558
     9.1909   9.2542   9.5381   9.7343  10.0056  10.0527  10.1587  10.3736
    10.4972  10.6583  10.7879  10.8688  10.9548

          k =-0.4000 0.1924 0.0000 ( 30574 PWs)   bands (ev):

    -9.0259  -8.7890  -8.6467  -8.4361  -8.0762  -7.8263  -7.6955  -7.5046
    -7.4109  -7.2791  -7.2408  -7.1452  -7.0754  -7.0452  -7.0070  -6.9815
    -0.5629  -0.3119  -0.1902   0.0656   0.2957   0.3730   0.4673   0.6266
     0.7977   0.8445   0.9409   1.0540   1.1066   1.3082   1.4218   1.4954
     1.5618   1.6501   1.8099   1.9138   1.9723   2.0294   2.1639   2.2162
     2.4538   2.5061   2.5959   2.8775   3.0463   3.1545   3.1799   3.2335
     3.3168   3.3686   3.4397   3.4468   3.5338   3.6503   3.6907   3.7977
     4.1147   4.2928   4.3695   4.3905   4.4646   4.4975   4.6024   4.6603
     8.9995   9.3452   9.5222   9.7095   9.8766  10.0158  10.1713  10.2817
    10.5240  10.6023  10.7078  11.0189  11.1859

          k =-0.4000-0.1924 0.2048 ( 30571 PWs)   bands (ev):

    -8.9415  -8.7082  -8.5699  -8.3635  -8.0153  -7.7749  -7.6527  -7.5657
    -7.4574  -7.4063  -7.3554  -7.2409  -7.1356  -7.0957  -7.0573  -7.0316
    -0.4494  -0.3497  -0.2335   0.1786   0.1948   0.3304   0.4205   0.4634
     0.5647   0.7458   0.8197   0.9066   1.1998   1.3438   1.5779   1.7027
     1.7980   1.8426   1.9028   1.9757   2.0830   2.2277   2.2776   2.3752
     2.4267   2.4896   2.5830   2.7467   2.9490   3.0786   3.1912   3.2741
     3.3105   3.4044   3.4831   3.5482   3.6234   3.7135   3.7744   3.9818
     4.1420   4.2242   4.3157   4.3488   4.3601   4.4397   4.4855   4.5974
     9.0438   9.2618   9.5145   9.6837   9.9044  10.0772  10.2551  10.3413
    10.4679  10.5900  10.7378  10.9850  11.1383

          k =-0.4000 0.1924-0.2048 ( 30571 PWs)   bands (ev):

    -8.9415  -8.7085  -8.5696  -8.3634  -8.0151  -7.7759  -7.6534  -7.5622
    -7.4617  -7.4052  -7.3541  -7.2405  -7.1380  -7.0921  -7.0590  -7.0315
    -0.4614  -0.3095  -0.2523   0.0923   0.2633   0.3459   0.3752   0.5100
     0.5992   0.7057   0.8126   0.8974   1.2112   1.3724   1.5999   1.6607
     1.7765   1.8314   1.9132   1.9880   2.1056   2.1822   2.2908   2.3690
     2.4477   2.4999   2.5725   2.7361   2.9506   3.0888   3.1836   3.2843
     3.3478   3.3766   3.4548   3.5385   3.6286   3.7290   3.7795   3.9770
     4.1535   4.2294   4.2933   4.3488   4.3702   4.4454   4.4850   4.5903
     9.0262   9.3061   9.4751   9.6625   9.9392  10.0501  10.2732  10.3752
    10.5365  10.6056  10.7338  10.8492  11.0789

          k = 0.4000-0.1924-0.2048 ( 30571 PWs)   bands (ev):

    -8.9415  -8.7085  -8.5697  -8.3634  -8.0150  -7.7763  -7.6538  -7.5617
    -7.4612  -7.4052  -7.3535  -7.2420  -7.1379  -7.0919  -7.0590  -7.0314
    -0.4550  -0.3188  -0.2540   0.1044   0.2550   0.3423   0.3771   0.4983
     0.6340   0.7002   0.7743   0.9005   1.2617   1.3830   1.5455   1.6580
     1.7465   1.8944   1.9250   1.9759   2.1243   2.1886   2.2464   2.3828
     2.4379   2.4914   2.5602   2.7306   2.9697   3.0775   3.2041   3.2883
     3.3335   3.3953   3.4419   3.5403   3.6422   3.7204   3.7776   3.9777
     4.1376   4.2406   4.2924   4.3422   4.3623   4.4622   4.4910   4.5831
     9.0232   9.3556   9.5388   9.5942   9.9009  10.0803  10.1446  10.3833
    10.4958  10.6310  10.7751  10.9296  11.0406

          k =-0.4000-0.1924 0.4096 ( 30606 PWs)   bands (ev):

    -8.6991  -8.4776  -8.3504  -8.1577  -7.9145  -7.8432  -7.7390  -7.6590
    -7.6260  -7.5313  -7.5037  -7.3810  -7.3205  -7.2061  -7.1967  -7.1251
    -0.5183  -0.3823  -0.2191   0.0095   0.2721   0.3700   0.4162   0.4806
     0.5385   0.6185   0.6747   0.7189   1.0312   1.3553   1.4342   1.7205
     1.8712   2.0604   2.1657   2.2347   2.3114   2.4218   2.4595   2.5750
     2.6658   2.7247   2.8256   2.9113   3.0698   3.1475   3.2010   3.3355
     3.4034   3.4924   3.5959   3.8198   3.8528   3.9169   3.9455   3.9751
     3.9873   4.0411   4.0717   4.1121   4.1489   4.1563   4.2347   4.4041
     9.0674   9.2645   9.5722   9.6678   9.9295  10.0039  10.2524  10.4201
    10.5137  10.5990  10.7783  10.8846  10.9755

          k =-0.4000 0.1924-0.4096 ( 30606 PWs)   bands (ev):

    -8.6991  -8.4779  -8.3500  -8.1572  -7.9144  -7.8426  -7.7426  -7.6607
    -7.6227  -7.5273  -7.5055  -7.3834  -7.3199  -7.2058  -7.1959  -7.1258
    -0.5149  -0.3790  -0.2325   0.0054   0.2874   0.3477   0.4548   0.4864
     0.5460   0.6124   0.6346   0.7169   1.0539   1.3640   1.4314   1.6969
     1.8713   2.0579   2.1558   2.2408   2.3414   2.3965   2.4630   2.6097
     2.6699   2.7183   2.8050   2.8975   3.0762   3.1301   3.2005   3.3510
     3.4208   3.4821   3.5974   3.8082   3.8709   3.8905   3.9593   3.9613
     4.0078   4.0389   4.0716   4.1200   4.1447   4.1529   4.2402   4.3965
     9.0342   9.3608   9.5305   9.6118   9.9032  10.0613  10.2490  10.4364
    10.5601  10.6137  10.7112  10.7628  10.9780

          k = 0.4000-0.1924-0.4096 ( 30606 PWs)   bands (ev):

    -8.6990  -8.4780  -8.3502  -8.1573  -7.9141  -7.8426  -7.7422  -7.6602
    -7.6230  -7.5303  -7.5048  -7.3798  -7.3221  -7.2056  -7.1960  -7.1258
    -0.5107  -0.3860  -0.2306   0.0100   0.2817   0.3326   0.4584   0.4892
     0.5444   0.6145   0.6449   0.7113   1.0842   1.3247   1.4380   1.7232
     1.8771   2.0744   2.1457   2.2280   2.2853   2.3786   2.4821   2.6277
     2.6628   2.7121   2.8162   2.9333   3.0761   3.1224   3.2218   3.3262
     3.4307   3.4656   3.5890   3.8065   3.8603   3.9093   3.9543   3.9895
     4.0061   4.0312   4.0797   4.0984   4.1372   4.1672   4.2500   4.3836
     9.1392   9.3314   9.4841   9.5876   9.8898   9.9812  10.2719  10.4344
    10.5708  10.6263  10.6798  10.8650  10.9314

          k =-0.4000 0.1924 0.6143 ( 30622 PWs)   bands (ev):

    -8.3625  -8.3023  -8.1615  -8.1000  -8.0505  -7.9918  -7.8818  -7.8190
    -7.6220  -7.5726  -7.4602  -7.4092  -7.3704  -7.3259  -7.2620  -7.2121
    -0.5836  -0.3636  -0.2707  -0.0525   0.2350   0.2576   0.3258   0.4685
     0.5540   0.7004   0.7983   0.9749   1.1316   1.2523   1.3694   1.4762
     1.6962   1.8423   2.1115   2.2772   2.3329   2.4839   2.5431   2.6961
     3.0974   3.1535   3.2153   3.2807   3.3343   3.3965   3.4176   3.5345
     3.5583   3.6268   3.6609   3.7054   3.7380   3.7901   3.8057   3.8199
     3.8667   3.8849   3.9019   3.9364   3.9744   4.0265   4.0713   4.2028
     9.2927   9.3981   9.4532   9.5721   9.8810   9.9830  10.1946  10.4216
    10.5089  10.5939  10.7003  10.7784  10.8620

     the Fermi energy is     6.2078 ev

!    total energy              =    -416.23711707 Ry
     estimated scf accuracy    <          1.9E-11 Ry
     smearing contrib. (-TS)   =      -0.00000000 Ry
     internal energy E=F+TS    =    -416.23711707 Ry

     The total energy is F=E-TS. E is the sum of the following terms:
     one-electron contribution =     -39.59451844 Ry
     hartree contribution      =      90.55084603 Ry
     xc contribution           =    -132.34009397 Ry
     ewald contribution        =    -334.85335069 Ry

     convergence has been achieved in  24 iterations

     Writing output data file ./wfc-out/pwscf.save/
 
     init_run     :     12.38s CPU     12.58s WALL (       1 calls)
     electrons    :    742.59s CPU    748.94s WALL (       1 calls)

     Called by init_run:
     wfcinit      :     11.73s CPU     11.84s WALL (       1 calls)
     potinit      :      0.14s CPU      0.14s WALL (       1 calls)
     hinit0       :      0.36s CPU      0.41s WALL (       1 calls)

     Called by electrons:
     c_bands      :    676.41s CPU    681.55s WALL (      24 calls)
     sum_band     :     64.19s CPU     64.84s WALL (      24 calls)
     v_of_rho     :      0.09s CPU      0.11s WALL (      25 calls)
     newd         :      1.60s CPU      1.63s WALL (      25 calls)
     mix_rho      :      0.21s CPU      0.22s WALL (      24 calls)

     Called by c_bands:
     init_us_2    :      8.80s CPU      8.87s WALL (    2254 calls)
     cegterg      :    658.90s CPU    663.03s WALL (    1104 calls)

     Called by *egterg:
     cdiaghg      :     48.16s CPU     48.29s WALL (    6245 calls)
     h_psi        :    354.84s CPU    358.15s WALL (    6291 calls)
     s_psi        :     74.66s CPU     74.89s WALL (    6291 calls)
     g_psi        :      0.71s CPU      0.72s WALL (    5141 calls)

     Called by h_psi:
     h_psi:calbec :     83.68s CPU     83.92s WALL (    6291 calls)
     vloc_psi     :    191.12s CPU    193.95s WALL (    6291 calls)
     add_vuspsi   :     77.48s CPU     77.72s WALL (    6291 calls)

     General routines
     calbec       :    107.11s CPU    107.45s WALL (    7395 calls)
     fft          :      0.35s CPU      0.40s WALL (     148 calls)
     ffts         :      0.05s CPU      0.05s WALL (      49 calls)
     fftw         :    204.72s CPU    207.54s WALL (  613896 calls)
     interpolate  :      0.07s CPU      0.07s WALL (      25 calls)
 
     Parallel routines
     fft_scatt_xy :     12.00s CPU     12.18s WALL (  614093 calls)
     fft_scatt_yz :    105.05s CPU    106.66s WALL (  614093 calls)
 
     PWSCF        :  12m37.01s CPU  13m 5.05s WALL

 
   This run was terminated on:  16:42:47   6Mar2023            

=------------------------------------------------------------------------------=
   JOB DONE.
=------------------------------------------------------------------------------=
