 vasp.5.4.4.18Apr17-6-g9f103f2a35 (build Sep 16 2021 13:51:27) complex          
  
 executed on             LinuxIFC date 2023.02.26  09:55:28
 running on   24 total cores
 distrk:  each k-point on   24 cores,    1 groups
 distr:  one band on NCORES_PER_BAND=  24 cores,    1 groups


--------------------------------------------------------------------------------------------------------


 INCAR:
 POTCAR:    PAW_PBE Sn 08Apr2002                  
 POTCAR:    PAW_PBE Se 06Sep2000                  

 ----------------------------------------------------------------------------- 
|                                                                             |
|           W    W    AA    RRRRR   N    N  II  N    N   GGGG   !!!           |
|           W    W   A  A   R    R  NN   N  II  NN   N  G    G  !!!           |
|           W    W  A    A  R    R  N N  N  II  N N  N  G       !!!           |
|           W WW W  AAAAAA  RRRRR   N  N N  II  N  N N  G  GGG   !            |
|           WW  WW  A    A  R   R   N   NN  II  N   NN  G    G                |
|           W    W  A    A  R    R  N    N  II  N    N   GGGG   !!!           |
|                                                                             |
|      For optimal performance we recommend to set                            |
|        NCORE= 4 - approx SQRT( number of cores)                             |
|      NCORE specifies how many cores store one orbital (NPAR=cpu/NCORE).     |
|      This setting can  greatly improve the performance of VASP for DFT.     |
|      The default,   NCORE=1            might be grossly inefficient         |
|      on modern multi-core architectures or massively parallel machines.     |
|      Do your own testing !!!!                                               |
|      Unfortunately you need to use the default for GW and RPA calculations. |
|      (for HF NCORE is supported but not extensively tested yet)             |
|                                                                             |
 ----------------------------------------------------------------------------- 

 POTCAR:    PAW_PBE Sn 08Apr2002                  
   VRHFIN =Sn: s2p2                                                             
   LEXCH  = PE                                                                  
   EATOM  =    94.0860 eV,    6.9151 Ry                                         
                                                                                
   TITEL  = PAW_PBE Sn 08Apr2002                                                
   LULTRA =        F    use ultrasoft PP ?                                      
   IUNSCR =        1    unscreen: 0-lin 1-nonlin 2-no                           
   RPACOR =    2.000    partial core radius                                     
   POMASS =  118.710; ZVAL   =    4.000    mass and valenz                      
   RCORE  =    3.000    outmost cutoff radius                                   
   RWIGS  =    2.960; RWIGS  =    1.566    wigner-seitz radius (au A)           
   ENMAX  =  103.236; ENMIN  =   77.427 eV                                      
   ICORE  =        3    local potential                                         
   LCOR   =        T    correct aug charges                                     
   LPAW   =        T    paw PP                                                  
   EAUG   =  263.585                                                            
   DEXC   =    0.000                                                            
   RMAX   =    3.078    core radius for proj-oper                               
   RAUG   =    1.300    factor for augmentation sphere                          
   RDEP   =    3.022    radius for radial grids                                 
   RDEPT  =    2.655    core radius for aug-charge                              
                                                                                
   Atomic configuration                                                         
   13 entries                                                                   
     n  l   j            E        occ.                                          
     1  0  0.50    -29007.2859   2.0000                                         
     2  0  0.50     -4378.8056   2.0000                                         
     2  1  1.50     -3930.4293   6.0000                                         
     3  0  0.50      -845.0264   2.0000                                         
     3  1  1.50      -698.5725   6.0000                                         
     3  2  2.50      -473.2839  10.0000                                         
     4  0  0.50      -133.9036   2.0000                                         
     4  1  1.50       -89.6752   6.0000                                         
     4  2  2.50       -25.8375  10.0000                                         
     5  0  0.50       -10.5484   2.0000                                         
     5  1  0.50        -3.6940   2.0000                                         
     5  2  1.50        -1.3606   0.0000                                         
     4  3  2.50        -4.0817   0.0000                                         
   Description                                                                  
     l       E           TYP  RCUT    TYP  RCUT                                 
     0    -10.5483727     23  3.000                                             
     0     27.2116520     23  3.000                                             
     1     -3.6939829     23  3.000                                             
     1      1.9821976     23  3.000                                             
     2     -1.3605826     23  3.000                                             
     3     -2.7211652     23  3.000                                             
  local pseudopotential read in
  partial core-charges read in
  partial kinetic energy density read in
  atomic valenz-charges read in
  non local Contribution for L=           0  read in
    real space projection operators read in
  non local Contribution for L=           0  read in
    real space projection operators read in
  non local Contribution for L=           1  read in
    real space projection operators read in
  non local Contribution for L=           1  read in
    real space projection operators read in
  non local Contribution for L=           2  read in
    real space projection operators read in
    PAW grid and wavefunctions read in
 
   number of l-projection  operators is LMAX  =           5
   number of lm-projection operators is LMMAX =          13
 
 POTCAR:    PAW_PBE Se 06Sep2000                  
   VRHFIN =Se: s2p4                                                             
   LEXCH  = PE                                                                  
   EATOM  =   257.1286 eV,   18.8984 Ry                                         
                                                                                
   TITEL  = PAW_PBE Se 06Sep2000                                                
   LULTRA =        F    use ultrasoft PP ?                                      
   IUNSCR =        1    unscreen: 0-lin 1-nonlin 2-no                           
   RPACOR =    1.900    partial core radius                                     
   POMASS =   78.960; ZVAL   =    6.000    mass and valenz                      
   RCORE  =    2.100    outmost cutoff radius                                   
   RWIGS  =    2.200; RWIGS  =    1.164    wigner-seitz radius (au A)           
   ENMAX  =  211.555; ENMIN  =  158.666 eV                                      
   ICORE  =        3    local potential                                         
   LCOR   =        T    correct aug charges                                     
   LPAW   =        T    paw PP                                                  
   EAUG   =  446.842                                                            
   DEXC   =    0.000                                                            
   RMAX   =    2.147    core radius for proj-oper                               
   RAUG   =    1.300    factor for augmentation sphere                          
   RDEP   =    2.177    radius for radial grids                                 
   RDEPT  =    1.928    core radius for aug-charge                              
                                                                                
   Atomic configuration                                                         
   10 entries                                                                   
     n  l   j            E        occ.                                          
     1  0  0.50    -12503.4787   2.0000                                         
     2  0  0.50     -1606.9547   2.0000                                         
     2  1  1.50     -1413.3140   6.0000                                         
     3  0  0.50      -213.4885   2.0000                                         
     3  1  1.50      -152.9538   6.0000                                         
     3  2  2.50       -53.1221  10.0000                                         
     4  0  0.50       -17.2865   2.0000                                         
     4  1  0.50        -6.5110   4.0000                                         
     4  2  2.50        -6.8029   0.0000                                         
     4  3  2.50        -6.8029   0.0000                                         
   Description                                                                  
     l       E           TYP  RCUT    TYP  RCUT                                 
     0    -17.2865377     23  2.100                                             
     0    -15.3094411     23  2.100                                             
     1     -6.5110275     23  2.100                                             
     1     -0.0695192     23  2.100                                             
     2     -6.8029130     23  2.100                                             
     3     -1.3605826      7  2.100                                             
  local pseudopotential read in
  partial core-charges read in
  partial kinetic energy density read in
  atomic valenz-charges read in
  non local Contribution for L=           0  read in
    real space projection operators read in
  non local Contribution for L=           0  read in
    real space projection operators read in
  non local Contribution for L=           1  read in
    real space projection operators read in
  non local Contribution for L=           1  read in
    real space projection operators read in
  non local Contribution for L=           2  read in
    real space projection operators read in
    PAW grid and wavefunctions read in
 
   number of l-projection  operators is LMAX  =           5
   number of lm-projection operators is LMMAX =          13
 
 WARNING: PSMAXN for non-local potential too small
          PSMAXN should be >   12.5490833729506       NTYP=           1
  PAW_PBE Sn 08Apr2002                  :
 energy of atom  1       EATOM=  -94.0860
 kinetic energy error for atom=    0.0000 (will be added to EATOM!!)
  PAW_PBE Se 06Sep2000                  :
 energy of atom  2       EATOM= -257.1286
 kinetic energy error for atom=    0.0006 (will be added to EATOM!!)
 
 
 POSCAR:  SnSe-Monolayer                         
  positions in direct lattice
  velocities in cartesian coordinates
 exchange correlation table for  LEXCH =        8
   RHO(1)=    0.500       N(1)  =     2000
   RHO(2)=  100.500       N(2)  =     4000
 


--------------------------------------------------------------------------------------------------------


 ion  position               nearest neighbor table
   1  0.581  0.750  0.569-   4 2.72   3 2.91   3 2.91   3 3.22   3 3.22
   2  0.081  0.250  0.431-   3 2.72   4 2.91   4 2.91   4 3.22   4 3.22
   3  0.033  0.250  0.567-   2 2.72   1 2.91   1 2.91   1 3.22   1 3.22
   4  0.533  0.750  0.433-   1 2.72   2 2.91   2 2.91   2 3.22   2 3.22
 
  LATTYP: Found a simple orthorhombic cell.
 ALAT       =     4.2924778572
 B/A-ratio  =     1.0168549456
 C/A-ratio  =     4.6593134934
  
  Lattice vectors:
  
 A1 = (   0.0000000000,  -4.2924778572,   0.0000000000)
 A2 = (  -4.3648273379,   0.0000000000,   0.0000000000)
 A3 = (   0.0000000000,   0.0000000000, -20.0000000000)


Analysis of symmetry for initial positions (statically):
=====================================================================
 Subroutine PRICEL returns:
 Original cell was already a primitive cell.
 

 Routine SETGRP: Setting up the symmetry group for a 
 simple orthorhombic supercell.


 Subroutine GETGRP returns: Found  4 space group operations
 (whereof  1 operations were pure point group operations)
 out of a pool of  8 trial point group operations.


The static configuration has the point symmetry C_1 .
 The point group associated with its full space group is C_2v.


Analysis of symmetry for dynamics (positions and initial velocities):
=====================================================================
 Subroutine PRICEL returns:
 Original cell was already a primitive cell.
 

 Routine SETGRP: Setting up the symmetry group for a 
 simple orthorhombic supercell.


 Subroutine GETGRP returns: Found  4 space group operations
 (whereof  1 operations were pure point group operations)
 out of a pool of  8 trial point group operations.


The dynamic configuration has the point symmetry C_1 .
 The point group associated with its full space group is C_2v.


 Subroutine INISYM returns: Found  4 space group operations
 (whereof  1 operations are pure point group operations),
 and found     1 'primitive' translations

 
 
 KPOINTS: Automatic                               

Automatic generation of k-mesh.
Space group operators:
 irot       det(A)        alpha          n_x          n_y          n_z        tau_x        tau_y        tau_z
    1     1.000000     0.000000     1.000000     0.000000     0.000000     0.000000     0.000000     0.000000
    2    -1.000000   180.000000     0.000000     0.000000     1.000000    -0.500000    -0.500000     0.000000
    3     1.000000   180.000000     1.000000     0.000000     0.000000    -0.500000     0.000000     0.000000
    4    -1.000000   180.000000     0.000000     1.000000     0.000000     0.000000    -0.500000     0.000000
 
 Subroutine IBZKPT returns following result:
 ===========================================
 
 Found     64 irreducible k-points:
 
 Following reciprocal coordinates:
            Coordinates               Weight
  0.000000  0.000000  0.000000      1.000000
  0.066667  0.000000  0.000000      2.000000
  0.133333  0.000000  0.000000      2.000000
  0.200000  0.000000  0.000000      2.000000
  0.266667  0.000000  0.000000      2.000000
  0.333333  0.000000  0.000000      2.000000
  0.400000  0.000000  0.000000      2.000000
  0.466667  0.000000  0.000000      2.000000
  0.000000  0.066667  0.000000      2.000000
  0.066667  0.066667  0.000000      4.000000
  0.133333  0.066667  0.000000      4.000000
  0.200000  0.066667  0.000000      4.000000
  0.266667  0.066667  0.000000      4.000000
  0.333333  0.066667  0.000000      4.000000
  0.400000  0.066667  0.000000      4.000000
  0.466667  0.066667  0.000000      4.000000
  0.000000  0.133333  0.000000      2.000000
  0.066667  0.133333  0.000000      4.000000
  0.133333  0.133333  0.000000      4.000000
  0.200000  0.133333  0.000000      4.000000
  0.266667  0.133333  0.000000      4.000000
  0.333333  0.133333  0.000000      4.000000
  0.400000  0.133333  0.000000      4.000000
  0.466667  0.133333  0.000000      4.000000
  0.000000  0.200000  0.000000      2.000000
  0.066667  0.200000  0.000000      4.000000
  0.133333  0.200000  0.000000      4.000000
  0.200000  0.200000  0.000000      4.000000
  0.266667  0.200000  0.000000      4.000000
  0.333333  0.200000  0.000000      4.000000
  0.400000  0.200000  0.000000      4.000000
  0.466667  0.200000  0.000000      4.000000
  0.000000  0.266667  0.000000      2.000000
  0.066667  0.266667  0.000000      4.000000
  0.133333  0.266667  0.000000      4.000000
  0.200000  0.266667  0.000000      4.000000
  0.266667  0.266667  0.000000      4.000000
  0.333333  0.266667  0.000000      4.000000
  0.400000  0.266667  0.000000      4.000000
  0.466667  0.266667  0.000000      4.000000
  0.000000  0.333333  0.000000      2.000000
  0.066667  0.333333  0.000000      4.000000
  0.133333  0.333333  0.000000      4.000000
  0.200000  0.333333  0.000000      4.000000
  0.266667  0.333333  0.000000      4.000000
  0.333333  0.333333  0.000000      4.000000
  0.400000  0.333333  0.000000      4.000000
  0.466667  0.333333  0.000000      4.000000
  0.000000  0.400000  0.000000      2.000000
  0.066667  0.400000  0.000000      4.000000
  0.133333  0.400000  0.000000      4.000000
  0.200000  0.400000  0.000000      4.000000
  0.266667  0.400000  0.000000      4.000000
  0.333333  0.400000  0.000000      4.000000
  0.400000  0.400000  0.000000      4.000000
  0.466667  0.400000  0.000000      4.000000
  0.000000  0.466667  0.000000      2.000000
  0.066667  0.466667  0.000000      4.000000
  0.133333  0.466667  0.000000      4.000000
  0.200000  0.466667  0.000000      4.000000
  0.266667  0.466667  0.000000      4.000000
  0.333333  0.466667  0.000000      4.000000
  0.400000  0.466667  0.000000      4.000000
  0.466667  0.466667  0.000000      4.000000
 
 Following cartesian coordinates:
            Coordinates               Weight
  0.000000  0.000000  0.000000      1.000000
  0.015274  0.000000  0.000000      2.000000
  0.030547  0.000000  0.000000      2.000000
  0.045821  0.000000  0.000000      2.000000
  0.061094  0.000000  0.000000      2.000000
  0.076368  0.000000  0.000000      2.000000
  0.091642  0.000000  0.000000      2.000000
  0.106915  0.000000  0.000000      2.000000
  0.000000  0.015531  0.000000      2.000000
  0.015274  0.015531  0.000000      4.000000
  0.030547  0.015531  0.000000      4.000000
  0.045821  0.015531  0.000000      4.000000
  0.061094  0.015531  0.000000      4.000000
  0.076368  0.015531  0.000000      4.000000
  0.091642  0.015531  0.000000      4.000000
  0.106915  0.015531  0.000000      4.000000
  0.000000  0.031062  0.000000      2.000000
  0.015274  0.031062  0.000000      4.000000
  0.030547  0.031062  0.000000      4.000000
  0.045821  0.031062  0.000000      4.000000
  0.061094  0.031062  0.000000      4.000000
  0.076368  0.031062  0.000000      4.000000
  0.091642  0.031062  0.000000      4.000000
  0.106915  0.031062  0.000000      4.000000
  0.000000  0.046593  0.000000      2.000000
  0.015274  0.046593  0.000000      4.000000
  0.030547  0.046593  0.000000      4.000000
  0.045821  0.046593  0.000000      4.000000
  0.061094  0.046593  0.000000      4.000000
  0.076368  0.046593  0.000000      4.000000
  0.091642  0.046593  0.000000      4.000000
  0.106915  0.046593  0.000000      4.000000
  0.000000  0.062124  0.000000      2.000000
  0.015274  0.062124  0.000000      4.000000
  0.030547  0.062124  0.000000      4.000000
  0.045821  0.062124  0.000000      4.000000
  0.061094  0.062124  0.000000      4.000000
  0.076368  0.062124  0.000000      4.000000
  0.091642  0.062124  0.000000      4.000000
  0.106915  0.062124  0.000000      4.000000
  0.000000  0.077655  0.000000      2.000000
  0.015274  0.077655  0.000000      4.000000
  0.030547  0.077655  0.000000      4.000000
  0.045821  0.077655  0.000000      4.000000
  0.061094  0.077655  0.000000      4.000000
  0.076368  0.077655  0.000000      4.000000
  0.091642  0.077655  0.000000      4.000000
  0.106915  0.077655  0.000000      4.000000
  0.000000  0.093186  0.000000      2.000000
  0.015274  0.093186  0.000000      4.000000
  0.030547  0.093186  0.000000      4.000000
  0.045821  0.093186  0.000000      4.000000
  0.061094  0.093186  0.000000      4.000000
  0.076368  0.093186  0.000000      4.000000
  0.091642  0.093186  0.000000      4.000000
  0.106915  0.093186  0.000000      4.000000
  0.000000  0.108717  0.000000      2.000000
  0.015274  0.108717  0.000000      4.000000
  0.030547  0.108717  0.000000      4.000000
  0.045821  0.108717  0.000000      4.000000
  0.061094  0.108717  0.000000      4.000000
  0.076368  0.108717  0.000000      4.000000
  0.091642  0.108717  0.000000      4.000000
  0.106915  0.108717  0.000000      4.000000
 


--------------------------------------------------------------------------------------------------------




 Dimension of arrays:
   k-points           NKPTS =     64   k-points in BZ     NKDIM =     64   number of bands    NBANDS=     14
   number of dos      NEDOS =    301   number of ions     NIONS =      4
   non local maximal  LDIM  =      5   non local SUM 2l+1 LMDIM =     13
   total plane-waves  NPLWV = 207360
   max r-space proj   IRMAX =      1   max aug-charges    IRDMAX=  53460
   dimension x,y,z NGX =    36 NGY =   36 NGZ =  160
   dimension x,y,z NGXF=    72 NGYF=   72 NGZF=  320
   support grid    NGXF=    72 NGYF=   72 NGZF=  320
   ions per type =               2   2
   NGX,Y,Z   is equivalent  to a cutoff of  13.71, 13.94, 13.30 a.u.
   NGXF,Y,Z  is equivalent  to a cutoff of  27.42, 27.89, 26.60 a.u.

 SYSTEM =  SnSe                                    
 POSCAR =   SnSe-Monolayer                         

 Startparameter for this run:
   NWRITE =      2    write-flag & timer
   PREC   = accura    normal or accurate (medium, high low for compatibility)
   ISTART =      0    job   : 0-new  1-cont  2-samecut
   ICHARG =      2    charge: 1-file 2-atom 10-const
   ISPIN  =      1    spin polarized calculation?
   LNONCOLLINEAR =      F non collinear calculations
   LSORBIT =      F    spin-orbit coupling
   INIWAV =      1    electr: 0-lowe 1-rand  2-diag
   LASPH  =      F    aspherical Exc in radial PAW
   METAGGA=      F    non-selfconsistent MetaGGA calc.

 Electronic Relaxation 1
   ENCUT  =  600.0 eV  44.10 Ry    6.64 a.u.   8.72  8.57 39.94*2*pi/ulx,y,z
   ENINI  =  600.0     initial cutoff
   ENAUG  =  446.8 eV  augmentation charge cutoff
   NELM   =     60;   NELMIN=  2; NELMDL= -5     # of ELM steps 
   EDIFF  = 0.1E-05   stopping-criterion for ELM
   LREAL  =      F    real-space projection
   NLSPLINE    = F    spline interpolate recip. space projectors
   LCOMPAT=      F    compatible to vasp.4.4
   GGA_COMPAT  = T    GGA compatible to vasp.4.4-vasp.4.6
   LMAXPAW     = -100 max onsite density
   LMAXMIX     =    2 max onsite mixed and CHGCAR
   VOSKOWN=      0    Vosko Wilk Nusair interpolation
   ROPT   =    0.00000   0.00000
 Ionic relaxation
   EDIFFG = -.1E-02   stopping-criterion for IOM
   NSW    =    100    number of steps for IOM
   NBLOCK =      1;   KBLOCK =    100    inner block; outer block 
   IBRION =      2    ionic relax: 0-MD 1-quasi-New 2-CG
   NFREE  =      1    steps in history (QN), initial steepest desc. (CG)
   ISIF   =      2    stress and relaxation
   IWAVPR =     11    prediction:  0-non 1-charg 2-wave 3-comb
   ISYM   =      2    0-nonsym 1-usesym 2-fastsym
   LCORR  =      T    Harris-Foulkes like correction to forces

   POTIM  = 0.5000    time-step for ionic-motion
   TEIN   =    0.0    initial temperature
   TEBEG  =    0.0;   TEEND  =   0.0 temperature during run
   SMASS  =  -3.00    Nose mass-parameter (am)
   estimated Nose-frequenzy (Omega)   =  0.10E-29 period in steps =****** mass=  -0.435E-27a.u.
   SCALEE = 1.0000    scale energy and forces
   NPACO  =    256;   APACO  = 16.0  distance and # of slots for P.C.
   PSTRESS=    0.0 pullay stress

  Mass of Ions in am
   POMASS = 118.71 78.96
  Ionic Valenz
   ZVAL   =   4.00  6.00
  Atomic Wigner-Seitz radii
   RWIGS  =  -1.00 -1.00
  virtual crystal weights 
   VCA    =   1.00  1.00
   NELECT =      20.0000    total number of electrons
   NUPDOWN=      -1.0000    fix difference up-down

 DOS related values:
   EMIN   =  10.00;   EMAX   =-10.00  energy-range for DOS
   EFERMI =   0.00
   ISMEAR =     0;   SIGMA  =   0.10  broadening in eV -4-tet -1-fermi 0-gaus

 Electronic relaxation 2 (details)
   IALGO  =     38    algorithm
   LDIAG  =      T    sub-space diagonalisation (order eigenvalues)
   LSUBROT=      F    optimize rotation matrix (better conditioning)
   TURBO    =      0    0=normal 1=particle mesh
   IRESTART =      0    0=no restart 2=restart with 2 vectors
   NREBOOT  =      0    no. of reboots
   NMIN     =      0    reboot dimension
   EREF     =   0.00    reference energy to select bands
   IMIX   =      4    mixing-type and parameters
     AMIX     =   0.40;   BMIX     =  1.00
     AMIX_MAG =   1.60;   BMIX_MAG =  1.00
     AMIN     =   0.10
     WC   =   100.;   INIMIX=   1;  MIXPRE=   1;  MAXMIX= -45

 Intra band minimization:
   WEIMIN = 0.0010     energy-eigenvalue tresh-hold
   EBREAK =  0.18E-07  absolut break condition
   DEPER  =   0.30     relativ break condition  

   TIME   =   0.40     timestep for ELM

  volume/ion in A,a.u.               =      93.68       632.18
  Fermi-wavevector in a.u.,A,eV,Ry     =   0.616382  1.164793  5.169214  0.379926
  Thomas-Fermi vector in A             =   1.674090
 
 Write flags
   LWAVE        =      T    write WAVECAR
   LDOWNSAMPLE  =      F    k-point downsampling of WAVECAR
   LCHARG       =      T    write CHGCAR
   LVTOT        =      F    write LOCPOT, total local potential
   LVHAR        =      F    write LOCPOT, Hartree potential only
   LELF         =      F    write electronic localiz. function (ELF)
   LORBIT       =      0    0 simple, 1 ext, 2 COOP (PROOUT), +10 PAW based schemes


 Dipole corrections
   LMONO  =      F    monopole corrections only (constant potential shift)
   LDIPOL =      F    correct potential (dipole corrections)
   IDIPOL =      0    1-x, 2-y, 3-z, 4-all directions 
   EPSILON=  1.0000000 bulk dielectric constant

 Exchange correlation treatment:
   GGA     =    PE    GGA type
   LEXCH   =     8    internal setting for exchange type
   VOSKOWN=      0    Vosko Wilk Nusair interpolation
   LHFCALC =     F    Hartree Fock is set to
   LHFONE  =     F    Hartree Fock one center treatment
   AEXX    =    0.0000 exact exchange contribution

 Linear response parameters
   LEPSILON=     F    determine dielectric tensor
   LRPA    =     F    only Hartree local field effects (RPA)
   LNABLA  =     F    use nabla operator in PAW spheres
   LVEL    =     F    velocity operator in full k-point grid
   LINTERFAST=   F  fast interpolation
   KINTER  =     0    interpolate to denser k-point grid
   CSHIFT  =0.1000    complex shift for real part using Kramers Kronig
   OMEGAMAX=  -1.0    maximum frequency
   DEG_THRESHOLD= 0.2000000E-02 threshold for treating states as degnerate
   RTIME   =   -0.100 relaxation time in fs
  (WPLASMAI=    0.000 imaginary part of plasma frequency in eV, 0.658/RTIME)
   DFIELD  = 0.0000000 0.0000000 0.0000000 field for delta impulse in time
 
 Orbital magnetization related:
   ORBITALMAG=     F  switch on orbital magnetization
   LCHIMAG   =     F  perturbation theory with respect to B field
   DQ        =  0.001000  dq finite difference perturbation B field
   LLRAUG    =     F  two centre corrections for induced B field



--------------------------------------------------------------------------------------------------------


 conjugate gradient relaxation of ions
 charge density and potential will be updated during run
 non-spin polarized calculation
 Variant of blocked Davidson
 Davidson routine will perform the subspace rotation
 perform sub-space diagonalisation
    after iterative eigenvector-optimisation
 modified Broyden-mixing scheme, WC =      100.0
 initial mixing is a Kerker type mixing with AMIX =  0.4000 and BMIX =      1.0000
 Hartree-type preconditioning will be used
 using additional bands            4
 reciprocal scheme for non local part
 use partial core corrections
 calculate Harris-corrections to forces 
   (improved forces if not selfconsistent)
 use gradient corrections 
 use of overlap-Matrix (Vanderbilt PP)
 Gauss-broadening in eV      SIGMA  =   0.10


--------------------------------------------------------------------------------------------------------


  energy-cutoff  :      600.00
  volume of cell :      374.72
      direct lattice vectors                 reciprocal lattice vectors
     4.364827338  0.000000000  0.000000000     0.229104137  0.000000000  0.000000000
     0.000000000  4.292477857  0.000000000     0.000000000  0.232965675  0.000000000
     0.000000000  0.000000000 20.000000000     0.000000000  0.000000000  0.050000000

  length of vectors
     4.364827338  4.292477857 20.000000000     0.229104137  0.232965675  0.050000000


 
 k-points in units of 2pi/SCALE and weight: Automatic                               
   0.00000000  0.00000000  0.00000000       0.004
   0.01527361  0.00000000  0.00000000       0.009
   0.03054722  0.00000000  0.00000000       0.009
   0.04582083  0.00000000  0.00000000       0.009
   0.06109444  0.00000000  0.00000000       0.009
   0.07636805  0.00000000  0.00000000       0.009
   0.09164165  0.00000000  0.00000000       0.009
   0.10691526  0.00000000  0.00000000       0.009
   0.00000000  0.01553104  0.00000000       0.009
   0.01527361  0.01553104  0.00000000       0.018
   0.03054722  0.01553104  0.00000000       0.018
   0.04582083  0.01553104  0.00000000       0.018
   0.06109444  0.01553104  0.00000000       0.018
   0.07636805  0.01553104  0.00000000       0.018
   0.09164165  0.01553104  0.00000000       0.018
   0.10691526  0.01553104  0.00000000       0.018
   0.00000000  0.03106209  0.00000000       0.009
   0.01527361  0.03106209  0.00000000       0.018
   0.03054722  0.03106209  0.00000000       0.018
   0.04582083  0.03106209  0.00000000       0.018
   0.06109444  0.03106209  0.00000000       0.018
   0.07636805  0.03106209  0.00000000       0.018
   0.09164165  0.03106209  0.00000000       0.018
   0.10691526  0.03106209  0.00000000       0.018
   0.00000000  0.04659313  0.00000000       0.009
   0.01527361  0.04659313  0.00000000       0.018
   0.03054722  0.04659313  0.00000000       0.018
   0.04582083  0.04659313  0.00000000       0.018
   0.06109444  0.04659313  0.00000000       0.018
   0.07636805  0.04659313  0.00000000       0.018
   0.09164165  0.04659313  0.00000000       0.018
   0.10691526  0.04659313  0.00000000       0.018
   0.00000000  0.06212418  0.00000000       0.009
   0.01527361  0.06212418  0.00000000       0.018
   0.03054722  0.06212418  0.00000000       0.018
   0.04582083  0.06212418  0.00000000       0.018
   0.06109444  0.06212418  0.00000000       0.018
   0.07636805  0.06212418  0.00000000       0.018
   0.09164165  0.06212418  0.00000000       0.018
   0.10691526  0.06212418  0.00000000       0.018
   0.00000000  0.07765522  0.00000000       0.009
   0.01527361  0.07765522  0.00000000       0.018
   0.03054722  0.07765522  0.00000000       0.018
   0.04582083  0.07765522  0.00000000       0.018
   0.06109444  0.07765522  0.00000000       0.018
   0.07636805  0.07765522  0.00000000       0.018
   0.09164165  0.07765522  0.00000000       0.018
   0.10691526  0.07765522  0.00000000       0.018
   0.00000000  0.09318627  0.00000000       0.009
   0.01527361  0.09318627  0.00000000       0.018
   0.03054722  0.09318627  0.00000000       0.018
   0.04582083  0.09318627  0.00000000       0.018
   0.06109444  0.09318627  0.00000000       0.018
   0.07636805  0.09318627  0.00000000       0.018
   0.09164165  0.09318627  0.00000000       0.018
   0.10691526  0.09318627  0.00000000       0.018
   0.00000000  0.10871731  0.00000000       0.009
   0.01527361  0.10871731  0.00000000       0.018
   0.03054722  0.10871731  0.00000000       0.018
   0.04582083  0.10871731  0.00000000       0.018
   0.06109444  0.10871731  0.00000000       0.018
   0.07636805  0.10871731  0.00000000       0.018
   0.09164165  0.10871731  0.00000000       0.018
   0.10691526  0.10871731  0.00000000       0.018
 
 k-points in reciprocal lattice and weights: Automatic                               
   0.00000000  0.00000000  0.00000000       0.004
   0.06666667  0.00000000  0.00000000       0.009
   0.13333333  0.00000000  0.00000000       0.009
   0.20000000  0.00000000  0.00000000       0.009
   0.26666667  0.00000000  0.00000000       0.009
   0.33333333  0.00000000  0.00000000       0.009
   0.40000000  0.00000000  0.00000000       0.009
   0.46666667  0.00000000  0.00000000       0.009
   0.00000000  0.06666667  0.00000000       0.009
   0.06666667  0.06666667  0.00000000       0.018
   0.13333333  0.06666667  0.00000000       0.018
   0.20000000  0.06666667  0.00000000       0.018
   0.26666667  0.06666667  0.00000000       0.018
   0.33333333  0.06666667  0.00000000       0.018
   0.40000000  0.06666667  0.00000000       0.018
   0.46666667  0.06666667  0.00000000       0.018
   0.00000000  0.13333333  0.00000000       0.009
   0.06666667  0.13333333  0.00000000       0.018
   0.13333333  0.13333333  0.00000000       0.018
   0.20000000  0.13333333  0.00000000       0.018
   0.26666667  0.13333333  0.00000000       0.018
   0.33333333  0.13333333  0.00000000       0.018
   0.40000000  0.13333333  0.00000000       0.018
   0.46666667  0.13333333  0.00000000       0.018
   0.00000000  0.20000000  0.00000000       0.009
   0.06666667  0.20000000  0.00000000       0.018
   0.13333333  0.20000000  0.00000000       0.018
   0.20000000  0.20000000  0.00000000       0.018
   0.26666667  0.20000000  0.00000000       0.018
   0.33333333  0.20000000  0.00000000       0.018
   0.40000000  0.20000000  0.00000000       0.018
   0.46666667  0.20000000  0.00000000       0.018
   0.00000000  0.26666667  0.00000000       0.009
   0.06666667  0.26666667  0.00000000       0.018
   0.13333333  0.26666667  0.00000000       0.018
   0.20000000  0.26666667  0.00000000       0.018
   0.26666667  0.26666667  0.00000000       0.018
   0.33333333  0.26666667  0.00000000       0.018
   0.40000000  0.26666667  0.00000000       0.018
   0.46666667  0.26666667  0.00000000       0.018
   0.00000000  0.33333333  0.00000000       0.009
   0.06666667  0.33333333  0.00000000       0.018
   0.13333333  0.33333333  0.00000000       0.018
   0.20000000  0.33333333  0.00000000       0.018
   0.26666667  0.33333333  0.00000000       0.018
   0.33333333  0.33333333  0.00000000       0.018
   0.40000000  0.33333333  0.00000000       0.018
   0.46666667  0.33333333  0.00000000       0.018
   0.00000000  0.40000000  0.00000000       0.009
   0.06666667  0.40000000  0.00000000       0.018
   0.13333333  0.40000000  0.00000000       0.018
   0.20000000  0.40000000  0.00000000       0.018
   0.26666667  0.40000000  0.00000000       0.018
   0.33333333  0.40000000  0.00000000       0.018
   0.40000000  0.40000000  0.00000000       0.018
   0.46666667  0.40000000  0.00000000       0.018
   0.00000000  0.46666667  0.00000000       0.009
   0.06666667  0.46666667  0.00000000       0.018
   0.13333333  0.46666667  0.00000000       0.018
   0.20000000  0.46666667  0.00000000       0.018
   0.26666667  0.46666667  0.00000000       0.018
   0.33333333  0.46666667  0.00000000       0.018
   0.40000000  0.46666667  0.00000000       0.018
   0.46666667  0.46666667  0.00000000       0.018
 
 position of ions in fractional coordinates (direct lattice) 
   0.58124336  0.75000000  0.56874314
   0.08124336  0.25000000  0.43125686
   0.03286064  0.25000000  0.56707387
   0.53286061  0.75000000  0.43292613
 
 position of ions in cartesian coordinates  (Angst):
   2.53702690  3.21935839 11.37486283
   0.35461323  1.07311946  8.62513717
   0.14343103  1.07311946 11.34147733
   2.32584458  3.21935839  8.65852267
 


--------------------------------------------------------------------------------------------------------


 k-point  1 :   0.0000 0.0000 0.0000  plane waves:   12571
 k-point  2 :   0.0667 0.0000 0.0000  plane waves:   12551
 k-point  3 :   0.1333 0.0000 0.0000  plane waves:   12527
 k-point  4 :   0.2000 0.0000 0.0000  plane waves:   12509
 k-point  5 :   0.2667 0.0000 0.0000  plane waves:   12487
 k-point  6 :   0.3333 0.0000 0.0000  plane waves:   12508
 k-point  7 :   0.4000 0.0000 0.0000  plane waves:   12550
 k-point  8 :   0.4667 0.0000 0.0000  plane waves:   12540
 k-point  9 :   0.0000 0.0667 0.0000  plane waves:   12553
 k-point 10 :   0.0667 0.0667 0.0000  plane waves:   12526
 k-point 11 :   0.1333 0.0667 0.0000  plane waves:   12506
 k-point 12 :   0.2000 0.0667 0.0000  plane waves:   12513
 k-point 13 :   0.2667 0.0667 0.0000  plane waves:   12510
 k-point 14 :   0.3333 0.0667 0.0000  plane waves:   12522
 k-point 15 :   0.4000 0.0667 0.0000  plane waves:   12548
 k-point 16 :   0.4667 0.0667 0.0000  plane waves:   12531
 k-point 17 :   0.0000 0.1333 0.0000  plane waves:   12517
 k-point 18 :   0.0667 0.1333 0.0000  plane waves:   12532
 k-point 19 :   0.1333 0.1333 0.0000  plane waves:   12498
 k-point 20 :   0.2000 0.1333 0.0000  plane waves:   12494
 k-point 21 :   0.2667 0.1333 0.0000  plane waves:   12510
 k-point 22 :   0.3333 0.1333 0.0000  plane waves:   12522
 k-point 23 :   0.4000 0.1333 0.0000  plane waves:   12523
 k-point 24 :   0.4667 0.1333 0.0000  plane waves:   12521
 k-point 25 :   0.0000 0.2000 0.0000  plane waves:   12521
 k-point 26 :   0.0667 0.2000 0.0000  plane waves:   12520
 k-point 27 :   0.1333 0.2000 0.0000  plane waves:   12526
 k-point 28 :   0.2000 0.2000 0.0000  plane waves:   12499
 k-point 29 :   0.2667 0.2000 0.0000  plane waves:   12507
 k-point 30 :   0.3333 0.2000 0.0000  plane waves:   12505
 k-point 31 :   0.4000 0.2000 0.0000  plane waves:   12509
 k-point 32 :   0.4667 0.2000 0.0000  plane waves:   12525
 k-point 33 :   0.0000 0.2667 0.0000  plane waves:   12505
 k-point 34 :   0.0667 0.2667 0.0000  plane waves:   12493
 k-point 35 :   0.1333 0.2667 0.0000  plane waves:   12508
 k-point 36 :   0.2000 0.2667 0.0000  plane waves:   12499
 k-point 37 :   0.2667 0.2667 0.0000  plane waves:   12501
 k-point 38 :   0.3333 0.2667 0.0000  plane waves:   12509
 k-point 39 :   0.4000 0.2667 0.0000  plane waves:   12490
 k-point 40 :   0.4667 0.2667 0.0000  plane waves:   12509
 k-point 41 :   0.0000 0.3333 0.0000  plane waves:   12487
 k-point 42 :   0.0667 0.3333 0.0000  plane waves:   12491
 k-point 43 :   0.1333 0.3333 0.0000  plane waves:   12504
 k-point 44 :   0.2000 0.3333 0.0000  plane waves:   12509
 k-point 45 :   0.2667 0.3333 0.0000  plane waves:   12485
 k-point 46 :   0.3333 0.3333 0.0000  plane waves:   12481
 k-point 47 :   0.4000 0.3333 0.0000  plane waves:   12489
 k-point 48 :   0.4667 0.3333 0.0000  plane waves:   12501
 k-point 49 :   0.0000 0.4000 0.0000  plane waves:   12465
 k-point 50 :   0.0667 0.4000 0.0000  plane waves:   12489
 k-point 51 :   0.1333 0.4000 0.0000  plane waves:   12510
 k-point 52 :   0.2000 0.4000 0.0000  plane waves:   12499
 k-point 53 :   0.2667 0.4000 0.0000  plane waves:   12491
 k-point 54 :   0.3333 0.4000 0.0000  plane waves:   12486
 k-point 55 :   0.4000 0.4000 0.0000  plane waves:   12480
 k-point 56 :   0.4667 0.4000 0.0000  plane waves:   12487
 k-point 57 :   0.0000 0.4667 0.0000  plane waves:   12482
 k-point 58 :   0.0667 0.4667 0.0000  plane waves:   12494
 k-point 59 :   0.1333 0.4667 0.0000  plane waves:   12494
 k-point 60 :   0.2000 0.4667 0.0000  plane waves:   12488
 k-point 61 :   0.2667 0.4667 0.0000  plane waves:   12474
 k-point 62 :   0.3333 0.4667 0.0000  plane waves:   12466
 k-point 63 :   0.4000 0.4667 0.0000  plane waves:   12469
 k-point 64 :   0.4667 0.4667 0.0000  plane waves:   12482

 maximum and minimum number of plane-waves per node :       548      501

 maximum number of plane-waves:     12571
 maximum index in each direction: 
   IXMAX=    8   IYMAX=    8   IZMAX=   39
   IXMIN=   -9   IYMIN=   -9   IZMIN=  -39


 parallel 3D FFT for wavefunctions:
    minimum data exchange during FFTs selected (reduces bandwidth)
 parallel 3D FFT for charge:
    minimum data exchange during FFTs selected (reduces bandwidth)


 total amount of memory used by VASP MPI-rank0    51575. kBytes
=======================================================================

   base      :      30000. kBytes
   nonl-proj :       6928. kBytes
   fftplans  :       2678. kBytes
   grid      :       4349. kBytes
   one-center:          8. kBytes
   wavefun   :       7612. kBytes
 
     INWAV:  cpu time    0.0000: real time    0.0000
 Broyden mixing: mesh for mixing (old mesh)
   NGX = 17   NGY = 17   NGZ = 79
  (NGX  = 72   NGY  = 72   NGZ  =320)
  gives a total of  22831 points

 initial charge density was supplied:
 charge density of overlapping atoms calculated
 number of electron      20.0000000 magnetization 
 keeping initial charge density in first step


--------------------------------------------------------------------------------------------------------


 Maximum index for augmentation-charges         2234 (set IRDMAX)


--------------------------------------------------------------------------------------------------------


 First call to EWALD:  gamma=   0.246
 Maximum number of real-space cells 4x 4x 1
 Maximum number of reciprocal cells 2x 2x 7

    FEWALD:  cpu time    0.0011: real time    0.0027


--------------------------------------- Iteration      1(   1)  ---------------------------------------


    POTLOK:  cpu time    0.0547: real time    0.1456
    SETDIJ:  cpu time    0.0066: real time    0.0074
     EDDAV:  cpu time    1.7586: real time    1.7649
       DOS:  cpu time    0.0027: real time    0.0027
    --------------------------------------------
      LOOP:  cpu time    1.8227: real time    1.9206

 eigenvalue-minimisations  :  1792
 total energy-change (2. order) : 0.1423991E+03  (-0.6299851E+03)
 number of electron      20.0000000 magnetization 
 augmentation part       20.0000000 magnetization 

 Free energy of the ion-electron system (eV)
  ---------------------------------------------------
  alpha Z        PSCENC =         9.54238709
  Ewald energy   TEWEN  =      1159.17075369
  -Hartree energ DENC   =     -1761.14373773
  -exchange      EXHF   =         0.00000000
  -V(xc)+E(xc)   XCENC  =      -238.56010656
  PAW double counting   =       799.43158084     -524.17639913
  entropy T*S    EENTRO =        -0.01176690
  eigenvalues    EBANDS =        -4.28152918
  atomic energy  EATOM  =       702.42789710
  Solvation  Ediel_sol  =         0.00000000
  ---------------------------------------------------
  free energy    TOTEN  =       142.39907923 eV

  energy without entropy =      142.41084613  energy(sigma->0) =      142.40496268


--------------------------------------------------------------------------------------------------------




--------------------------------------- Iteration      1(   2)  ---------------------------------------


     EDDAV:  cpu time    2.5044: real time    2.5099
       DOS:  cpu time    0.0025: real time    0.0025
    --------------------------------------------
      LOOP:  cpu time    2.5069: real time    2.5124

 eigenvalue-minimisations  :  3064
 total energy-change (2. order) :-0.1387172E+03  (-0.1345308E+03)
 number of electron      20.0000000 magnetization 
 augmentation part       20.0000000 magnetization 

 Free energy of the ion-electron system (eV)
  ---------------------------------------------------
  alpha Z        PSCENC =         9.54238709
  Ewald energy   TEWEN  =      1159.17075369
  -Hartree energ DENC   =     -1761.14373773
  -exchange      EXHF   =         0.00000000
  -V(xc)+E(xc)   XCENC  =      -238.56010656
  PAW double counting   =       799.43158084     -524.17639913
  entropy T*S    EENTRO =        -0.00000858
  eigenvalues    EBANDS =      -143.01052911
  atomic energy  EATOM  =       702.42789710
  Solvation  Ediel_sol  =         0.00000000
  ---------------------------------------------------
  free energy    TOTEN  =         3.68183761 eV

  energy without entropy =        3.68184619  energy(sigma->0) =        3.68184190


--------------------------------------------------------------------------------------------------------




--------------------------------------- Iteration      1(   3)  ---------------------------------------


     EDDAV:  cpu time    1.9368: real time    1.9411
       DOS:  cpu time    0.0018: real time    0.0018
    --------------------------------------------
      LOOP:  cpu time    1.9386: real time    1.9429

 eigenvalue-minimisations  :  2206
 total energy-change (2. order) :-0.1968822E+02  (-0.1956076E+02)
 number of electron      20.0000000 magnetization 
 augmentation part       20.0000000 magnetization 

 Free energy of the ion-electron system (eV)
  ---------------------------------------------------
  alpha Z        PSCENC =         9.54238709
  Ewald energy   TEWEN  =      1159.17075369
  -Hartree energ DENC   =     -1761.14373773
  -exchange      EXHF   =         0.00000000
  -V(xc)+E(xc)   XCENC  =      -238.56010656
  PAW double counting   =       799.43158084     -524.17639913
  entropy T*S    EENTRO =        -0.00000000
  eigenvalues    EBANDS =      -162.69875708
  atomic energy  EATOM  =       702.42789710
  Solvation  Ediel_sol  =         0.00000000
  ---------------------------------------------------
  free energy    TOTEN  =       -16.00638177 eV

  energy without entropy =      -16.00638177  energy(sigma->0) =      -16.00638177


--------------------------------------------------------------------------------------------------------




--------------------------------------- Iteration      1(   4)  ---------------------------------------


     EDDAV:  cpu time    2.3085: real time    2.3135
       DOS:  cpu time    0.0018: real time    0.0017
    --------------------------------------------
      LOOP:  cpu time    2.3102: real time    2.3153

 eigenvalue-minimisations  :  2666
 total energy-change (2. order) :-0.7715390E+00  (-0.7698114E+00)
 number of electron      20.0000000 magnetization 
 augmentation part       20.0000000 magnetization 

 Free energy of the ion-electron system (eV)
  ---------------------------------------------------
  alpha Z        PSCENC =         9.54238709
  Ewald energy   TEWEN  =      1159.17075369
  -Hartree energ DENC   =     -1761.14373773
  -exchange      EXHF   =         0.00000000
  -V(xc)+E(xc)   XCENC  =      -238.56010656
  PAW double counting   =       799.43158084     -524.17639913
  entropy T*S    EENTRO =        -0.00000000
  eigenvalues    EBANDS =      -163.47029607
  atomic energy  EATOM  =       702.42789710
  Solvation  Ediel_sol  =         0.00000000
  ---------------------------------------------------
  free energy    TOTEN  =       -16.77792077 eV

  energy without entropy =      -16.77792077  energy(sigma->0) =      -16.77792077


--------------------------------------------------------------------------------------------------------




--------------------------------------- Iteration      1(   5)  ---------------------------------------


     EDDAV:  cpu time    1.9672: real time    1.9716
       DOS:  cpu time    0.0019: real time    0.0019
    CHARGE:  cpu time    0.1739: real time    0.1742
    MIXING:  cpu time    0.0025: real time    0.0026
    --------------------------------------------
      LOOP:  cpu time    2.1455: real time    2.1502

 eigenvalue-minimisations  :  2230
 total energy-change (2. order) :-0.1450559E-01  (-0.1448770E-01)
 number of electron      20.0000000 magnetization 
 augmentation part       -4.5241342 magnetization 

 Broyden mixing:
  rms(total) = 0.45311E+00    rms(broyden)= 0.45310E+00
  rms(prec ) = 0.49323E+00
  weight for this iteration     100.00

 Free energy of the ion-electron system (eV)
  ---------------------------------------------------
  alpha Z        PSCENC =         9.54238709
  Ewald energy   TEWEN  =      1159.17075369
  -Hartree energ DENC   =     -1761.14373773
  -exchange      EXHF   =         0.00000000
  -V(xc)+E(xc)   XCENC  =      -238.56010656
  PAW double counting   =       799.43158084     -524.17639913
  entropy T*S    EENTRO =        -0.00000000
  eigenvalues    EBANDS =      -163.48480166
  atomic energy  EATOM  =       702.42789710
  Solvation  Ediel_sol  =         0.00000000
  ---------------------------------------------------
  free energy    TOTEN  =       -16.79242636 eV

  energy without entropy =      -16.79242636  energy(sigma->0) =      -16.79242636


--------------------------------------------------------------------------------------------------------




--------------------------------------- Iteration      1(   6)  ---------------------------------------


    POTLOK:  cpu time    0.0520: real time    0.0521
    SETDIJ:  cpu time    0.0040: real time    0.0040
     EDDAV:  cpu time    2.0219: real time    2.0264
       DOS:  cpu time    0.0019: real time    0.0019
    CHARGE:  cpu time    0.1596: real time    0.1598
    MIXING:  cpu time    0.0036: real time    0.0036
    --------------------------------------------
      LOOP:  cpu time    2.2429: real time    2.2478

 eigenvalue-minimisations  :  2298
 total energy-change (2. order) : 0.4865072E+00  (-0.1241423E+00)
 number of electron      20.0000000 magnetization 
 augmentation part       -4.4915050 magnetization 

 Broyden mixing:
  rms(total) = 0.27841E+00    rms(broyden)= 0.27841E+00
  rms(prec ) = 0.28752E+00
  weight for this iteration     100.00

 eigenvalues of (default mixing * dielectric matrix)
  average eigenvalue GAMMA=   1.8118
  1.8118

 Free energy of the ion-electron system (eV)
  ---------------------------------------------------
  alpha Z        PSCENC =         9.54238709
  Ewald energy   TEWEN  =      1159.17075369
  -Hartree energ DENC   =     -1769.01839904
  -exchange      EXHF   =         0.00000000
  -V(xc)+E(xc)   XCENC  =      -238.07795757
  PAW double counting   =       925.09888725     -650.02776908
  entropy T*S    EENTRO =        -0.00000000
  eigenvalues    EBANDS =      -155.42171858
  atomic energy  EATOM  =       702.42789710
  Solvation  Ediel_sol  =         0.00000000
  ---------------------------------------------------
  free energy    TOTEN  =       -16.30591914 eV

  energy without entropy =      -16.30591914  energy(sigma->0) =      -16.30591914


--------------------------------------------------------------------------------------------------------




--------------------------------------- Iteration      1(   7)  ---------------------------------------


    POTLOK:  cpu time    0.0474: real time    0.0476
    SETDIJ:  cpu time    0.0040: real time    0.0039
     EDDAV:  cpu time    2.0405: real time    2.0450
       DOS:  cpu time    0.0019: real time    0.0019
    CHARGE:  cpu time    0.1558: real time    0.1573
    MIXING:  cpu time    0.0021: real time    0.0021
    --------------------------------------------
      LOOP:  cpu time    2.2517: real time    2.2578

 eigenvalue-minimisations  :  2294
 total energy-change (2. order) : 0.2816961E-01  (-0.3118650E-01)
 number of electron      20.0000000 magnetization 
 augmentation part       -4.4830332 magnetization 

 Broyden mixing:
  rms(total) = 0.10432E+00    rms(broyden)= 0.10432E+00
  rms(prec ) = 0.10974E+00
  weight for this iteration     100.00

 eigenvalues of (default mixing * dielectric matrix)
  average eigenvalue GAMMA=   1.7327
  1.3711  2.0943

 Free energy of the ion-electron system (eV)
  ---------------------------------------------------
  alpha Z        PSCENC =         9.54238709
  Ewald energy   TEWEN  =      1159.17075369
  -Hartree energ DENC   =     -1774.09726052
  -exchange      EXHF   =         0.00000000
  -V(xc)+E(xc)   XCENC  =      -237.75113290
  PAW double counting   =      1068.47058385     -793.54120939
  entropy T*S    EENTRO =        -0.00000000
  eigenvalues    EBANDS =      -150.49976844
  atomic energy  EATOM  =       702.42789710
  Solvation  Ediel_sol  =         0.00000000
  ---------------------------------------------------
  free energy    TOTEN  =       -16.27774953 eV

  energy without entropy =      -16.27774953  energy(sigma->0) =      -16.27774953


--------------------------------------------------------------------------------------------------------




--------------------------------------- Iteration      1(   8)  ---------------------------------------


    POTLOK:  cpu time    0.0477: real time    0.0478
    SETDIJ:  cpu time    0.0040: real time    0.0040
     EDDAV:  cpu time    2.1975: real time    2.2026
       DOS:  cpu time    0.0020: real time    0.0020
    CHARGE:  cpu time    0.1527: real time    0.1530
    MIXING:  cpu time    0.0017: real time    0.0017
    --------------------------------------------
      LOOP:  cpu time    2.4056: real time    2.4110

 eigenvalue-minimisations  :  2566
 total energy-change (2. order) : 0.9739943E-02  (-0.3780190E-02)
 number of electron      20.0000000 magnetization 
 augmentation part       -4.4871232 magnetization 

 Broyden mixing:
  rms(total) = 0.20364E-01    rms(broyden)= 0.20364E-01
  rms(prec ) = 0.27795E-01
  weight for this iteration     100.00

 eigenvalues of (default mixing * dielectric matrix)
  average eigenvalue GAMMA=   1.7123
  2.5376  1.2997  1.2997

 Free energy of the ion-electron system (eV)
  ---------------------------------------------------
  alpha Z        PSCENC =         9.54238709
  Ewald energy   TEWEN  =      1159.17075369
  -Hartree energ DENC   =     -1775.81584155
  -exchange      EXHF   =         0.00000000
  -V(xc)+E(xc)   XCENC  =      -237.67208959
  PAW double counting   =      1134.31750968     -859.42765430
  entropy T*S    EENTRO =        -0.00000000
  eigenvalues    EBANDS =      -148.81097171
  atomic energy  EATOM  =       702.42789710
  Solvation  Ediel_sol  =         0.00000000
  ---------------------------------------------------
  free energy    TOTEN  =       -16.26800958 eV

  energy without entropy =      -16.26800958  energy(sigma->0) =      -16.26800958


--------------------------------------------------------------------------------------------------------




--------------------------------------- Iteration      1(   9)  ---------------------------------------


    POTLOK:  cpu time    0.0466: real time    0.0467
    SETDIJ:  cpu time    0.0039: real time    0.0039
     EDDAV:  cpu time    2.1033: real time    2.1080
       DOS:  cpu time    0.0019: real time    0.0019
    CHARGE:  cpu time    0.1680: real time    0.1682
    MIXING:  cpu time    0.0018: real time    0.0018
    --------------------------------------------
      LOOP:  cpu time    2.3254: real time    2.3305

 eigenvalue-minimisations  :  2416
 total energy-change (2. order) : 0.3762556E-02  (-0.6447974E-03)
 number of electron      20.0000000 magnetization 
 augmentation part       -4.4852531 magnetization 

 Broyden mixing:
  rms(total) = 0.10151E-01    rms(broyden)= 0.10151E-01
  rms(prec ) = 0.15673E-01
  weight for this iteration     100.00

 eigenvalues of (default mixing * dielectric matrix)
  average eigenvalue GAMMA=   1.6838
  2.1796  2.1796  1.1880  1.1880

 Free energy of the ion-electron system (eV)
  ---------------------------------------------------
  alpha Z        PSCENC =         9.54238709
  Ewald energy   TEWEN  =      1159.17075369
  -Hartree energ DENC   =     -1777.81464030
  -exchange      EXHF   =         0.00000000
  -V(xc)+E(xc)   XCENC  =      -237.59856243
  PAW double counting   =      1152.80224404     -877.92455811
  entropy T*S    EENTRO =        -0.00000000
  eigenvalues    EBANDS =      -146.86976812
  atomic energy  EATOM  =       702.42789710
  Solvation  Ediel_sol  =         0.00000000
  ---------------------------------------------------
  free energy    TOTEN  =       -16.26424703 eV

  energy without entropy =      -16.26424703  energy(sigma->0) =      -16.26424703


--------------------------------------------------------------------------------------------------------




--------------------------------------- Iteration      1(  10)  ---------------------------------------


    POTLOK:  cpu time    0.0530: real time    0.0532
    SETDIJ:  cpu time    0.0038: real time    0.0038
     EDDAV:  cpu time    2.1414: real time    2.1460
       DOS:  cpu time    0.0019: real time    0.0020
    CHARGE:  cpu time    0.1579: real time    0.1581
    MIXING:  cpu time    0.0022: real time    0.0022
    --------------------------------------------
      LOOP:  cpu time    2.3601: real time    2.3652

 eigenvalue-minimisations  :  2466
 total energy-change (2. order) : 0.1185106E-02  (-0.1062707E-03)
 number of electron      20.0000000 magnetization 
 augmentation part       -4.4840226 magnetization 

 Broyden mixing:
  rms(total) = 0.50984E-02    rms(broyden)= 0.50984E-02
  rms(prec ) = 0.95501E-02
  weight for this iteration     100.00

 eigenvalues of (default mixing * dielectric matrix)
  average eigenvalue GAMMA=   1.8720
  3.3660  2.6031  1.2434  1.2434  0.9044

 Free energy of the ion-electron system (eV)
  ---------------------------------------------------
  alpha Z        PSCENC =         9.54238709
  Ewald energy   TEWEN  =      1159.17075369
  -Hartree energ DENC   =     -1779.01299208
  -exchange      EXHF   =         0.00000000
  -V(xc)+E(xc)   XCENC  =      -237.58833093
  PAW double counting   =      1142.51549328     -867.62793271
  entropy T*S    EENTRO =        -0.00000000
  eigenvalues    EBANDS =      -145.69033736
  atomic energy  EATOM  =       702.42789710
  Solvation  Ediel_sol  =         0.00000000
  ---------------------------------------------------
  free energy    TOTEN  =       -16.26306192 eV

  energy without entropy =      -16.26306192  energy(sigma->0) =      -16.26306192


--------------------------------------------------------------------------------------------------------




--------------------------------------- Iteration      1(  11)  ---------------------------------------


    POTLOK:  cpu time    0.0504: real time    0.0505
    SETDIJ:  cpu time    0.0040: real time    0.0040
     EDDAV:  cpu time    2.1349: real time    2.1394
       DOS:  cpu time    0.0019: real time    0.0019
    CHARGE:  cpu time    0.1569: real time    0.1571
    MIXING:  cpu time    0.0022: real time    0.0022
    --------------------------------------------
      LOOP:  cpu time    2.3503: real time    2.3551

 eigenvalue-minimisations  :  2422
 total energy-change (2. order) : 0.7945707E-03  (-0.1394993E-03)
 number of electron      20.0000000 magnetization 
 augmentation part       -4.4825724 magnetization 

 Broyden mixing:
  rms(total) = 0.33516E-02    rms(broyden)= 0.33516E-02
  rms(prec ) = 0.50382E-02
  weight for this iteration     100.00

 eigenvalues of (default mixing * dielectric matrix)
  average eigenvalue GAMMA=   1.8194
  3.3968  2.3372  1.9208  1.1944  1.1944  0.8729

 Free energy of the ion-electron system (eV)
  ---------------------------------------------------
  alpha Z        PSCENC =         9.54238709
  Ewald energy   TEWEN  =      1159.17075369
  -Hartree energ DENC   =     -1780.69954044
  -exchange      EXHF   =         0.00000000
  -V(xc)+E(xc)   XCENC  =      -237.55615258
  PAW double counting   =      1143.42748219     -868.53829969
  entropy T*S    EENTRO =        -0.00000000
  eigenvalues    EBANDS =      -144.03679471
  atomic energy  EATOM  =       702.42789710
  Solvation  Ediel_sol  =         0.00000000
  ---------------------------------------------------
  free energy    TOTEN  =       -16.26226735 eV

  energy without entropy =      -16.26226735  energy(sigma->0) =      -16.26226735


--------------------------------------------------------------------------------------------------------




--------------------------------------- Iteration      1(  12)  ---------------------------------------


    POTLOK:  cpu time    0.0485: real time    0.0487
    SETDIJ:  cpu time    0.0039: real time    0.0039
     EDDAV:  cpu time    1.8971: real time    1.9010
       DOS:  cpu time    0.0021: real time    0.0021
    CHARGE:  cpu time    0.1556: real time    0.1558
    MIXING:  cpu time    0.0023: real time    0.0022
    --------------------------------------------
      LOOP:  cpu time    2.1094: real time    2.1137

 eigenvalue-minimisations  :  2044
 total energy-change (2. order) :-0.7948498E-03  (-0.2864817E-04)
 number of electron      20.0000000 magnetization 
 augmentation part       -4.4819780 magnetization 

 Broyden mixing:
  rms(total) = 0.19145E-02    rms(broyden)= 0.19145E-02
  rms(prec ) = 0.29230E-02
  weight for this iteration     100.00

 eigenvalues of (default mixing * dielectric matrix)
  average eigenvalue GAMMA=   2.0709
  4.6290  3.0775  2.4995  1.2095  1.2095  1.0269  0.8445

 Free energy of the ion-electron system (eV)
  ---------------------------------------------------
  alpha Z        PSCENC =         9.54238709
  Ewald energy   TEWEN  =      1159.17075369
  -Hartree energ DENC   =     -1781.29554770
  -exchange      EXHF   =         0.00000000
  -V(xc)+E(xc)   XCENC  =      -237.54679146
  PAW double counting   =      1145.54115010     -870.65492662
  entropy T*S    EENTRO =        -0.00000000
  eigenvalues    EBANDS =      -143.44798440
  atomic energy  EATOM  =       702.42789710
  Solvation  Ediel_sol  =         0.00000000
  ---------------------------------------------------
  free energy    TOTEN  =       -16.26306220 eV

  energy without entropy =      -16.26306220  energy(sigma->0) =      -16.26306220


--------------------------------------------------------------------------------------------------------




--------------------------------------- Iteration      1(  13)  ---------------------------------------


    POTLOK:  cpu time    0.0482: real time    0.0483
    SETDIJ:  cpu time    0.0039: real time    0.0039
     EDDAV:  cpu time    1.9252: real time    1.9291
       DOS:  cpu time    0.0019: real time    0.0019
    CHARGE:  cpu time    0.1555: real time    0.1557
    MIXING:  cpu time    0.0022: real time    0.0022
    --------------------------------------------
      LOOP:  cpu time    2.1368: real time    2.1412

 eigenvalue-minimisations  :  2098
 total energy-change (2. order) :-0.4650763E-03  (-0.8630440E-05)
 number of electron      20.0000000 magnetization 
 augmentation part       -4.4817446 magnetization 

 Broyden mixing:
  rms(total) = 0.11535E-02    rms(broyden)= 0.11535E-02
  rms(prec ) = 0.15274E-02
  weight for this iteration     100.00

 eigenvalues of (default mixing * dielectric matrix)
  average eigenvalue GAMMA=   2.2148
  5.4725  3.3537  2.5105  2.0858  1.1607  1.1607  1.0671  0.9073

 Free energy of the ion-electron system (eV)
  ---------------------------------------------------
  alpha Z        PSCENC =         9.54238709
  Ewald energy   TEWEN  =      1159.17075369
  -Hartree energ DENC   =     -1781.74075660
  -exchange      EXHF   =         0.00000000
  -V(xc)+E(xc)   XCENC  =      -237.54528770
  PAW double counting   =      1144.21356189     -869.32606353
  entropy T*S    EENTRO =        -0.00000000
  eigenvalues    EBANDS =      -143.00601921
  atomic energy  EATOM  =       702.42789710
  Solvation  Ediel_sol  =         0.00000000
  ---------------------------------------------------
  free energy    TOTEN  =       -16.26352728 eV

  energy without entropy =      -16.26352728  energy(sigma->0) =      -16.26352728


--------------------------------------------------------------------------------------------------------




--------------------------------------- Iteration      1(  14)  ---------------------------------------


    POTLOK:  cpu time    0.0495: real time    0.0497
    SETDIJ:  cpu time    0.0039: real time    0.0039
     EDDAV:  cpu time    1.9886: real time    1.9929
       DOS:  cpu time    0.0019: real time    0.0019
    CHARGE:  cpu time    0.1537: real time    0.1539
    MIXING:  cpu time    0.0020: real time    0.0020
    --------------------------------------------
      LOOP:  cpu time    2.1997: real time    2.2044

 eigenvalue-minimisations  :  2212
 total energy-change (2. order) :-0.2640491E-03  (-0.4082352E-05)
 number of electron      20.0000000 magnetization 
 augmentation part       -4.4817183 magnetization 

 Broyden mixing:
  rms(total) = 0.40152E-03    rms(broyden)= 0.40152E-03
  rms(prec ) = 0.62130E-03
  weight for this iteration     100.00

 eigenvalues of (default mixing * dielectric matrix)
  average eigenvalue GAMMA=   2.2411
  6.7325  3.0875  2.5299  2.5299  1.1866  1.1866  1.0592  0.9289  0.9289

 Free energy of the ion-electron system (eV)
  ---------------------------------------------------
  alpha Z        PSCENC =         9.54238709
  Ewald energy   TEWEN  =      1159.17075369
  -Hartree energ DENC   =     -1781.94661678
  -exchange      EXHF   =         0.00000000
  -V(xc)+E(xc)   XCENC  =      -237.54515673
  PAW double counting   =      1144.50563422     -869.61762576
  entropy T*S    EENTRO =        -0.00000000
  eigenvalues    EBANDS =      -142.80106416
  atomic energy  EATOM  =       702.42789710
  Solvation  Ediel_sol  =         0.00000000
  ---------------------------------------------------
  free energy    TOTEN  =       -16.26379133 eV

  energy without entropy =      -16.26379133  energy(sigma->0) =      -16.26379133


--------------------------------------------------------------------------------------------------------




--------------------------------------- Iteration      1(  15)  ---------------------------------------


    POTLOK:  cpu time    0.0490: real time    0.0492
    SETDIJ:  cpu time    0.0039: real time    0.0039
     EDDAV:  cpu time    1.9394: real time    1.9435
       DOS:  cpu time    0.0019: real time    0.0019
    CHARGE:  cpu time    0.1552: real time    0.1554
    MIXING:  cpu time    0.0022: real time    0.0022
    --------------------------------------------
      LOOP:  cpu time    2.1517: real time    2.1561

 eigenvalue-minimisations  :  2136
 total energy-change (2. order) :-0.5618516E-04  (-0.1980947E-06)
 number of electron      20.0000000 magnetization 
 augmentation part       -4.4817343 magnetization 

 Broyden mixing:
  rms(total) = 0.33296E-03    rms(broyden)= 0.33296E-03
  rms(prec ) = 0.50732E-03
  weight for this iteration     100.00

 eigenvalues of (default mixing * dielectric matrix)
  average eigenvalue GAMMA=   2.3475
  6.5147  4.2410  2.7057  2.7057  1.9469  1.1431  1.1431  1.2091  0.9329  0.9329

 Free energy of the ion-electron system (eV)
  ---------------------------------------------------
  alpha Z        PSCENC =         9.54238709
  Ewald energy   TEWEN  =      1159.17075369
  -Hartree energ DENC   =     -1781.96473897
  -exchange      EXHF   =         0.00000000
  -V(xc)+E(xc)   XCENC  =      -237.54549820
  PAW double counting   =      1144.31010710     -869.42192971
  entropy T*S    EENTRO =        -0.00000000
  eigenvalues    EBANDS =      -142.78282561
  atomic energy  EATOM  =       702.42789710
  Solvation  Ediel_sol  =         0.00000000
  ---------------------------------------------------
  free energy    TOTEN  =       -16.26384751 eV

  energy without entropy =      -16.26384751  energy(sigma->0) =      -16.26384751


--------------------------------------------------------------------------------------------------------




--------------------------------------- Iteration      1(  16)  ---------------------------------------


    POTLOK:  cpu time    0.0498: real time    0.0499
    SETDIJ:  cpu time    0.0038: real time    0.0038
     EDDAV:  cpu time    1.8322: real time    1.8362
       DOS:  cpu time    0.0019: real time    0.0019
    CHARGE:  cpu time    0.1533: real time    0.1535
    MIXING:  cpu time    0.0024: real time    0.0024
    --------------------------------------------
      LOOP:  cpu time    2.0434: real time    2.0477

 eigenvalue-minimisations  :  1992
 total energy-change (2. order) :-0.4817002E-04  (-0.8244753E-06)
 number of electron      20.0000000 magnetization 
 augmentation part       -4.4817489 magnetization 

 Broyden mixing:
  rms(total) = 0.13783E-03    rms(broyden)= 0.13783E-03
  rms(prec ) = 0.23646E-03
  weight for this iteration     100.00

 eigenvalues of (default mixing * dielectric matrix)
  average eigenvalue GAMMA=   2.2805
  6.8043  4.4843  2.6477  2.6477  2.2697  1.1596  1.1596  1.1777  0.9295  0.9295
  0.8759

 Free energy of the ion-electron system (eV)
  ---------------------------------------------------
  alpha Z        PSCENC =         9.54238709
  Ewald energy   TEWEN  =      1159.17075369
  -Hartree energ DENC   =     -1782.01596478
  -exchange      EXHF   =         0.00000000
  -V(xc)+E(xc)   XCENC  =      -237.54563009
  PAW double counting   =      1144.13383028     -869.24562041
  entropy T*S    EENTRO =        -0.00000000
  eigenvalues    EBANDS =      -142.73154856
  atomic energy  EATOM  =       702.42789710
  Solvation  Ediel_sol  =         0.00000000
  ---------------------------------------------------
  free energy    TOTEN  =       -16.26389568 eV

  energy without entropy =      -16.26389568  energy(sigma->0) =      -16.26389568


--------------------------------------------------------------------------------------------------------




--------------------------------------- Iteration      1(  17)  ---------------------------------------


    POTLOK:  cpu time    0.0459: real time    0.0461
    SETDIJ:  cpu time    0.0038: real time    0.0038
     EDDAV:  cpu time    1.7469: real time    1.7505
       DOS:  cpu time    0.0019: real time    0.0020
    CHARGE:  cpu time    0.1555: real time    0.1557
    MIXING:  cpu time    0.0024: real time    0.0024
    --------------------------------------------
      LOOP:  cpu time    1.9565: real time    1.9605

 eigenvalue-minimisations  :  1888
 total energy-change (2. order) :-0.2353742E-04  (-0.1287364E-06)
 number of electron      20.0000000 magnetization 
 augmentation part       -4.4817310 magnetization 

 Broyden mixing:
  rms(total) = 0.12922E-03    rms(broyden)= 0.12922E-03
  rms(prec ) = 0.18842E-03
  weight for this iteration     100.00

 eigenvalues of (default mixing * dielectric matrix)
  average eigenvalue GAMMA=   2.4017
  6.8962  5.2971  2.9689  2.9689  2.2400  2.1018  1.1596  1.1596  0.9178  0.9628
  1.0737  1.0737

 Free energy of the ion-electron system (eV)
  ---------------------------------------------------
  alpha Z        PSCENC =         9.54238709
  Ewald energy   TEWEN  =      1159.17075369
  -Hartree energ DENC   =     -1782.03136850
  -exchange      EXHF   =         0.00000000
  -V(xc)+E(xc)   XCENC  =      -237.54547720
  PAW double counting   =      1144.20518767     -869.31710524
  entropy T*S    EENTRO =        -0.00000000
  eigenvalues    EBANDS =      -142.71619382
  atomic energy  EATOM  =       702.42789710
  Solvation  Ediel_sol  =         0.00000000
  ---------------------------------------------------
  free energy    TOTEN  =       -16.26391922 eV

  energy without entropy =      -16.26391922  energy(sigma->0) =      -16.26391922


--------------------------------------------------------------------------------------------------------




--------------------------------------- Iteration      1(  18)  ---------------------------------------


    POTLOK:  cpu time    0.0460: real time    0.0461
    SETDIJ:  cpu time    0.0039: real time    0.0039
     EDDAV:  cpu time    1.8866: real time    1.8907
       DOS:  cpu time    0.0019: real time    0.0019
    CHARGE:  cpu time    0.1581: real time    0.1584
    MIXING:  cpu time    0.0025: real time    0.0025
    --------------------------------------------
      LOOP:  cpu time    2.0991: real time    2.1035

 eigenvalue-minimisations  :  2074
 total energy-change (2. order) :-0.3896567E-04  (-0.4052704E-06)
 number of electron      20.0000000 magnetization 
 augmentation part       -4.4817194 magnetization 

 Broyden mixing:
  rms(total) = 0.66662E-04    rms(broyden)= 0.66662E-04
  rms(prec ) = 0.80730E-04
  weight for this iteration     100.00

 eigenvalues of (default mixing * dielectric matrix)
  average eigenvalue GAMMA=   2.3255
  7.0345  5.4612  2.9295  2.9295  2.4046  2.0897  1.1634  1.1634  1.1321  1.1321
  0.9602  0.9602  0.8715

 Free energy of the ion-electron system (eV)
  ---------------------------------------------------
  alpha Z        PSCENC =         9.54238709
  Ewald energy   TEWEN  =      1159.17075369
  -Hartree energ DENC   =     -1782.05474497
  -exchange      EXHF   =         0.00000000
  -V(xc)+E(xc)   XCENC  =      -237.54547527
  PAW double counting   =      1144.18847501     -869.30036129
  entropy T*S    EENTRO =        -0.00000000
  eigenvalues    EBANDS =      -142.69288954
  atomic energy  EATOM  =       702.42789710
  Solvation  Ediel_sol  =         0.00000000
  ---------------------------------------------------
  free energy    TOTEN  =       -16.26395818 eV

  energy without entropy =      -16.26395818  energy(sigma->0) =      -16.26395818


--------------------------------------------------------------------------------------------------------




--------------------------------------- Iteration      1(  19)  ---------------------------------------


    POTLOK:  cpu time    0.0478: real time    0.0479
    SETDIJ:  cpu time    0.0038: real time    0.0038
     EDDAV:  cpu time    1.8143: real time    1.8183
       DOS:  cpu time    0.0019: real time    0.0019
    CHARGE:  cpu time    0.1531: real time    0.1533
    MIXING:  cpu time    0.0026: real time    0.0026
    --------------------------------------------
      LOOP:  cpu time    2.0236: real time    2.0279

 eigenvalue-minimisations  :  1940
 total energy-change (2. order) :-0.4175679E-05  (-0.9977683E-08)
 number of electron      20.0000000 magnetization 
 augmentation part       -4.4817254 magnetization 

 Broyden mixing:
  rms(total) = 0.39987E-04    rms(broyden)= 0.39987E-04
  rms(prec ) = 0.50062E-04
  weight for this iteration     100.00

 eigenvalues of (default mixing * dielectric matrix)
  average eigenvalue GAMMA=   2.5677
  7.4600  7.4600  3.8284  3.0564  2.3933  2.3933  1.9447  1.1614  1.1614  1.0894
  1.0894  0.9197  0.9527  1.0382

 Free energy of the ion-electron system (eV)
  ---------------------------------------------------
  alpha Z        PSCENC =         9.54238709
  Ewald energy   TEWEN  =      1159.17075369
  -Hartree energ DENC   =     -1782.05440701
  -exchange      EXHF   =         0.00000000
  -V(xc)+E(xc)   XCENC  =      -237.54549700
  PAW double counting   =      1144.22618299     -869.33808826
  entropy T*S    EENTRO =        -0.00000000
  eigenvalues    EBANDS =      -142.69319097
  atomic energy  EATOM  =       702.42789710
  Solvation  Ediel_sol  =         0.00000000
  ---------------------------------------------------
  free energy    TOTEN  =       -16.26396236 eV

  energy without entropy =      -16.26396236  energy(sigma->0) =      -16.26396236


--------------------------------------------------------------------------------------------------------




--------------------------------------- Iteration      1(  20)  ---------------------------------------


    POTLOK:  cpu time    0.0503: real time    0.0505
    SETDIJ:  cpu time    0.0039: real time    0.0039
     EDDAV:  cpu time    1.5376: real time    1.5409
       DOS:  cpu time    0.0019: real time    0.0019
    CHARGE:  cpu time    0.1546: real time    0.1548
    MIXING:  cpu time    0.0026: real time    0.0026
    --------------------------------------------
      LOOP:  cpu time    1.7510: real time    1.7547

 eigenvalue-minimisations  :  1520
 total energy-change (2. order) :-0.7734488E-05  (-0.4429410E-07)
 number of electron      20.0000000 magnetization 
 augmentation part       -4.4817288 magnetization 

 Broyden mixing:
  rms(total) = 0.20479E-04    rms(broyden)= 0.20479E-04
  rms(prec ) = 0.22802E-04
  weight for this iteration     100.00

 eigenvalues of (default mixing * dielectric matrix)
  average eigenvalue GAMMA=   2.5567
  7.8888  7.7220  4.0503  2.9941  2.3705  2.3705  2.1845  1.3006  1.1568  1.1568
  1.1923  0.9077  1.0100  1.0227  1.0227

 Free energy of the ion-electron system (eV)
  ---------------------------------------------------
  alpha Z        PSCENC =         9.54238709
  Ewald energy   TEWEN  =      1159.17075369
  -Hartree energ DENC   =     -1782.05819047
  -exchange      EXHF   =         0.00000000
  -V(xc)+E(xc)   XCENC  =      -237.54550555
  PAW double counting   =      1144.21696396     -869.32884607
  entropy T*S    EENTRO =        -0.00000000
  eigenvalues    EBANDS =      -142.68942985
  atomic energy  EATOM  =       702.42789710
  Solvation  Ediel_sol  =         0.00000000
  ---------------------------------------------------
  free energy    TOTEN  =       -16.26397009 eV

  energy without entropy =      -16.26397009  energy(sigma->0) =      -16.26397009


--------------------------------------------------------------------------------------------------------




--------------------------------------- Iteration      1(  21)  ---------------------------------------


    POTLOK:  cpu time    0.0476: real time    0.0478
    SETDIJ:  cpu time    0.0039: real time    0.0039
     EDDAV:  cpu time    1.7081: real time    1.7116
       DOS:  cpu time    0.0019: real time    0.0019
    --------------------------------------------
      LOOP:  cpu time    1.7615: real time    1.7651

 eigenvalue-minimisations  :  1796
 total energy-change (2. order) :-0.7895612E-06  (-0.4302890E-08)
 number of electron      20.0000000 magnetization 
 augmentation part       -4.4817288 magnetization 

 Free energy of the ion-electron system (eV)
  ---------------------------------------------------
  alpha Z        PSCENC =         9.54238709
  Ewald energy   TEWEN  =      1159.17075369
  -Hartree energ DENC   =     -1782.05982179
  -exchange      EXHF   =         0.00000000
  -V(xc)+E(xc)   XCENC  =      -237.54547926
  PAW double counting   =      1144.21463122     -869.32651230
  entropy T*S    EENTRO =        -0.00000000
  eigenvalues    EBANDS =      -142.68782663
  atomic energy  EATOM  =       702.42789710
  Solvation  Ediel_sol  =         0.00000000
  ---------------------------------------------------
  free energy    TOTEN  =       -16.26397088 eV

  energy without entropy =      -16.26397088  energy(sigma->0) =      -16.26397088


--------------------------------------------------------------------------------------------------------




 average (electrostatic) potential at core
  the test charge radii are     1.4072  1.0808
  (the norm of the test charge is              1.0000)
       1 -51.2380       2 -51.2380       3 -59.9357       4 -59.9357
 
 
 
 E-fermi :  -1.4943     XC(G=0):  -3.3452     alpha+bet : -2.6852


 k-point     1 :       0.0000    0.0000    0.0000
  band No.  band energies     occupation 
      1     -15.3240      2.00000
      2     -14.3242      2.00000
      3      -8.2364      2.00000
      4      -7.2564      2.00000
      5      -5.4173      2.00000
      6      -5.0535      2.00000
      7      -5.0481      2.00000
      8      -3.8597      2.00000
      9      -3.8226      2.00000
     10      -2.5975      2.00000
     11      -0.4623      0.00000
     12       1.3577      0.00000
     13       1.8169      0.00000
     14       2.0114      0.00000

 k-point     2 :       0.0667    0.0000    0.0000
  band No.  band energies     occupation 
      1     -15.3056      2.00000
      2     -14.3216      2.00000
      3      -8.3069      2.00000
      4      -7.3379      2.00000
      5      -5.4209      2.00000
      6      -5.0172      2.00000
      7      -4.9839      2.00000
      8      -3.8383      2.00000
      9      -3.7116      2.00000
     10      -2.6148      2.00000
     11      -0.4512      0.00000
     12       1.4110      0.00000
     13       1.7050      0.00000
     14       1.9301      0.00000

 k-point     3 :       0.1333    0.0000    0.0000
  band No.  band energies     occupation 
      1     -15.2512      2.00000
[...]
  band No.  band energies     occupation 
      1     -14.5748      2.00000
      2     -14.2659      2.00000
      3      -8.7195      2.00000
      4      -8.4697      2.00000
      5      -6.3835      2.00000
      6      -5.1630      2.00000
      7      -5.0084      2.00000
      8      -4.0446      2.00000
      9      -4.0075      2.00000
     10      -3.0711      2.00000
     11       0.1967      0.00000
     12       1.1626      0.00000
     13       1.4975      0.00000
     14       1.7952      0.00000

 k-point    47 :       0.4000    0.3333    0.0000
  band No.  band energies     occupation 
      1     -14.4797      2.00000
      2     -14.2851      2.00000
      3      -8.6265      2.00000
      4      -8.4840      2.00000
      5      -6.4106      2.00000
      6      -5.5696      2.00000
      7      -5.0041      2.00000
      8      -4.3241      2.00000
      9      -3.9634      2.00000
     10      -3.3764      2.00000
     11       0.5535      0.00000
     12       1.3551      0.00000
     13       1.6323      0.00000
     14       2.3392      0.00000

 k-point    48 :       0.4667    0.3333    0.0000
  band No.  band energies     occupation 
      1     -14.3945      2.00000
      2     -14.3280      2.00000
      3      -8.5617      2.00000
      4      -8.5161      2.00000
      5      -6.2594      2.00000
      6      -5.9619      2.00000
      7      -4.8670      2.00000
      8      -4.6230      2.00000
      9      -3.8134      2.00000
     10      -3.6159      2.00000
     11       0.8658      0.00000
     12       1.1368      0.00000
     13       2.0518      0.00000
     14       2.3445      0.00000

 k-point    49 :       0.0000    0.4000    0.0000
  band No.  band energies     occupation 
      1     -14.7268      2.00000
      2     -14.3652      2.00000
      3      -9.2307      2.00000
      4      -8.8718      2.00000
      5      -4.7752      2.00000
      6      -4.2042      2.00000
      7      -4.0380      2.00000
      8      -3.5223      2.00000
      9      -2.8094      2.00000
     10      -2.0336      2.00000
     11      -0.9996      0.00000
     12      -0.0598      0.00000
     13       0.0752      0.00000
     14       0.3398      0.00000

 k-point    50 :       0.0667    0.4000    0.0000
  band No.  band energies     occupation 
      1     -14.7142      2.00000
      2     -14.3591      2.00000
      3      -9.2031      2.00000
      4      -8.8523      2.00000
      5      -4.7688      2.00000
      6      -4.5651      2.00000
      7      -3.9297      2.00000
      8      -3.7162      2.00000
      9      -2.6196      2.00000
     10      -2.3275      2.00000
     11      -0.7469      0.00000
     12      -0.3708      0.00000
     13       0.2417      0.00000
     14       0.3691      0.00000

 k-point    51 :       0.1333    0.4000    0.0000
  band No.  band energies     occupation 
      1     -14.6777      2.00000
      2     -14.3421      2.00000
      3      -9.1218      2.00000
      4      -8.7959      2.00000
      5      -5.1066      2.00000
      6      -4.7613      2.00000
      7      -4.1339      2.00000
      8      -3.9055      2.00000
      9      -2.9148      2.00000
     10      -2.4527      2.00000
     11      -0.6188      0.00000
     12      -0.1426      0.00000
     13       0.4897      0.00000
     14       0.8059      0.00000

 k-point    52 :       0.2000    0.4000    0.0000
  band No.  band energies     occupation 
      1     -14.6210      2.00000
      2     -14.3184      2.00000
      3      -8.9917      2.00000
      4      -8.7090      2.00000
      5      -5.6316      2.00000
      6      -4.8201      2.00000
      7      -4.5519      2.00000
      8      -3.9483      2.00000
      9      -3.4940      2.00000
     10      -2.6972      2.00000
     11      -0.3293      0.00000
     12       0.5942      0.00000
     13       0.7155      0.00000
     14       1.2329      0.00000

 k-point    53 :       0.2667    0.4000    0.0000
  band No.  band energies     occupation 
      1     -14.5502      2.00000
      2     -14.2944      2.00000
      3      -8.8234      2.00000
      4      -8.6029      2.00000
      5      -6.0761      2.00000
      6      -5.1153      2.00000
      7      -4.8157      2.00000
      8      -4.0805      2.00000
      9      -3.8733      2.00000
     10      -3.0869      2.00000
     11       0.1464      0.00000
     12       1.0923      0.00000
     13       1.1936      0.00000
     14       1.6062      0.00000

 k-point    54 :       0.3333    0.4000    0.0000
  band No.  band energies     occupation 
      1     -14.4732      2.00000
      2     -14.2780      2.00000
      3      -8.6379      2.00000
      4      -8.4941      2.00000
      5      -6.3990      2.00000
      6      -5.5141      2.00000
      7      -5.0629      2.00000
      8      -4.3409      2.00000
      9      -3.9689      2.00000
     10      -3.3783      2.00000
     11       0.5446      0.00000
     12       1.3502      0.00000
     13       1.6131      0.00000
     14       2.2802      0.00000

 k-point    55 :       0.4000    0.4000    0.0000
  band No.  band energies     occupation 
      1     -14.3996      2.00000
      2     -14.2767      2.00000
      3      -8.4720      2.00000
      4      -8.4032      2.00000
      5      -6.5595      2.00000
      6      -5.9319      2.00000
      7      -5.1987      2.00000
      8      -4.6744      2.00000
      9      -3.9136      2.00000
     10      -3.5558      2.00000
     11       0.8541      0.00000
     12       1.3543      0.00000
     13       2.1356      0.00000
     14       2.7710      0.00000

 k-point    56 :       0.4667    0.4000    0.0000
  band No.  band energies     occupation 
      1     -14.3383      2.00000
      2     -14.2963      2.00000
      3      -8.3705      2.00000
      4      -8.3533      2.00000
      5      -6.5231      2.00000
      6      -6.2951      2.00000
      7      -5.1621      2.00000
      8      -4.9727      2.00000
      9      -3.8083      2.00000
     10      -3.6881      2.00000
     11       1.0978      0.00000
     12       1.2680      0.00000
     13       2.5154      0.00000
     14       2.7405      0.00000

 k-point    57 :       0.0000    0.4667    0.0000
  band No.  band energies     occupation 
      1     -14.5819      2.00000
      2     -14.4575      2.00000
      3      -9.2163      2.00000
      4      -9.0929      2.00000
      5      -4.5282      2.00000
      6      -4.3036      2.00000
      7      -3.8285      2.00000
      8      -3.6302      2.00000
      9      -2.5280      2.00000
     10      -2.1762      2.00000
     11      -0.8851      0.00000
     12      -0.4389      0.00000
     13      -0.0705      0.00000
     14       0.1297      0.00000

 k-point    58 :       0.0667    0.4667    0.0000
  band No.  band energies     occupation 
      1     -14.5715      2.00000
      2     -14.4493      2.00000
      3      -9.1880      2.00000
      4      -9.0674      2.00000
      5      -4.5404      2.00000
      6      -4.4115      2.00000
      7      -3.9902      2.00000
      8      -3.8466      2.00000
      9      -2.4409      2.00000
     10      -2.3390      2.00000
     11      -0.7909      0.00000
     12      -0.6843      0.00000
     13       0.2990      0.00000
     14       0.6020      0.00000

 k-point    59 :       0.1333    0.4667    0.0000
  band No.  band energies     occupation 
      1     -14.5416      2.00000
      2     -14.4262      2.00000
      3      -9.1040      2.00000
      4      -8.9920      2.00000
      5      -4.8257      2.00000
      6      -4.6446      2.00000
      7      -4.2303      2.00000
      8      -4.1127      2.00000
      9      -2.8236      2.00000
     10      -2.6115      2.00000
     11      -0.5357      0.00000
     12      -0.2941      0.00000
     13       0.7903      0.00000
     14       0.8992      0.00000

 k-point    60 :       0.2000    0.4667    0.0000
  band No.  band energies     occupation 
      1     -14.4959      2.00000
      2     -14.3920      2.00000
      3      -8.9681      2.00000
      4      -8.8712      2.00000
      5      -5.3480      2.00000
      6      -5.0223      2.00000
      7      -4.4217      2.00000
      8      -4.1864      2.00000
      9      -3.3544      2.00000
     10      -3.0522      2.00000
     11      -0.0013      0.00000
     12       0.3631      0.00000
     13       1.0223      0.00000
     14       1.2489      0.00000

 k-point    61 :       0.2667    0.4667    0.0000
  band No.  band energies     occupation 
      1     -14.4408      2.00000
      2     -14.3531      2.00000
      3      -8.7882      2.00000
      4      -8.7134      2.00000
      5      -5.8321      2.00000
      6      -5.4884      2.00000
      7      -4.6165      2.00000
      8      -4.3534      2.00000
      9      -3.7063      2.00000
     10      -3.4312      2.00000
     11       0.5101      0.00000
     12       0.8683      0.00000
     13       1.4423      0.00000
     14       1.6931      0.00000

 k-point    62 :       0.3333    0.4667    0.0000
  band No.  band energies     occupation 
      1     -14.3841      2.00000
      2     -14.3171      2.00000
      3      -8.5809      2.00000
      4      -8.5345      2.00000
      5      -6.2294      2.00000
      6      -5.9141      2.00000
      7      -4.9230      2.00000
      8      -4.6615      2.00000
      9      -3.8149      2.00000
     10      -3.6160      2.00000
     11       0.8542      0.00000
     12       1.1270      0.00000
     13       2.0141      0.00000
     14       2.2902      0.00000

 k-point    63 :       0.4000    0.4667    0.0000
  band No.  band energies     occupation 
      1     -14.3345      2.00000
      2     -14.2924      2.00000
      3      -8.3806      2.00000
      4      -8.3629      2.00000
      5      -6.5055      2.00000
      6      -6.2714      2.00000
      7      -5.1873      2.00000
      8      -4.9915      2.00000
      9      -3.8065      2.00000
     10      -3.6861      2.00000
     11       1.0936      0.00000
     12       1.2641      0.00000
     13       2.5093      0.00000
     14       2.7397      0.00000

 k-point    64 :       0.4667    0.4667    0.0000
  band No.  band energies     occupation 
      1     -14.2999      2.00000
      2     -14.2855      2.00000
      3      -8.2492      2.00000
      4      -8.2474      2.00000
      5      -6.6158      2.00000
      6      -6.5265      2.00000
      7      -5.2976      2.00000
      8      -5.2247      2.00000
      9      -3.7675      2.00000
     10      -3.7269      2.00000
     11       1.2511      0.00000
     12       1.3092      0.00000
     13       2.7005      0.00000
     14       2.7887      0.00000


--------------------------------------------------------------------------------------------------------


 soft charge-density along one line, spin component           1
         0         1         2         3         4         5         6         7         8         9
 total charge-density along one line
 
 pseudopotential strength for first ion, spin component:           1
 30.079 -23.431   0.000  -0.089   0.032   0.000  -0.141   0.050
-23.431  28.114  -0.000   0.050  -0.018  -0.000   0.082  -0.029
  0.000  -0.000   6.330  -0.000   0.000   9.793  -0.000   0.000
 -0.089   0.050  -0.000   6.328   0.002  -0.000   9.789   0.002
  0.032  -0.018   0.000   0.002   6.330   0.000   0.002   9.793
  0.000  -0.000   9.793  -0.000   0.000  15.222  -0.000   0.000
 -0.141   0.082  -0.000   9.789   0.002  -0.000  15.215   0.004
  0.050  -0.029   0.000   0.002   9.793   0.000   0.004  15.221
  0.000  -0.000   0.007   0.000   0.000   0.010   0.000   0.000
 -0.000   0.000  -0.020   0.000   0.000  -0.031   0.000   0.000
 -0.002   0.003  -0.000  -0.023  -0.004  -0.000  -0.035  -0.006
  0.003  -0.002   0.000   0.008  -0.020   0.000   0.012  -0.031
 -0.000   0.000  -0.000  -0.000   0.008  -0.000  -0.000   0.012
 total augmentation occupancy for first ion, spin component:           1
  2.025  -0.015   0.000   0.237  -0.080   0.000  -0.042   0.015   0.000  -0.000   0.023   0.002   0.000
 -0.015   0.009   0.000  -0.073   0.025  -0.000   0.018  -0.006   0.000   0.000  -0.002   0.001  -0.000
 -0.000   0.000   1.507   0.000   0.000  -0.406  -0.000   0.000   0.114  -0.043   0.000   0.000   0.000
  0.237  -0.073   0.000   1.840  -0.000   0.000  -0.486  -0.013   0.000   0.000  -0.268  -0.017  -0.000
 -0.080   0.025   0.000  -0.000   1.493   0.000  -0.013  -0.396   0.000  -0.000  -0.073  -0.045  -0.006
  0.000   0.000  -0.406   0.000   0.000   0.118   0.000  -0.000  -0.030   0.012   0.000   0.000   0.000
 -0.042   0.018   0.000  -0.486  -0.013   0.000   0.140   0.007   0.000  -0.000   0.074   0.004   0.000
  0.015  -0.006   0.000  -0.013  -0.396   0.000   0.007   0.114  -0.000   0.000   0.019   0.012   0.002
  0.000   0.000   0.114   0.000  -0.000  -0.030   0.000  -0.000   0.077   0.000  -0.000   0.000   0.000
  0.000   0.000  -0.043   0.000   0.000   0.012   0.000   0.000   0.000   0.021   0.000   0.000   0.000
  0.023  -0.002   0.000  -0.268  -0.073   0.000   0.074   0.019   0.000   0.000   0.078   0.005   0.001
  0.002   0.001  -0.000  -0.017  -0.045   0.000   0.004   0.012  -0.000   0.000   0.005   0.022   0.000
  0.000  -0.000   0.000  -0.000  -0.006   0.000   0.000   0.002   0.000   0.000   0.001   0.000   0.017


------------------------ aborting loop because EDIFF is reached ----------------------------------------


    CHARGE:  cpu time    0.1983: real time    0.1985
    FORLOC:  cpu time    0.0022: real time    0.0022
    FORNL :  cpu time    0.2298: real time    0.2300
    STRESS:  cpu time    0.5043: real time    0.5048
    FORCOR:  cpu time    0.0501: real time    0.0501
    FORHAR:  cpu time    0.0127: real time    0.0127
    MIXING:  cpu time    0.0011: real time    0.0011
    OFIELD:  cpu time    0.0000: real time    0.0000

  FORCE on cell =-STRESS in cart. coord.  units (eV):
  Direction    XX          YY          ZZ          XY          YZ          ZX
  --------------------------------------------------------------------------------------
  Alpha Z     9.54239     9.54239     9.54239
  Ewald    1613.10436  1616.90040 -2071.61753     0.00000     0.00000     0.00000
  Hartree  1733.52583  1734.89212 -1687.02852    -0.00000    -0.00000     0.00000
  E(xc)     -77.67649   -77.68688   -78.90777    -0.00000    -0.00000     0.00000
  Local   -3599.37162 -3604.04575  3503.79327    -0.00000    -0.00000     0.00000
  n-local   162.54652   162.70598   167.24270    -0.43466    -0.00000     0.00000
  augment   -31.87515   -31.82472   -32.80406     0.00000    -0.00000     0.00000
  Kinetic   190.29636   189.59759   189.77856     5.58952    -0.00000    -0.00000
  Fock        0.00000     0.00000     0.00000     0.00000     0.00000     0.00000
  -------------------------------------------------------------------------------------
  Total       0.09219     0.08112    -0.00097     0.00000     0.00000     0.00000
  in kB       0.39416     0.34684    -0.00416     0.00000     0.00000     0.00000
  external pressure =        0.25 kB  Pullay stress =        0.00 kB


 VOLUME and BASIS-vectors are now :
 -----------------------------------------------------------------------------
  energy-cutoff  :      600.00
  volume of cell :      374.72
      direct lattice vectors                 reciprocal lattice vectors
     4.364827338  0.000000000  0.000000000     0.229104137  0.000000000  0.000000000
     0.000000000  4.292477857  0.000000000     0.000000000  0.232965675  0.000000000
     0.000000000  0.000000000 20.000000000     0.000000000  0.000000000  0.050000000

  length of vectors
     4.364827338  4.292477857 20.000000000     0.229104137  0.232965675  0.050000000


 FORCES acting on ions
    electron-ion (+dipol)            ewald-force                    non-local-force                 convergence-correction
 -----------------------------------------------------------------------------------------------
   0.385E+01 -.259E-12 -.145E+03   -.523E+01 0.288E-14 0.148E+03   0.137E+01 0.278E-16 -.380E+01   -.380E-04 0.627E-14 -.450E-03
   0.385E+01 0.372E-13 0.145E+03   -.523E+01 0.231E-14 -.148E+03   0.137E+01 0.278E-16 0.380E+01   -.380E-04 -.966E-15 0.450E-03
   -.482E+01 -.406E-13 -.207E+03   0.523E+01 -.293E-14 0.209E+03   -.407E+00 0.000E+00 -.204E+01   0.550E-03 -.174E-13 -.120E-02
   -.482E+01 0.195E-12 0.207E+03   0.523E+01 -.940E-15 -.209E+03   -.407E+00 0.000E+00 0.204E+01   0.550E-03 -.242E-14 0.120E-02
 -----------------------------------------------------------------------------------------------
   -.193E+01 -.679E-13 -.295E-06   0.266E-14 0.132E-14 0.000E+00   0.193E+01 0.555E-16 0.000E+00   0.102E-02 -.145E-13 -.358E-10
 
 
 POSITION                                       TOTAL-FORCE (eV/Angst)
 -----------------------------------------------------------------------------------
      2.52798      3.21936     11.37427         0.000601      0.000000     -0.000167
      0.34557      1.07312      8.62573         0.000601     -0.000000      0.000167
      0.15248      1.07312     11.34330        -0.000601      0.000000      0.000255
      2.33489      3.21936      8.65670        -0.000601      0.000000     -0.000255
 -----------------------------------------------------------------------------------
    total drift:                                0.000159     -0.000000     -0.000000


--------------------------------------------------------------------------------------------------------



  FREE ENERGIE OF THE ION-ELECTRON SYSTEM (eV)
  ---------------------------------------------------
  free  energy   TOTEN  =       -16.26420611 eV

  energy  without entropy=      -16.26420611  energy(sigma->0) =      -16.26420611
 
 d Force = 0.3024040E-06[ 0.240E-06, 0.365E-06]  d Energy = 0.3553051E-06-0.529E-07
 d Force = 0.2440409E-01[ 0.244E-01, 0.244E-01]  d Ewald  = 0.2440409E-01 0.728E-11


--------------------------------------------------------------------------------------------------------


    POTLOK:  cpu time    0.0500: real time    0.0501


--------------------------------------------------------------------------------------------------------


 Conjugate gradient step on ions:
 trial-energy change:   -0.000000  1 .order   -0.000000   -0.000000   -0.000000
  (g-gl).g = 0.839E-07      g.g   = 0.158E-06  gl.gl    = 0.126E-05
 g(Force)  = 0.158E-06   g(Stress)= 0.000E+00 ortho     =-0.122E-07
 gamma     =   0.06640
 trial     =   2.32011
 opt step  =   6.77537  (harmonic =   6.77537) maximal distance =0.00028109
 next E    =   -16.264206   (d E  =  -0.00000)


--------------------------------------------------------------------------------------------------------


  
 reached required accuracy - stopping structural energy minimisation
 writing wavefunctions
     LOOP+:  cpu time    6.8589: real time    8.0574
    4ORBIT:  cpu time    0.0000: real time    0.0000

 total amount of memory used by VASP MPI-rank0    51575. kBytes
=======================================================================

   base      :      30000. kBytes
   nonl-proj :       6928. kBytes
   fftplans  :       2678. kBytes
   grid      :       4349. kBytes
   one-center:          8. kBytes
   wavefun   :       7612. kBytes
 
  
  
 General timing and accounting informations for this job:
 ========================================================
  
                  Total CPU time used (sec):      171.772
                            User time (sec):      170.963
                          System time (sec):        0.808
                         Elapsed time (sec):      184.092
  
                   Maximum memory used (kb):      204780.
                   Average memory used (kb):           0.
  
                          Minor page faults:       114957
                          Major page faults:          294
                 Voluntary context switches:         9029
