nqpoint: 561    
npath: 11     
segment_nqpoint:
- 51
- 51
- 51
- 51
- 51
- 51
- 51
- 51
- 51
- 51
- 51
labels:
- [ '$\Gamma$', 'M' ]
- [ 'M', 'K' ]
- [ 'K', '$\Gamma$' ]
- [ '$\Gamma$', 'A' ]
- [ 'A', 'L' ]
- [ 'L', 'H' ]
- [ 'H', 'A' ]
- [ 'A', 'L' ]
- [ 'L', 'M' ]
- [ 'M', 'K' ]
- [ 'K', 'H' ]
reciprocal_lattice:
- [   0.31423948,  -0.18142625,   0.00000000 ] # a*
- [   0.31423948,   0.18142625,   0.00000000 ] # b*
- [   0.00000000,   0.00000000,   0.06900647 ] # c*
natom: 6      
lattice:
- [     1.591143166609197,    -2.755940806683155,     0.000000000000000 ] # a
- [     1.591143166609197,     2.755940806683155,     0.000000000000000 ] # b
- [     0.000000000000000,     0.000000000000000,    14.491394746291036 ] # c
points:
- symbol: Mo # 1
  coordinates: [  0.333333333333336,  0.666666666666664,  0.250000000000000 ]
  mass: 95.960000
- symbol: Mo # 2
  coordinates: [  0.666666666666664,  0.333333333333336,  0.750000000000000 ]
  mass: 95.960000
- symbol: S  # 3
  coordinates: [  0.666666666666664,  0.333333333333336,  0.357701869097680 ]
  mass: 32.065000
- symbol: S  # 4
  coordinates: [  0.333333333333336,  0.666666666666664,  0.857701869097679 ]
  mass: 32.065000
- symbol: S  # 5
  coordinates: [  0.666666666666664,  0.333333333333336,  0.142298130902320 ]
  mass: 32.065000
- symbol: S  # 6
  coordinates: [  0.333333333333336,  0.666666666666664,  0.642298130902321 ]
  mass: 32.065000

phonon:
- q-position: [    0.0000000,    0.0000000,    0.0000000 ]
  distance:    0.0000000
  band:
  - # 1
    frequency:   -0.0036522898
  - # 2
    frequency:   -0.0036522897
  - # 3
    frequency:   -0.0017585557
  - # 4
    frequency:    0.2318254257
  - # 5
    frequency:    0.2318254257
  - # 6
    frequency:    0.3831188894
  - # 7
    frequency:    8.2926643799
  - # 8
    frequency:    8.2926643799
  - # 9
    frequency:    8.2965851231
  - # 10
    frequency:    8.2965851231
  - # 11
    frequency:   11.1592596049
  - # 12
    frequency:   11.1592596049
  - # 13
    frequency:   11.1640555185
  - # 14
    frequency:   11.1640555185
  - # 15
    frequency:   11.8861621783
  - # 16
    frequency:   11.8937709112
  - # 17
    frequency:   13.7213785857
  - # 18
    frequency:   13.7359491835

- q-position: [    0.0100000,    0.0000000,    0.0000000 ]
  distance:    0.0036285
  band:
  - # 1
    frequency:    0.1619770955
  - # 2
    frequency:    0.1619770955
  - # 3
    frequency:    0.1993402584
  - # 4
    frequency:    0.2827687093
  - # 5
    frequency:    0.2827687093
  - # 6
    frequency:    0.4317429674
  - # 7
    frequency:    8.2926652399
  - # 8
    frequency:    8.2926652399
  - # 9
    frequency:    8.2965842635
  - # 10
    frequency:    8.2965842635
  - # 11
    frequency:   11.1580849737
  - # 12
    frequency:   11.1580849737
  - # 13
    frequency:   11.1628797914
  - # 14
    frequency:   11.1628797914
  - # 15
    frequency:   11.8861638474
  - # 16
    frequency:   11.8937692432
  - # 17
    frequency:   13.7199347879
  - # 18
    frequency:   13.7345024715

- q-position: [    0.0200000,    0.0000000,    0.0000000 ]
  distance:    0.0072570
  band:
  - # 1
    frequency:    0.3239583918
  - # 2
    frequency:    0.3239583918
  - # 3
    frequency:    0.3982037684
  - # 4
    frequency:    0.3982037684
  - # 5
    frequency:    0.3986213384
  - # 6
    frequency:    0.5524594287
  - # 7
    frequency:    8.2926678189
  - # 8
    frequency:    8.2926678189
  - # 9
    frequency:    8.2965816857
  - # 10
    frequency:    8.2965816857
  - # 11
    frequency:   11.1545620073
  - # 12
    frequency:   11.1545620073
  - # 13
    frequency:   11.1593535379
  - # 14
    frequency:   11.1593535379
  - # 15
    frequency:   11.8861688526
  - # 16
    frequency:   11.8937642412
  - # 17
    frequency:   13.7156045354
  - # 18
    frequency:   13.7301634765

- q-position: [    0.0300000,    0.0000000,    0.0000000 ]
  distance:    0.0108856
  band:
  - # 1
    frequency:    0.4858107566
  - # 2
    frequency:    0.4858107566
  - # 3
    frequency:    0.5380107070
  - # 4
    frequency:    0.5380107070
  - # 5
    frequency:    0.5977580862
  - # 6
    frequency:    0.7092527153
  - # 7
    frequency:    8.2926721133
  - # 8
    frequency:    8.2926721133
  - # 9
    frequency:    8.2965773933
  - # 10
    frequency:    8.2965773933
  - # 11
    frequency:   11.1486934942
  - # 12
    frequency:   11.1486934942
  - # 13
    frequency:   11.1534795468
  - # 14
    frequency:   11.1534795468
  - # 15
    frequency:   11.8861771873
  - # 16
    frequency:   11.8937559118
  - # 17
    frequency:   13.7083912567
  - # 18
    frequency:   13.7229356285

- q-position: [    0.0400000,    0.0000000,    0.0000000 ]
  distance:    0.0145141
  band:
  - # 1
    frequency:    0.6474866340
  - # 2
    frequency:    0.6474866340
  - # 3
    frequency:    0.6873422989
  - # 4
    frequency:    0.6873422989
  - # 5
    frequency:    0.7966812634
  - # 6
    frequency:    0.8829518976
  - # 7
    frequency:    8.2926781176
  - # 8
    frequency:    8.2926781176
  - # 9
    frequency:    8.2965713918
  - # 10
    frequency:    8.2965713918
  - # 11
    frequency:   11.1404841007
  - # 12
    frequency:   11.1404841007
  - # 13
    frequency:   11.1452624853
  - # 14
    frequency:   11.1452624853
  - # 15
    frequency:   11.8861888404
  - # 16
    frequency:   11.8937442661
  - # 17
    frequency:   13.6983006905
  - # 18
    frequency:   13.7128246674

- q-position: [    0.0500000,    0.0000000,    0.0000000 ]
  distance:    0.0181426
  band:
  - # 1
    frequency:    0.8089299313
  - # 2
    frequency:    0.8089299313
  - # 3
    frequency:    0.8409853609
  - # 4
    frequency:    0.8409853609
  - # 5
    frequency:    0.9953197100
  - # 6
    frequency:    1.0651337858
  - # 7
    frequency:    8.2926858238
  - # 8
    frequency:    8.2926858238
  - # 9
    frequency:    8.2965636892
  - # 10
    frequency:    8.2965636892
  - # 11
    frequency:   11.1299404004
  - # 12
    frequency:   11.1299404004
  - # 13
    frequency:   11.1347089281
  - # 14
    frequency:   11.1347089281
  - # 15
    frequency:   11.8862037965
  - # 16
    frequency:   11.8937293194
  - # 17
    frequency:   13.6853409201
  - # 18
    frequency:   13.6998386796

- q-position: [    0.0600000,    0.0000000,    0.0000000 ]
  distance:    0.0217711
  band:
  - # 1
    frequency:    0.9700827753
  - # 2
    frequency:    0.9700827753
  - # 3
    frequency:    0.9967794210
  - # 4
    frequency:    0.9967794210
  - # 5
    frequency:    1.1936015056
  - # 6
    frequency:    1.2518976440
  - # 7
    frequency:    8.2926952217
  - # 8
    frequency:    8.2926952217
  - # 9
    frequency:    8.2965542958
  - # 10
    frequency:    8.2965542958
  - # 11
    frequency:   11.1170709155
  - # 12
    frequency:   11.1170709155
  - # 13
    frequency:   11.1218273991
  - # 14
    frequency:   11.1218273991
  - # 15
    frequency:   11.8862220358
  - # 16
    frequency:   11.8937110916
  - # 17
    frequency:   13.6695224258
  - # 18
    frequency:   13.6839881482

- q-position: [    0.0700000,    0.0000000,    0.0000000 ]
  distance:    0.0253997
  band:
  - # 1
    frequency:    1.1308863803
  - # 2
    frequency:    1.1308863803
  - # 3
    frequency:    1.1536744285
  - # 4
    frequency:    1.1536744285
  - # 5
    frequency:    1.3914540150
  - # 6
    frequency:    1.4412469270
  - # 7
    frequency:    8.2927062987
  - # 8
    frequency:    8.2927062987
  - # 9
    frequency:    8.2965432239
  - # 10
    frequency:    8.2965432239
  - # 11
    frequency:   11.1018861715
  - # 12
    frequency:   11.1018861715
  - # 13
    frequency:   11.1066284256
  - # 14
    frequency:   11.1066284256
  - # 15
    frequency:   11.8862435340
  - # 16
    frequency:   11.8936896070
  - # 17
    frequency:   13.6508581506
  - # 18
    frequency:   13.6652860206

- q-position: [    0.0800000,    0.0000000,    0.0000000 ]
  distance:    0.0290282
  band:
  - # 1
    frequency:    1.2912811716
  - # 2
    frequency:    1.2912811716
  - # 3
    frequency:    1.3110883395
  - # 4
    frequency:    1.3110883395
  - # 5
    frequency:    1.5888037857
  - # 6
    frequency:    1.6320552102
  - # 7
    frequency:    8.2927190399
  - # 8
    frequency:    8.2927190399
  - # 9
    frequency:    8.2965304886
  - # 10
    frequency:    8.2965304886
  - # 11
    frequency:   11.0843987654
  - # 12
    frequency:   11.0843987654
  - # 13
    frequency:   11.0891246071
  - # 14
    frequency:   11.0891246071
  - # 15
    frequency:   11.8862682620
  - # 16
    frequency:   11.8936648944
  - # 17
    frequency:   13.6293635856
  - # 18
    frequency:   13.6437477926

- q-position: [    0.0900000,    0.0000000,    0.0000000 ]
  distance:    0.0326567
  band:
  - # 1
    frequency:    1.4512067371
  - # 2
    frequency:    1.4512067371
  - # 3
    frequency:    1.4686609668
  - # 4
    frequency:    1.4686609668
  - # 5
    frequency:    1.7855764029
  - # 6
    frequency:    1.8236292965
  - # 7
    frequency:    8.2927334281
  - # 8
    frequency:    8.2927334281
  - # 9
    frequency:    8.2965161070
  - # 10
    frequency:    8.2965161070
  - # 11
    frequency:   11.0646234499
  - # 12
    frequency:   11.0646234499
  - # 13
    frequency:   11.0693306990
  - # 14
    frequency:   11.0693306990
  - # 15
    frequency:   11.8862961866
  - # 16
    frequency:   11.8936369871
  - # 17
    frequency:   13.6050568721
  - # 18
    frequency:   13.6193916113

- q-position: [    0.1000000,    0.0000000,    0.0000000 ]
  distance:    0.0362852
  band:
  - # 1
    frequency:    1.6106017178
  - # 2
    frequency:    1.6106017178
  - # 3
    frequency:    1.6261472415
  - # 4
    frequency:    1.6261472415
  - # 5
    frequency:    1.9816963204
  - # 6
    frequency:    2.0155082931
  - # 7
    frequency:    8.2927494437
  - # 8
    frequency:    8.2927494437
  - # 9
    frequency:    8.2965000986
  - # 10
    frequency:    8.2965000986
  - # 11
    frequency:   11.0425772333
  - # 12
    frequency:   11.0425772333
  - # 13
    frequency:   11.0472637129
  - # 14
    frequency:   11.0472637129
  - # 15
    frequency:   11.8863272696
  - # 16
    frequency:   11.8936059232
  - # 17
    frequency:   13.5779589255
  - # 18
    frequency:   13.5922383986

- q-position: [    0.1100000,    0.0000000,    0.0000000 ]
  distance:    0.0399138
  band:
  - # 1
    frequency:    1.7694036667
  - # 2
    frequency:    1.7694036667
  - # 3
    frequency:    1.7833660929
  - # 4
    frequency:    1.7833660929
  - # 5
    frequency:    2.1770866717
  - # 6
    frequency:    2.2073636888
  - # 7
    frequency:    8.2927670648
  - # 8
    frequency:    8.2927670648
  - # 9
    frequency:    8.2964824854
  - # 10
    frequency:    8.2964824854
  - # 11
    frequency:   11.0182794987
  - # 12
    frequency:   11.0182794987
  - # 13
    frequency:   11.0229430358
  - # 14
    frequency:   11.0229430358
  - # 15
    frequency:   11.8863614685
  - # 16
    frequency:   11.8935717452
  - # 17
    frequency:   13.5480935815
  - # 18
    frequency:   13.5623119980

- q-position: [    0.1200000,    0.0000000,    0.0000000 ]
  distance:    0.0435423
  band:
  - # 1
    frequency:    1.9275488827
  - # 2
    frequency:    1.9275488827
  - # 3
    frequency:    1.9401739096
  - # 4
    frequency:    1.9401739096
  - # 5
    frequency:    2.3716690583
  - # 6
    frequency:    2.3989461702
  - # 7
    frequency:    8.2927862669
  - # 8
    frequency:    8.2927862669
  - # 9
    frequency:    8.2964632919
  - # 10
    frequency:    8.2964632919
  - # 11
    frequency:   10.9917521436
  - # 12
    frequency:   10.9917521436
  - # 13
    frequency:   10.9963905696
  - # 14
    frequency:   10.9963905696
  - # 15
    frequency:   11.8863987356
  - # 16
    frequency:   11.8935345005
  - # 17
    frequency:   13.5154877674
  - # 18
    frequency:   13.5296393453

- q-position: [    0.1300000,    0.0000000,    0.0000000 ]
  distance:    0.0471708
  band:
  - # 1
    frequency:    2.0849722228
  - # 2
    frequency:    2.0849722228
  - # 3
    frequency:    2.0964498027
  - # 4
    frequency:    2.0964498027
  - # 5
    frequency:    2.5653633135
  - # 6
    frequency:    2.5900556083
  - # 7
    frequency:    8.2928070229
  - # 8
    frequency:    8.2928070229
  - # 9
    frequency:    8.2964425450
  - # 10
    frequency:    8.2964425450
  - # 11
    frequency:   10.9630197425
  - # 12
    frequency:   10.9630197425
  - # 13
    frequency:   10.9676308937
  - # 14
    frequency:   10.9676308937
  - # 15
    frequency:   11.8864390187
  - # 16
    frequency:   11.8934942415
  - # 17
    frequency:   13.4801717027
  - # 18
    frequency:   13.4942506697

- q-position: [    0.1400000,    0.0000000,    0.0000000 ]
  distance:    0.0507993
  band:
  - # 1
    frequency:    2.2416068878
  - # 2
    frequency:    2.2416068878
  - # 3
    frequency:    2.2520869293
  - # 4
    frequency:    2.2520869293
  - # 5
    frequency:    2.7580872371
  - # 6
    frequency:    2.7805232288
  - # 7
    frequency:    8.2928293035
  - # 8
    frequency:    8.2928293035
  - # 9
    frequency:    8.2964202742
  - # 10
    frequency:    8.2964202742
  - # 11
    frequency:   10.9321097363
  - # 12
    frequency:   10.9321097363
  - # 13
    frequency:   10.9366914548
  - # 14
    frequency:   10.9366914548
  - # 15
    frequency:   11.8864822603
  - # 16
    frequency:   11.8934510253
  - # 17
    frequency:   13.4421791313
  - # 18
    frequency:   13.4561797262

- q-position: [    0.1500000,    0.0000000,    0.0000000 ]
  distance:    0.0544279
  band:
  - # 1
    frequency:    2.3973841809
  - # 2
    frequency:    2.3973841809
  - # 3
    frequency:    2.4069871051
  - # 4
    frequency:    2.4069871051
  - # 5
    frequency:    2.9497562966
  - # 6
    frequency:    2.9702005177
  - # 7
    frequency:    8.2928530763
  - # 8
    frequency:    8.2928530763
  - # 9
    frequency:    8.2963965116
  - # 10
    frequency:    8.2963965116
  - # 11
    frequency:   10.8990526512
  - # 12
    frequency:   10.8990526512
  - # 13
    frequency:   10.9036027858
  - # 14
    frequency:   10.9036027858
  - # 15
    frequency:   11.8865283982
  - # 16
    frequency:   11.8934049143
  - # 17
    frequency:   13.4015475912
  - # 18
    frequency:   13.4154640654

- q-position: [    0.1600000,    0.0000000,    0.0000000 ]
  distance:    0.0580564
  band:
  - # 1
    frequency:    2.5522332338
  - # 2
    frequency:    2.5522332338
  - # 3
    frequency:    2.5610572793
  - # 4
    frequency:    2.5610572793
  - # 5
    frequency:    3.1402832892
  - # 6
    frequency:    3.1589520079
  - # 7
    frequency:    8.2928783065
  - # 8
    frequency:    8.2928783065
  - # 9
    frequency:    8.2963712921
  - # 10
    frequency:    8.2963712921
  - # 11
    frequency:   10.8638823527
  - # 12
    frequency:   10.8638823527
  - # 13
    frequency:   10.8683987597
  - # 14
    frequency:   10.8683987597
  - # 15
    frequency:   11.8865773645
  - # 16
    frequency:   11.8933559761
  - # 17
    frequency:   13.3583187264
  - # 18
    frequency:   13.3721453453

- q-position: [    0.1700000,    0.0000000,    0.0000000 ]
  distance:    0.0616849
  band:
  - # 1
    frequency:    2.7060806952
  - # 2
    frequency:    2.7060806952
  - # 3
    frequency:    2.7142071037
  - # 4
    frequency:    2.7142071037
  - # 5
    frequency:    3.3295779577
  - # 6
    frequency:    3.3466503809
  - # 7
    frequency:    8.2929049564
  - # 8
    frequency:    8.2929049564
  - # 9
    frequency:    8.2963446534
  - # 10
    frequency:    8.2963446534
  - # 11
    frequency:   10.8266363379
  - # 12
    frequency:   10.8266363379
  - # 13
    frequency:   10.8311168822
  - # 14
    frequency:   10.8311168822
  - # 15
    frequency:   11.8866290860
  - # 16
    frequency:   11.8933042838
  - # 17
    frequency:   13.3125386466
  - # 18
    frequency:   13.3262696914

- q-position: [    0.1800000,    0.0000000,    0.0000000 ]
  distance:    0.0653134
  band:
  - # 1
    frequency:    2.8588503756
  - # 2
    frequency:    2.8588503756
  - # 3
    frequency:    2.8663471538
  - # 4
    frequency:    2.8663471538
  - # 5
    frequency:    3.5175465534
  - # 6
    frequency:    3.5331729836
  - # 7
    frequency:    8.2929329852
  - # 8
    frequency:    8.2929329852
  - # 9
    frequency:    8.2963166360
  - # 10
    frequency:    8.2963166360
  - # 11
    frequency:   10.7873560743
  - # 12
    frequency:   10.7873560743
  - # 13
    frequency:   10.7917986309
  - # 14
    frequency:   10.7917986309
  - # 15
    frequency:   11.8866834838
  - # 16
    frequency:   11.8932499163
  - # 17
    frequency:   13.2642583438
  - # 18
    frequency:   13.2778881135

- q-position: [    0.1900000,    0.0000000,    0.0000000 ]
  distance:    0.0689420
  band:
  - # 1
    frequency:    3.0104628414
  - # 2
    frequency:    3.0104628414
  - # 3
    frequency:    3.0173875449
  - # 4
    frequency:    3.0173875449
  - # 5
    frequency:    3.7040913363
  - # 6
    frequency:    3.7183992242
  - # 7
    frequency:    8.2929623493
  - # 8
    frequency:    8.2929623493
  - # 9
    frequency:    8.2962872838
  - # 10
    frequency:    8.2962872838
  - # 11
    frequency:   10.7460873906
  - # 12
    frequency:   10.7460873906
  - # 13
    frequency:   10.7504898455
  - # 14
    frequency:   10.7504898455
  - # 15
    frequency:   11.8867404728
  - # 16
    frequency:   11.8931929585
  - # 17
    frequency:   13.2135341721
  - # 18
    frequency:   13.2270569863

- q-position: [    0.2000000,    0.0000000,    0.0000000 ]
  distance:    0.0725705
  band:
  - # 1
    frequency:    3.1608349502
  - # 2
    frequency:    3.1608349502
  - # 3
    frequency:    3.1672367782
  - # 4
    frequency:    3.1672367782
  - # 5
    frequency:    3.8891100021
  - # 6
    frequency:    3.9022085157
  - # 7
    frequency:    8.2929930015
  - # 8
    frequency:    8.2929930015
  - # 9
    frequency:    8.2962566438
  - # 10
    frequency:    8.2962566438
  - # 11
    frequency:   10.7028809279
  - # 12
    frequency:   10.7028809279
  - # 13
    frequency:   10.7072411803
  - # 14
    frequency:   10.7072411803
  - # 15
    frequency:   11.8867999618
  - # 16
    frequency:   11.8931335015
  - # 17
    frequency:   13.1604284035
  - # 18
    frequency:   13.1738386047

- q-position: [    0.2100000,    0.0000000,    0.0000000 ]
  distance:    0.0761990
  band:
  - # 1
    frequency:    3.3098793159
  - # 2
    frequency:    3.3098793159
  - # 3
    frequency:    3.3158007145
  - # 4
    frequency:    3.3158007145
  - # 5
    frequency:    4.0724950252
  - # 6
    frequency:    4.0844785516
  - # 7
    frequency:    8.2930248913
  - # 8
    frequency:    8.2930248913
  - # 9
    frequency:    8.2962247664
  - # 10
    frequency:    8.2962247664
  - # 11
    frequency:   10.6577926618
  - # 12
    frequency:   10.6577926618
  - # 13
    frequency:   10.6621086260
  - # 14
    frequency:   10.6621086260
  - # 15
    frequency:   11.8868618526
  - # 16
    frequency:   11.8930716433
  - # 17
    frequency:   13.1050098691
  - # 18
    frequency:   13.1183018267

- q-position: [    0.2200000,    0.0000000,    0.0000000 ]
  distance:    0.0798275
  band:
  - # 1
    frequency:    3.4575036947
  - # 2
    frequency:    3.4575036947
  - # 3
    frequency:    3.4629815992
  - # 4
    frequency:    3.4629815992
  - # 5
    frequency:    4.2541329017
  - # 6
    frequency:    4.2650837695
  - # 7
    frequency:    8.2930579646
  - # 8
    frequency:    8.2930579646
  - # 9
    frequency:    8.2961917058
  - # 10
    frequency:    8.2961917058
  - # 11
    frequency:   10.6108845067
  - # 12
    frequency:   10.6108845067
  - # 13
    frequency:   10.6151541143
  - # 14
    frequency:   10.6151541143
  - # 15
    frequency:   11.8869260400
  - # 16
    frequency:   11.8930074891
  - # 17
    frequency:   13.0473547022
  - # 18
    frequency:   13.0605228159

- q-position: [    0.2300000,    0.0000000,    0.0000000 ]
  distance:    0.0834561
  band:
  - # 1
    frequency:    3.6036102756
  - # 2
    frequency:    3.6036102756
  - # 3
    frequency:    3.6086770877
  - # 4
    frequency:    3.6086770877
  - # 5
    frequency:    4.4339032766
  - # 6
    frequency:    4.4438939008
  - # 7
    frequency:    8.2930921629
  - # 8
    frequency:    8.2930921629
  - # 9
    frequency:    8.2961575202
  - # 10
    frequency:    8.2961575202
  - # 11
    frequency:   10.5622250140
  - # 12
    frequency:   10.5622250140
  - # 13
    frequency:   10.5664462167
  - # 14
    frequency:   10.5664462167
  - # 15
    frequency:   11.8869924110
  - # 16
    frequency:   11.8929411517
  - # 17
    frequency:   12.9875471968
  - # 18
    frequency:   13.0005859020

- q-position: [    0.2400000,    0.0000000,    0.0000000 ]
  distance:    0.0870846
  band:
  - # 1
    frequency:    3.7480948622
  - # 2
    frequency:    3.7480948622
  - # 3
    frequency:    3.7527792274
  - # 4
    frequency:    3.7527792274
  - # 5
    frequency:    4.6116779372
  - # 6
    frequency:    4.6207725289
  - # 7
    frequency:    8.2931274238
  - # 8
    frequency:    8.2931274238
  - # 9
    frequency:    8.2961222722
  - # 10
    frequency:    8.2961222722
  - # 11
    frequency:   10.5118901820
  - # 12
    frequency:   10.5118901820
  - # 13
    frequency:   10.5160609553
  - # 14
    frequency:   10.5160609553
  - # 15
    frequency:   11.8870608439
  - # 16
    frequency:   11.8928727527
  - # 17
    frequency:   12.9256808036
  - # 18
    frequency:   12.9385845771

- q-position: [    0.2500000,    0.0000000,    0.0000000 ]
  distance:    0.0907131
  band:
  - # 1
    frequency:    3.8908459268
  - # 2
    frequency:    3.8908459268
  - # 3
    frequency:    3.8951733601
  - # 4
    frequency:    3.8951733601
  - # 5
    frequency:    4.7873196480
  - # 6
    frequency:    4.7955755952
  - # 7
    frequency:    8.2931636798
  - # 8
    frequency:    8.2931636798
  - # 9
    frequency:    8.2960860291
  - # 10
    frequency:    8.2960860291
  - # 11
    frequency:   10.4599643936
  - # 12
    frequency:   10.4599643936
  - # 13
    frequency:   10.4640827402
  - # 14
    frequency:   10.4640827402
  - # 15
    frequency:   11.8871312079
  - # 16
    frequency:   11.8928024225
  - # 17
    frequency:   12.8618592819
  - # 18
    frequency:   12.8746226494

- q-position: [    0.2600000,    0.0000000,    0.0000000 ]
  distance:    0.0943416
  band:
  - # 1
    frequency:    4.0317435162
  - # 2
    frequency:    4.0317435162
  - # 3
    frequency:    4.0357369114
  - # 4
    frequency:    4.0357369114
  - # 5
    frequency:    4.9606808049
  - # 6
    frequency:    4.9681497989
  - # 7
    frequency:    8.2932008582
  - # 8
    frequency:    8.2932008582
  - # 9
    frequency:    8.2960488636
  - # 10
    frequency:    8.2960488636
  - # 11
    frequency:   10.4065415025
  - # 12
    frequency:   10.4065415025
  - # 13
    frequency:   10.4106054578
  - # 14
    frequency:   10.4106054578
  - # 15
    frequency:   11.8872033622
  - # 16
    frequency:   11.8927303022
  - # 17
    frequency:   12.7961980363
  - # 18
    frequency:   12.8088155814

- q-position: [    0.2700000,    0.0000000,    0.0000000 ]
  distance:    0.0979702
  band:
  - # 1
    frequency:    4.1706579868
  - # 2
    frequency:    4.1706579868
  - # 3
    frequency:    4.1743380358
  - # 4
    frequency:    4.1743380358
  - # 5
    frequency:    5.1316018775
  - # 6
    frequency:    5.1383308436
  - # 7
    frequency:    8.2932388807
  - # 8
    frequency:    8.2932388807
  - # 9
    frequency:    8.2960108541
  - # 10
    frequency:    8.2960108541
  - # 11
    frequency:   10.3517260920
  - # 12
    frequency:   10.3517260920
  - # 13
    frequency:   10.3557337295
  - # 14
    frequency:   10.3557337295
  - # 15
    frequency:   11.8872771543
  - # 16
    frequency:   11.8926565440
  - # 17
    frequency:   12.7288256628
  - # 18
    frequency:   12.7412920386

- q-position: [    0.2800000,    0.0000000,    0.0000000 ]
  distance:    0.1015987
  band:
  - # 1
    frequency:    4.3074485412
  - # 2
    frequency:    4.3074485412
  - # 3
    frequency:    4.3108340836
  - # 4
    frequency:    4.3108340836
  - # 5
    frequency:    5.2999096090
  - # 6
    frequency:    5.3059414846
  - # 7
    frequency:    8.2932776620
  - # 8
    frequency:    8.2932776620
  - # 9
    frequency:    8.2959720855
  - # 10
    frequency:    8.2959720855
  - # 11
    frequency:   10.2956349305
  - # 12
    frequency:   10.2956349305
  - # 13
    frequency:   10.2995843696
  - # 14
    frequency:   10.2995843696
  - # 15
    frequency:   11.8873524192
  - # 16
    frequency:   11.8925813127
  - # 17
    frequency:   12.6598857392
  - # 18
    frequency:   12.6721956828

- q-position: [    0.2900000,    0.0000000,    0.0000000 ]
  distance:    0.1052272
  band:
  - # 1
    frequency:    4.4419615412
  - # 2
    frequency:    4.4419615412
  - # 3
    frequency:    4.4450698575
  - # 4
    frequency:    4.4450698575
  - # 5
    frequency:    5.4654149390
  - # 6
    frequency:    5.4707893311
  - # 7
    frequency:    8.2933171099
  - # 8
    frequency:    8.2933171099
  - # 9
    frequency:    8.2959326502
  - # 10
    frequency:    8.2959326502
  - # 11
    frequency:   10.2383986540
  - # 12
    frequency:   10.2383986540
  - # 13
    frequency:   10.2422880681
  - # 14
    frequency:   10.2422880681
  - # 15
    frequency:   11.8874289774
  - # 16
    frequency:   11.8925047876
  - # 17
    frequency:   12.5895388922
  - # 18
    frequency:   12.6016872432

- q-position: [    0.3000000,    0.0000000,    0.0000000 ]
  distance:    0.1088557
  band:
  - # 1
    frequency:    4.5740285633
  - # 2
    frequency:    4.5740285633
  - # 3
    frequency:    4.5768756263
  - # 4
    frequency:    4.5768756263
  - # 5
    frequency:    5.6279106117
  - # 6
    frequency:    5.6326643610
  - # 7
    frequency:    8.2933571234
  - # 8
    frequency:    8.2933571234
  - # 9
    frequency:    8.2958926491
  - # 10
    frequency:    8.2958926491
  - # 11
    frequency:   10.1801637027
  - # 12
    frequency:   10.1801637027
  - # 13
    frequency:   10.1839913310
  - # 14
    frequency:   10.1839913310
  - # 15
    frequency:   11.8875066334
  - # 16
    frequency:   11.8924271643
  - # 17
    frequency:   12.5179651788
  - # 18
    frequency:   12.5299469025

- q-position: [    0.3100000,    0.0000000,    0.0000000 ]
  distance:    0.1124843
  band:
  - # 1
    frequency:    4.7034641717
  - # 2
    frequency:    4.7034641717
  - # 3
    frequency:    4.7060648622
  - # 4
    frequency:    4.7060648622
  - # 5
    frequency:    5.7871684336
  - # 6
    frequency:    5.7913361037
  - # 7
    frequency:    8.2933975923
  - # 8
    frequency:    8.2933975923
  - # 9
    frequency:    8.2958521924
  - # 10
    frequency:    8.2958521924
  - # 11
    frequency:   10.1210945435
  - # 12
    frequency:   10.1210945435
  - # 13
    frequency:   10.1248587042
  - # 14
    frequency:   10.1248587042
  - # 15
    frequency:   11.8875851729
  - # 16
    frequency:   11.8923486567
  - # 17
    frequency:   12.4453668172
  - # 18
    frequency:   12.4571770355

- q-position: [    0.3200000,    0.0000000,    0.0000000 ]
  distance:    0.1161128
  band:
  - # 1
    frequency:    4.8300633781
  - # 2
    frequency:    4.8300633781
  - # 3
    frequency:    4.8324316746
  - # 4
    frequency:    4.8324316746
  - # 5
    frequency:    5.9429361491
  - # 6
    frequency:    5.9465504575
  - # 7
    frequency:    8.2934383952
  - # 8
    frequency:    8.2934383952
  - # 9
    frequency:    8.2958114014
  - # 10
    frequency:    8.2958114014
  - # 11
    frequency:   10.0613762033
  - # 12
    frequency:   10.0613762033
  - # 13
    frequency:   10.0650753108
  - # 14
    frequency:   10.0650753108
  - # 15
    frequency:   11.8876643605
  - # 16
    frequency:   11.8922695004
  - # 17
    frequency:   12.3719712999
  - # 18
    frequency:   12.3836053309

- q-position: [    0.3300000,    0.0000000,    0.0000000 ]
  distance:    0.1197413
  band:
  - # 1
    frequency:    4.9535987726
  - # 2
    frequency:    4.9535987726
  - # 3
    frequency:    4.9557479193
  - # 4
    frequency:    4.9557479193
  - # 5
    frequency:    6.0949339092
  - # 6
    frequency:    6.0980261112
  - # 7
    frequency:    8.2934793980
  - # 8
    frequency:    8.2934793980
  - # 9
    frequency:    8.2957704101
  - # 10
    frequency:    8.2957704101
  - # 11
    frequency:   10.0012171318
  - # 12
    frequency:   10.0012171318
  - # 13
    frequency:   10.0048497182
  - # 14
    frequency:   10.0048497182
  - # 15
    frequency:   11.8877439361
  - # 16
    frequency:   11.8921899551
  - # 17
    frequency:   12.2980349125
  - # 18
    frequency:   12.3094883214

- q-position: [    0.3400000,    0.0000000,    0.0000000 ]
  distance:    0.1233698
  band:
  - # 1
    frequency:    5.0738173209
  - # 2
    frequency:    5.0738173209
  - # 3
    frequency:    5.0757599785
  - # 4
    frequency:    5.0757599785
  - # 5
    frequency:    6.2428503303
  - # 6
    frequency:    6.2454505659
  - # 7
    frequency:    8.2935204524
  - # 8
    frequency:    8.2935204524
  - # 9
    frequency:    8.2957293669
  - # 10
    frequency:    8.2957293669
  - # 11
    frequency:    9.9408523985
  - # 12
    frequency:    9.9408523985
  - # 13
    frequency:    9.9444171406
  - # 14
    frequency:    9.9444171406
  - # 15
    frequency:   11.8878236114
  - # 16
    frequency:   11.8921103090
  - # 17
    frequency:   12.2238466603
  - # 18
    frequency:   12.2351153269

- q-position: [    0.3500000,    0.0000000,    0.0000000 ]
  distance:    0.1269984
  band:
  - # 1
    frequency:    5.1904368496
  - # 2
    frequency:    5.1904368496
  - # 3
    frequency:    5.1921852335
  - # 4
    frequency:    5.1921852335
  - # 5
    frequency:    6.3863381711
  - # 6
    frequency:    6.3884757804
  - # 7
    frequency:    8.2935613928
  - # 8
    frequency:    8.2935613928
  - # 9