
     Program PWSCF v.6.6 starts on  6Mar2023 at 16:29:41 

     This program is part of the open-source Quantum ESPRESSO suite
     for quantum simulation of materials; please cite
         "P. Giannozzi et al., J. Phys.:Condens. Matter 21 395502 (2009);
         "P. Giannozzi et al., J. Phys.:Condens. Matter 29 465901 (2017);
          URL http://www.quantum-espresso.org", 
     in publications or presentations arising from this work. More details at
     http://www.quantum-espresso.org/quote

     Parallel version (MPI), running on    24 processors

     MPI processes distributed on     1 nodes
     R & G space division:  proc/nbgrp/npool/nimage =      24
     Fft bands division:     nmany     =       1
     Reading input from INCAR-scf.pw

     Current dimensions of program PWSCF are:
     Max number of different atomic species (ntypx) = 10
     Max number of k-points (npk) =  40000
     Max angular momentum in pseudopotentials (lmaxx) =  3

     Subspace diagonalization in iterative solution of the eigenvalue problem:
     a serial algorithm will be used

 
     Parallelization info
     --------------------
     sticks:   dense  smooth     PW     G-vecs:    dense   smooth      PW
     Min         424     170     47                19922     5040     740
     Max         425     171     48                19926     5043     743
     Sum       10179    4081   1135               478197   121005   17781
 


     bravais-lattice index     =            0
     lattice parameter (alat)  =      12.1557  a.u.
     unit-cell volume          =    2532.0349 (a.u.)^3
     number of atoms/cell      =           32
     number of atomic types    =            3
     number of electrons       =       128.00
     number of Kohn-Sham states=           77
     kinetic-energy cutoff     =      50.0000  Ry
     charge density cutoff     =     500.0000  Ry
     convergence threshold     =      1.0E-10
     mixing beta               =       0.7000
     number of iterations used =            8  plain     mixing
     Exchange-correlation= LDA
                           (   1   1   0   0   0   0   0)

     celldm(1)=  12.155663  celldm(2)=   0.000000  celldm(3)=   0.000000
     celldm(4)=   0.000000  celldm(5)=   0.000000  celldm(6)=   0.000000

     crystal axes: (cart. coord. in units of alat)
               a(1) = (   1.000000   0.000000   0.000000 )  
               a(2) = (   0.000000   1.732079   0.000000 )  
               a(3) = (   0.000000   0.000000   0.813890 )  

     reciprocal axes: (cart. coord. in units 2 pi/alat)
               b(1) = (  1.000000  0.000000  0.000000 )  
               b(2) = (  0.000000  0.577341  0.000000 )  
               b(3) = (  0.000000  0.000000  1.228667 )  


     PseudoPot. # 1 for Al read from file:
     ./Al.pz-n-rrkjus_psl.0.1.UPF
     MD5 check sum: 3b788946f5b2ec323a58a29a5ff2368a
     Pseudo is Ultrasoft + core correction, Zval =  3.0
     Generated using "atomic" code by A. Dal Corso v.5.0.2 svn rev. 9415
     Using radial grid of 1135 points,  4 beta functions with: 
                l(1) =   0
                l(2) =   0
                l(3) =   1
                l(4) =   1
     Q(r) pseudized with 0 coefficients 


     PseudoPot. # 2 for N  read from file:
     ./N.pz-n-rrkjus_psl.0.1.UPF
     MD5 check sum: 5663b752f1eef59ba9d503062cb6a42c
     Pseudo is Ultrasoft + core correction, Zval =  5.0
     Generated using "atomic" code by A. Dal Corso v.5.0.2 svn rev. 9415
     Using radial grid of 1085 points,  4 beta functions with: 
                l(1) =   0
                l(2) =   0
                l(3) =   1
                l(4) =   1
     Q(r) pseudized with 0 coefficients 


     PseudoPot. # 3 for B  read from file:
     ./B.pz-n-rrkjus_psl.0.1.UPF
     MD5 check sum: afbcbde2cf54223ea3a4e9251853ad92
     Pseudo is Ultrasoft + core correction, Zval =  3.0
     Generated using "atomic" code by A. Dal Corso v.5.0.2 svn rev. 9415
     Using radial grid of 1059 points,  4 beta functions with: 
                l(1) =   0
                l(2) =   0
                l(3) =   1
                l(4) =   1
     Q(r) pseudized with 0 coefficients 


     atomic species   valence    mass     pseudopotential
        Al             3.00    26.98154     Al( 1.00)
        N              5.00    14.00674     N ( 1.00)
        B              3.00    10.81100     B ( 1.00)

     No symmetry found



   Cartesian axes

     site n.     atom                  positions (alat units)
         1           Al  tau(   1) = (   0.1316730   0.2712142   0.4402537  )
         2           N   tau(   2) = (   0.1316730   0.2712142   0.7464490  )
         3           Al  tau(   3) = (   0.1316730   0.5598929   0.0329504  )
         4           N   tau(   4) = (   0.1316730   0.5598929   0.3398619  )
         5           Al  tau(   5) = (   0.3816730   0.7042323   0.4402537  )
         6           N   tau(   6) = (   0.3816730   0.7042323   0.7464490  )
         7           Al  tau(   7) = (   0.3816730   0.9929110   0.0329504  )
         8           N   tau(   8) = (   0.3816730   0.9929110   0.3398619  )
         9           Al  tau(   9) = (   0.1316730   1.1372503   0.4402537  )
        10           N   tau(  10) = (   0.1316730   1.1372503   0.7464490  )
        11           Al  tau(  11) = (   0.1316730   1.4259291   0.0329504  )
        12           N   tau(  12) = (   0.1316730   1.4259291   0.3398619  )
        13           Al  tau(  13) = (   0.3816730   1.5702684   0.4402537  )
        14           N   tau(  14) = (   0.3816730   1.5702684   0.7464490  )
        15           Al  tau(  15) = (   0.3816730   0.1268748   0.0329504  )
        16           N   tau(  16) = (   0.3816730   0.1268748   0.3398619  )
        17           Al  tau(  17) = (   0.6316730   0.2712142   0.4402537  )
        18           N   tau(  18) = (   0.6316730   0.2712142   0.7464490  )
        19           Al  tau(  19) = (   0.6316730   0.5598929   0.0329504  )
        20           N   tau(  20) = (   0.6316730   0.5598929   0.3398619  )
        21           B   tau(  21) = (   0.8816730   0.7042323   0.4402537  )
        22           N   tau(  22) = (   0.8816730   0.7042323   0.7464490  )
        23           Al  tau(  23) = (   0.8816730   0.9929110   0.0329504  )
        24           N   tau(  24) = (   0.8816730   0.9929110   0.3398619  )
        25           B   tau(  25) = (   0.6316730   1.1372503   0.4402537  )
        26           N   tau(  26) = (   0.6316730   1.1372503   0.7464490  )
        27           B   tau(  27) = (   0.6316730   1.4259291   0.0329504  )
        28           N   tau(  28) = (   0.6316730   1.4259291   0.3398619  )
        29           B   tau(  29) = (   0.8816730   1.5702684   0.4402537  )
        30           N   tau(  30) = (   0.8816730   1.5702684   0.7464490  )
        31           Al  tau(  31) = (   0.8816730   0.1268748   0.0329504  )
        32           N   tau(  32) = (   0.8816730   0.1268748   0.3398619  )

     number of k points=    46  Gaussian smearing, width (Ry)=  0.0100
                       cart. coord. in units 2pi/alat
        k(    1) = (   0.0000000   0.0000000   0.0000000), wk =   0.0222222
        k(    2) = (   0.0000000   0.0000000   0.2047778), wk =   0.0444444
        k(    3) = (   0.0000000   0.0000000   0.4095556), wk =   0.0444444
        k(    4) = (   0.0000000   0.0000000  -0.6143333), wk =   0.0222222
        k(    5) = (   0.0000000   0.1924469   0.0000000), wk =   0.0444444
        k(    6) = (   0.0000000   0.1924469   0.2047778), wk =   0.0444444
        k(    7) = (   0.0000000   0.1924469   0.4095556), wk =   0.0444444
        k(    8) = (   0.0000000   0.1924469  -0.6143333), wk =   0.0444444
        k(    9) = (   0.2000000   0.0000000   0.0000000), wk =   0.0444444
        k(   10) = (   0.2000000   0.0000000   0.2047778), wk =   0.0444444
        k(   11) = (   0.2000000   0.0000000   0.4095556), wk =   0.0444444
        k(   12) = (   0.2000000   0.0000000  -0.6143333), wk =   0.0444444
        k(   13) = (   0.2000000   0.1924469   0.0000000), wk =   0.0444444
        k(   14) = (   0.2000000   0.1924469   0.2047778), wk =   0.0444444
        k(   15) = (   0.2000000   0.1924469   0.4095556), wk =   0.0444444
        k(   16) = (   0.2000000   0.1924469  -0.6143333), wk =   0.0444444
        k(   17) = (   0.4000000   0.0000000   0.0000000), wk =   0.0444444
        k(   18) = (   0.4000000   0.0000000   0.2047778), wk =   0.0444444
        k(   19) = (   0.4000000   0.0000000   0.4095556), wk =   0.0444444
        k(   20) = (   0.4000000   0.0000000  -0.6143333), wk =   0.0444444
        k(   21) = (   0.4000000   0.1924469   0.0000000), wk =   0.0444444
        k(   22) = (   0.4000000   0.1924469   0.2047778), wk =   0.0444444
        k(   23) = (   0.4000000   0.1924469   0.4095556), wk =   0.0444444
        k(   24) = (   0.4000000   0.1924469  -0.6143333), wk =   0.0444444
        k(   25) = (   0.0000000  -0.1924469   0.2047778), wk =   0.0444444
        k(   26) = (   0.0000000  -0.1924469   0.4095556), wk =   0.0444444
        k(   27) = (  -0.2000000   0.0000000   0.2047778), wk =   0.0444444
        k(   28) = (  -0.2000000   0.0000000   0.4095556), wk =   0.0444444
        k(   29) = (  -0.2000000   0.1924469   0.0000000), wk =   0.0444444
        k(   30) = (  -0.2000000  -0.1924469   0.2047778), wk =   0.0444444
        k(   31) = (  -0.2000000   0.1924469  -0.2047778), wk =   0.0444444
        k(   32) = (   0.2000000  -0.1924469  -0.2047778), wk =   0.0444444
        k(   33) = (  -0.2000000  -0.1924469   0.4095556), wk =   0.0444444
        k(   34) = (  -0.2000000   0.1924469  -0.4095556), wk =   0.0444444
        k(   35) = (   0.2000000  -0.1924469  -0.4095556), wk =   0.0444444
        k(   36) = (  -0.2000000   0.1924469   0.6143333), wk =   0.0444444
        k(   37) = (  -0.4000000   0.0000000   0.2047778), wk =   0.0444444
        k(   38) = (  -0.4000000   0.0000000   0.4095556), wk =   0.0444444
        k(   39) = (  -0.4000000   0.1924469   0.0000000), wk =   0.0444444
        k(   40) = (  -0.4000000  -0.1924469   0.2047778), wk =   0.0444444
        k(   41) = (  -0.4000000   0.1924469  -0.2047778), wk =   0.0444444
        k(   42) = (   0.4000000  -0.1924469  -0.2047778), wk =   0.0444444
        k(   43) = (  -0.4000000  -0.1924469   0.4095556), wk =   0.0444444
        k(   44) = (  -0.4000000   0.1924469  -0.4095556), wk =   0.0444444
        k(   45) = (   0.4000000  -0.1924469  -0.4095556), wk =   0.0444444
        k(   46) = (  -0.4000000   0.1924469   0.6143333), wk =   0.0444444

     Dense  grid:   478197 G-vectors     FFT dimensions: (  90, 150,  72)

     Smooth grid:   121005 G-vectors     FFT dimensions: (  60,  96,  45)

     Estimated max dynamical RAM per process >      68.84 MB

     Estimated total dynamical RAM >       1.61 GB

     Check: negative core charge=   -0.000004

     Initial potential from superposition of free atoms

     starting charge  127.97455, renormalised to  128.00000
     Starting wfcs are  128 randomized atomic wfcs

     total cpu time spent up to now is        9.6 secs

     Self-consistent Calculation

     iteration #  1     ecut=    50.00 Ry     beta= 0.70
     Davidson diagonalization with overlap
     ethr =  1.00E-02,  avg # of iterations =  2.2

     total cpu time spent up to now is       25.1 secs

     total energy              =    -412.30570214 Ry
     estimated scf accuracy    <       8.20751664 Ry

     iteration #  2     ecut=    50.00 Ry     beta= 0.70
     Davidson diagonalization with overlap
     ethr =  6.41E-03,  avg # of iterations =  3.3

     total cpu time spent up to now is       46.9 secs

     total energy              =    -414.76448065 Ry
     estimated scf accuracy    <       8.76339147 Ry

     iteration #  3     ecut=    50.00 Ry     beta= 0.70
     Davidson diagonalization with overlap
     ethr =  6.41E-03,  avg # of iterations =  2.0

     total cpu time spent up to now is       59.8 secs

     total energy              =    -415.78494748 Ry
     estimated scf accuracy    <       0.78709854 Ry

     iteration #  4     ecut=    50.00 Ry     beta= 0.70
     Davidson diagonalization with overlap
     ethr =  6.15E-04,  avg # of iterations =  3.1

     total cpu time spent up to now is       79.2 secs

     total energy              =    -416.18984710 Ry
     estimated scf accuracy    <       0.03942971 Ry

     iteration #  5     ecut=    50.00 Ry     beta= 0.70
     Davidson diagonalization with overlap
     c_bands:  1 eigenvalues not converged
     c_bands:  1 eigenvalues not converged
     c_bands:  1 eigenvalues not converged
     c_bands:  2 eigenvalues not converged
     c_bands:  2 eigenvalues not converged
     c_bands:  1 eigenvalues not converged
     c_bands:  1 eigenvalues not converged
     c_bands:  1 eigenvalues not converged
     c_bands:  1 eigenvalues not converged
     c_bands:  1 eigenvalues not converged
     c_bands:  1 eigenvalues not converged
     c_bands:  1 eigenvalues not converged
     c_bands:  1 eigenvalues not converged
     c_bands:  1 eigenvalues not converged
     c_bands:  1 eigenvalues not converged
     c_bands:  1 eigenvalues not converged
     c_bands:  2 eigenvalues not converged
     c_bands:  2 eigenvalues not converged
     c_bands:  1 eigenvalues not converged
     c_bands:  1 eigenvalues not converged
     c_bands:  1 eigenvalues not converged
     c_bands:  2 eigenvalues not converged
     c_bands:  1 eigenvalues not converged
     c_bands:  2 eigenvalues not converged
     ethr =  3.08E-05,  avg # of iterations = 19.2

     total cpu time spent up to now is      126.2 secs

     total energy              =    -416.22646609 Ry
     estimated scf accuracy    <       0.14098650 Ry

     iteration #  6     ecut=    50.00 Ry     beta= 0.70
     Davidson diagonalization with overlap
     c_bands:  1 eigenvalues not converged
     ethr =  3.08E-05,  avg # of iterations =  5.9

     total cpu time spent up to now is      144.4 secs

     total energy              =    -416.22318195 Ry
     estimated scf accuracy    <       0.04712006 Ry

     iteration #  7     ecut=    50.00 Ry     beta= 0.70
     Davidson diagonalization with overlap
     ethr =  3.08E-05,  avg # of iterations =  1.2

     total cpu time spent up to now is      155.9 secs

     total energy              =    -416.22349371 Ry
     estimated scf accuracy    <       0.01351317 Ry

     iteration #  8     ecut=    50.00 Ry     beta= 0.70
     Davidson diagonalization with overlap
     c_bands:  1 eigenvalues not converged
     ethr =  1.06E-05,  avg # of iterations =  8.0

     total cpu time spent up to now is      176.2 secs

     total energy              =    -416.22403254 Ry
     estimated scf accuracy    <       0.00445600 Ry

     iteration #  9     ecut=    50.00 Ry     beta= 0.70
     Davidson diagonalization with overlap
     c_bands:  1 eigenvalues not converged
     c_bands:  1 eigenvalues not converged
     c_bands:  1 eigenvalues not converged
     c_bands:  1 eigenvalues not converged
     c_bands:  1 eigenvalues not converged
     c_bands:  1 eigenvalues not converged
     c_bands:  1 eigenvalues not converged
     c_bands:  1 eigenvalues not converged
     c_bands:  1 eigenvalues not converged
     ethr =  3.48E-06,  avg # of iterations = 12.8

     total cpu time spent up to now is      202.6 secs

     total energy              =    -416.22527061 Ry
     estimated scf accuracy    <       0.00017543 Ry

     iteration # 10     ecut=    50.00 Ry     beta= 0.70
     Davidson diagonalization with overlap
     c_bands:  1 eigenvalues not converged
     c_bands:  1 eigenvalues not converged
     c_bands:  1 eigenvalues not converged
     ethr =  1.37E-07,  avg # of iterations =  7.1

     total cpu time spent up to now is      232.2 secs

     total energy              =    -416.22554431 Ry
     estimated scf accuracy    <       0.00011191 Ry

     iteration # 11     ecut=    50.00 Ry     beta= 0.70
     Davidson diagonalization with overlap
     c_bands:  1 eigenvalues not converged
     ethr =  8.74E-08,  avg # of iterations =  2.0

     total cpu time spent up to now is      244.8 secs

     total energy              =    -416.22549090 Ry
     estimated scf accuracy    <       0.00012806 Ry

     iteration # 12     ecut=    50.00 Ry     beta= 0.70
     Davidson diagonalization with overlap
     ethr =  8.74E-08,  avg # of iterations =  2.3

     total cpu time spent up to now is      260.9 secs

     total energy              =    -416.22550752 Ry
     estimated scf accuracy    <       0.00000580 Ry

     iteration # 13     ecut=    50.00 Ry     beta= 0.70
     Davidson diagonalization with overlap
     ethr =  4.53E-09,  avg # of iterations =  6.0

     total cpu time spent up to now is      290.4 secs

     total energy              =    -416.22551450 Ry
     estimated scf accuracy    <       0.00000827 Ry

     iteration # 14     ecut=    50.00 Ry     beta= 0.70
     Davidson diagonalization with overlap
     ethr =  4.53E-09,  avg # of iterations =  1.1

     total cpu time spent up to now is      302.4 secs

     total energy              =    -416.22551229 Ry
     estimated scf accuracy    <       0.00000661 Ry

     iteration # 15     ecut=    50.00 Ry     beta= 0.70
     Davidson diagonalization with overlap
     ethr =  4.53E-09,  avg # of iterations =  2.0

     total cpu time spent up to now is      316.2 secs

     total energy              =    -416.22551258 Ry
     estimated scf accuracy    <       0.00000117 Ry

     iteration # 16     ecut=    50.00 Ry     beta= 0.70
     Davidson diagonalization with overlap
     ethr =  9.15E-10,  avg # of iterations =  2.0

     total cpu time spent up to now is      331.5 secs

     total energy              =    -416.22551269 Ry
     estimated scf accuracy    <       0.00000025 Ry

     iteration # 17     ecut=    50.00 Ry     beta= 0.70
     Davidson diagonalization with overlap
     ethr =  1.93E-10,  avg # of iterations =  4.0

     total cpu time spent up to now is      350.6 secs

     total energy              =    -416.22551278 Ry
     estimated scf accuracy    <       0.00000001 Ry

     iteration # 18     ecut=    50.00 Ry     beta= 0.70
     Davidson diagonalization with overlap
     ethr =  1.04E-11,  avg # of iterations =  5.3

     total cpu time spent up to now is      375.9 secs

     total energy              =    -416.22551279 Ry
     estimated scf accuracy    <          4.1E-09 Ry

     iteration # 19     ecut=    50.00 Ry     beta= 0.70
     Davidson diagonalization with overlap
     ethr =  3.17E-12,  avg # of iterations =  2.6

     total cpu time spent up to now is      391.9 secs

     total energy              =    -416.22551279 Ry
     estimated scf accuracy    <          7.9E-10 Ry

     iteration # 20     ecut=    50.00 Ry     beta= 0.70
     Davidson diagonalization with overlap
     ethr =  6.19E-13,  avg # of iterations =  4.0

     total cpu time spent up to now is      411.5 secs

     total energy              =    -416.22551279 Ry
     estimated scf accuracy    <          3.8E-10 Ry

     iteration # 21     ecut=    50.00 Ry     beta= 0.70
     Davidson diagonalization with overlap
     ethr =  3.00E-13,  avg # of iterations =  3.2

     total cpu time spent up to now is      429.6 secs

     total energy              =    -416.22551279 Ry
     estimated scf accuracy    <          1.7E-10 Ry

     iteration # 22     ecut=    50.00 Ry     beta= 0.70
     Davidson diagonalization with overlap
     ethr =  1.33E-13,  avg # of iterations =  2.0

     total cpu time spent up to now is      443.5 secs

     End of self-consistent calculation

          k = 0.0000 0.0000 0.0000 ( 15155 PWs)   bands (ev):

    -9.4233  -8.7540  -8.7448  -7.8175  -7.7702  -7.6972  -7.6951  -7.6423
    -7.6233  -7.2801  -7.2501  -7.1444  -7.0809  -7.0683  -7.0174  -6.9623
    -0.9498  -0.6266  -0.5349  -0.3591   0.0086   0.0900   0.3273   0.5224
     0.6660   0.7286   0.8267   0.8820   1.0028   1.5091   1.5297   1.5668
     1.5990   1.6614   1.7130   1.7314   2.0257   2.0533   2.4558   2.5940
     2.8567   2.8681   2.8773   3.0530   3.1130   3.1352   3.2213   3.2927
     3.3756   3.4420   3.4500   3.5457   4.1293   4.1395   4.1789   4.2084
     4.2313   4.3998   4.4207   4.5256   4.5748   4.8446   4.8519   4.8689
     7.6982   8.8606   8.9536   9.2152   9.7457   9.8919  10.0558  10.1831
    10.2436  10.3111  10.3190  10.3600  10.6587

          k = 0.0000 0.0000 0.2048 ( 15146 PWs)   bands (ev):

    -9.3328  -8.6746  -8.6651  -7.7990  -7.7707  -7.7180  -7.6564  -7.6511
    -7.5986  -7.3995  -7.3720  -7.1860  -7.1160  -7.1099  -7.0651  -7.0074
    -0.7832  -0.7060  -0.6386  -0.3395   0.0216   0.1450   0.1668   0.3593
     0.4659   0.5512   0.6587   0.6733   0.7471   1.6198   1.6865   1.8080
     1.9097   1.9487   1.9967   2.0538   2.1525   2.1661   2.3568   2.4031
     2.8987   2.9176   2.9491   3.0366   3.0842   3.3427   3.4263   3.4654
     3.4886   3.5595   3.6951   3.7335   4.0839   4.1134   4.1313   4.1660
     4.1785   4.2090   4.3462   4.3830   4.4413   4.4989   4.7953   4.8169
     8.1288   8.8005   8.9215   9.0764   9.5468   9.7334   9.8551   9.9156
    10.0231  10.3128  10.4166  10.4504  10.7791

          k = 0.0000 0.0000 0.4096 ( 15116 PWs)   bands (ev):

    -9.0713  -8.4482  -8.4375  -8.1998  -7.7275  -7.7183  -7.6374  -7.5883
    -7.5383  -7.5127  -7.4737  -7.2996  -7.2189  -7.2151  -7.1911  -7.1295
    -0.8561  -0.7755  -0.7375  -0.2877  -0.0422  -0.0289   0.0246   0.2439
     0.3752   0.4611   0.5417   0.5666   0.6493   1.4746   1.6517   1.8331
     1.8766   2.4163   2.5325   2.5547   2.5821   2.7175   2.7755   2.7877
     2.9328   3.0568   3.0923   3.1539   3.1602   3.2029   3.5374   3.6846
     3.7003   3.7429   3.7631   3.8498   3.8693   3.8977   3.9550   4.0132
     4.0230   4.0749   4.1765   4.2549   4.3016   4.3669   4.6615   4.6824
     8.5709   8.6498   8.7880   8.9079   9.4824   9.5595   9.6447   9.8548
    10.0209  10.2594  10.3720  10.6019  10.7216

          k = 0.0000 0.0000-0.6143 ( 15150 PWs)   bands (ev):

    -8.7031  -8.6375  -8.1362  -8.1258  -8.0767  -8.0620  -7.4879  -7.4603
    -7.4534  -7.4073  -7.3897  -7.3667  -7.3488  -7.3178  -7.3013  -7.2681
    -0.9068  -0.8063  -0.6795  -0.5142  -0.2181  -0.1947  -0.0092   0.1476
     0.1836   0.4098   0.8731   1.0288   1.0753   1.2194   1.5235   1.7276
     2.0385   2.0851   2.2139   2.2772   3.0857   3.1777   3.2024   3.2937
     3.3028   3.3376   3.3891   3.4164   3.4662   3.4817   3.4931   3.5008
     3.5410   3.6201   3.6377   3.6708   3.7169   3.7931   3.8263   3.8471
     3.8834   3.9553   3.9921   4.0735   4.4269   4.4479   4.5260   4.5513
     8.7266   8.7740   8.8091   8.8787   9.3551   9.3632   9.6085   9.9337
    10.0287  10.2661  10.3383  10.4530  10.5566

          k = 0.0000 0.1924 0.0000 ( 15110 PWs)   bands (ev):

    -9.3507  -9.0972  -8.3184  -7.9014  -7.8115  -7.7525  -7.7142  -7.6504
    -7.5862  -7.4267  -7.1458  -7.1176  -7.0647  -7.0499  -7.0220  -6.9631
    -0.8855  -0.6747  -0.4740  -0.2180  -0.1233   0.1324   0.2384   0.3692
     0.6937   0.8219   0.8504   0.9134   1.0500   1.1497   1.3888   1.5099
     1.5843   1.6240   1.6395   1.7677   2.1409   2.1693   2.6038   2.6274
     2.7682   2.9296   3.0773   3.1934   3.2406   3.3389   3.3579   3.3848
     3.4584   3.5325   3.5914   3.7340   3.7542   3.9133   3.9903   4.0303
     4.0941   4.2691   4.3892   4.3931   4.6440   4.7007   4.8191   4.8447
     8.1028   8.7449   9.0981   9.2466   9.6473  10.0357  10.1100  10.2370
    10.2946  10.3777  10.4649  10.5202  10.7336

          k = 0.0000 0.1924 0.2048 ( 15124 PWs)   bands (ev):

    -9.2612  -9.0112  -8.2498  -7.8498  -7.7665  -7.7557  -7.7006  -7.6682
    -7.6064  -7.5724  -7.2105  -7.1809  -7.1136  -7.0995  -7.0703  -7.0076
    -0.7501  -0.6500  -0.5596  -0.2219  -0.0721  -0.0032   0.1019   0.2064
     0.4558   0.5732   0.6650   0.7955   0.8932   1.1587   1.5811   1.7523
     1.8244   1.8885   1.9404   1.9966   2.2718   2.3544   2.7023   2.7351
     2.8211   3.0011   3.1454   3.2003   3.2798   3.3330   3.4423   3.4982
     3.6103   3.6348   3.7314   3.7770   3.8128   3.8974   3.9079   3.9845
     4.0668   4.0909   4.1718   4.3019   4.5301   4.6304   4.6646   4.7878
     8.4168   8.8007   9.0317   9.1198   9.6077   9.8541   9.8925   9.9553
    10.1367  10.1792  10.3002  10.6085  10.8678

          k = 0.0000 0.1924 0.4096 ( 15128 PWs)   bands (ev):

    -9.0030  -8.7638  -8.1501  -8.0532  -7.9521  -7.7041  -7.6379  -7.5786
    -7.5513  -7.4859  -7.4329  -7.2992  -7.2627  -7.2150  -7.1936  -7.1293
    -0.7978  -0.6947  -0.6507  -0.3027  -0.0829   0.0010   0.0566   0.2423
     0.2667   0.3730   0.4462   0.5253   0.6173   0.8516   2.0322   2.0978
     2.2482   2.3455   2.5216   2.5735   2.6449   2.7686   2.8500   2.8916
     3.0195   3.0933   3.1061   3.1284   3.2213   3.2773   3.3289   3.4778
     3.5143   3.8136   3.8216   3.8648   3.9040   3.9367   3.9704   3.9736
     4.0130   4.0372   4.0619   4.1610   4.2102   4.4495   4.4607   4.6380
     8.6976   8.7682   8.8855   9.0570   9.5570   9.7151   9.7441   9.9182
     9.9710  10.0575  10.2058  10.5412  10.6922

          k = 0.0000 0.1924-0.6143 ( 15106 PWs)   bands (ev):

    -8.6406  -8.5761  -8.4184  -8.3531  -7.8014  -7.7476  -7.5204  -7.4790
    -7.4736  -7.4410  -7.4375  -7.3863  -7.3693  -7.3238  -7.3076  -7.2742
    -0.8343  -0.7132  -0.6039  -0.4971  -0.1207  -0.0468  -0.0259   0.0472
     0.0798   0.2447   0.3635   0.5098   1.3667   1.5180   1.5545   1.7226
     2.3246   2.3712   2.4985   2.5642   2.8828   2.9240   3.0485   3.1040
     3.1807   3.3091   3.3240   3.3978   3.4808   3.5080   3.5525   3.5917
     3.6391   3.6654   3.7063   3.7359   3.7483   3.7797   3.8207   3.8348
     3.8518   3.8971   4.1338   4.1510   4.2419   4.2599   4.3792   4.4944
     8.8136   8.8628   8.9219   9.0241   9.4987   9.5398   9.7590   9.8648
     9.9998  10.1635  10.2858  10.3922  10.4945

          k = 0.2000 0.0000 0.0000 ( 15123 PWs)   bands (ev):

    -9.3385  -8.6810  -8.6718  -8.2455  -7.8515  -7.8431  -7.6446  -7.5773
    -7.3954  -7.2488  -7.2186  -7.1575  -7.0934  -7.0673  -7.0389  -6.9844
    -0.8525  -0.5006  -0.4220  -0.2116   0.1436   0.2017   0.3540   0.5558
     0.7114   0.8036   0.9100   1.0182   1.1956   1.3187   1.3782   1.4031
     1.4758   1.6780   1.7189   1.7555   2.1610   2.2135   2.2419   2.4858
     2.6993   2.7754   2.8319   2.8455   2.9045   3.1299   3.2652   3.3352
     3.4094   3.4607   3.6699   3.8061   3.8914   3.9279   4.0110   4.1185
     4.1693   4.2782   4.3266   4.3519   4.3778   4.4507   4.7999   4.8046
     8.1473   9.1229   9.2364   9.5087   9.7355  10.0060  10.0974  10.2455
    10.3194  10.4405  10.5739  10.7200  10.9073

          k = 0.2000 0.0000 0.2048 ( 15113 PWs)   bands (ev):

    -9.2492  -8.6031  -8.5936  -8.1790  -7.8019  -7.7921  -7.7398  -7.6062
    -7.3859  -7.3507  -7.3358  -7.2195  -7.1316  -7.1070  -7.0867  -7.0402
    -0.6888  -0.5829  -0.4987  -0.2219   0.1185   0.2164   0.2372   0.4877
     0.5257   0.6646   0.7199   0.7593   1.0953   1.1688   1.6152   1.7411
     1.7792   1.8309   1.9061   2.0177   2.1636   2.2148   2.4870   2.5778
     2.6360   2.7666   2.9020   2.9111   3.1891   3.2455   3.3600   3.4083
     3.5383   3.6221   3.6708   3.7916   3.8093   3.8768   4.0315   4.0615
     4.0923   4.1165   4.1965   4.2481   4.3665   4.3955   4.6820   4.7426
     8.4640   9.0142   9.1691   9.4136   9.7309   9.8728  10.0001  10.1461
    10.1849  10.2426  10.5738  10.6894  10.9237

          k = 0.2000 0.0000 0.4096 ( 15132 PWs)   bands (ev):

    -8.9913  -8.3813  -8.3707  -8.1359  -7.9910  -7.6968  -7.6821  -7.6383
    -7.6288  -7.4869  -7.4175  -7.3253  -7.2507  -7.2287  -7.1864  -7.1245
    -0.7517  -0.6453  -0.5684  -0.1902   0.0751   0.1415   0.1592   0.3399
     0.4712   0.5172   0.5959   0.6624   0.8743   1.1667   1.4250   1.5760
     2.0751   2.3868   2.4295   2.5036   2.5740   2.6455   2.6663   2.7159
     2.8601   3.0560   3.1081   3.1546   3.2404   3.3390   3.3796   3.4243
     3.4488   3.6275   3.7056   3.7841   3.8466   3.8936   3.9374   3.9494
     3.9809   4.0081   4.0963   4.1434   4.1898   4.2155   4.4730   4.5915
     8.7618   8.8879   9.0924   9.1989   9.6214   9.8217   9.9404  10.0534
    10.1809  10.3865  10.4983  10.7131  10.9165

          k = 0.2000 0.0000-0.6143 ( 15110 PWs)   bands (ev):

    -8.6291  -8.5642  -8.0772  -8.0667  -8.0187  -8.0042  -7.7454  -7.6928
    -7.4925  -7.4687  -7.4410  -7.4153  -7.3605  -7.3152  -7.2205  -7.1736
    -0.8087  -0.6384  -0.5437  -0.3634  -0.0668  -0.0306   0.0545   0.2589
     0.3918   0.6320   0.8435   0.9980   1.0456   1.1681   1.4560   1.5710
     1.6447   1.7268   2.6639   2.8276   2.8787   2.9615   3.0407   3.0799
     3.1879   3.2233   3.2747   3.3113   3.3410   3.4048   3.4726   3.5166
     3.5456   3.6022   3.6550   3.6804   3.7154   3.7572   3.7750   3.8186
     3.8335   3.8987   3.9213   3.9927   4.1605   4.2657   4.3373   4.4449
     8.9487   9.0076   9.0513   9.1431   9.5478   9.6073   9.8659  10.1233
    10.2781  10.4012  10.4545  10.6197  10.6713

          k = 0.2000 0.1924 0.0000 ( 15093 PWs)   bands (ev):

    -9.2672  -9.0176  -8.2553  -8.2025  -8.0368  -7.8448  -7.6377  -7.5467
    -7.4558  -7.3844  -7.1588  -7.1121  -7.0816  -7.0555  -7.0200  -6.9823
    -0.7870  -0.5889  -0.3539  -0.0632   0.0166   0.1589   0.3769   0.5568
     0.7342   0.8712   0.9175   0.9690   1.0555   1.1411   1.2981   1.4305
     1.5108   1.5935   1.6428   1.7616   2.0817   2.2823   2.5636   2.6172
     2.7646   2.8145   2.9443   2.9793   3.0169   3.0923   3.1818   3.3450
     3.4318   3.6126   3.6672   3.7791   3.8201   3.8757   3.9498   3.9675
     4.0238   4.0730   4.1612   4.2777   4.5632   4.5966   4.7667   4.7755
     8.4297   8.9715   9.3559   9.5006   9.8148   9.8430  10.1637  10.2635
    10.3590  10.5745  10.6006  10.7519  10.9191

          k = 0.2000 0.1924 0.2048 ( 15113 PWs)   bands (ev):

    -9.1789  -8.9329  -8.1886  -8.1377  -7.9769  -7.7954  -7.6998  -7.5991
    -7.5281  -7.4292  -7.2206  -7.1872  -7.1317  -7.1080  -7.0736  -7.0367
    -0.6583  -0.5559  -0.4262  -0.0857   0.0080   0.0539   0.2136   0.3587
     0.5223   0.6590   0.8336   0.9107   1.0549   1.1350   1.4216   1.5536
     1.7134   1.7644   1.8687   1.9534   2.4594   2.5381   2.6309   2.6748
     2.7843   2.8276   2.8926   2.9306   3.0525   3.2925   3.3504   3.4128
     3.5716   3.5995   3.6568   3.7309   3.7718   3.8483   3.9006   3.9423
     4.0126   4.0668   4.1300   4.1967   4.4783   4.5258   4.6208   4.7079
     8.6534   9.0164   9.2492   9.4239   9.6509   9.9002  10.0151  10.1147
    10.2712  10.3358  10.5156  10.7928  10.9902

          k = 0.2000 0.1924 0.4096 ( 15130 PWs)   bands (ev):

    -8.9245  -8.6895  -8.0881  -7.9978  -7.9560  -7.8955  -7.8071  -7.6558
    -7.4909  -7.4159  -7.4091  -7.3589  -7.3018  -7.2391  -7.1820  -7.1282
    -0.7112  -0.5866  -0.4830  -0.2157   0.0501   0.1309   0.1675   0.3254
     0.4095   0.4691   0.5575   0.6610   0.7509   0.8451   1.5409   2.0830
     2.2673   2.3425   2.4118   2.4381   2.4811   2.5845   2.6828   2.8966
     2.9584   3.0013   3.0698   3.1554   3.2051   3.2610   3.3429   3.3962
     3.5072   3.6050   3.6603   3.7329   3.8215   3.8557   3.9027   3.9656
     3.9983   4.0813   4.0956   4.1054   4.2213   4.2942   4.3516   4.5428
     8.8781   9.0118   9.0802   9.2905   9.6154   9.8708   9.9817  10.1120
    10.1948  10.2442  10.3833  10.6858  10.8242

          k = 0.2000 0.1924-0.6143 ( 15134 PWs)   bands (ev):

    -8.5683  -8.5045  -8.3507  -8.2862  -7.7633  -7.7129  -7.7083  -7.6636
    -7.5915  -7.5327  -7.4639  -7.4152  -7.3681  -7.3213  -7.2448  -7.1962
    -0.7604  -0.5650  -0.4869  -0.3528   0.0123   0.0558   0.0984   0.1837
     0.2859   0.3955   0.4803   0.5605   1.3173   1.4789   1.5119   1.6842
     1.8534   2.0173   2.5225   2.6818   2.7991   2.9390   2.9855   3.0052
     3.0899   3.1418   3.2683   3.3565   3.4055   3.4639   3.5151   3.5388
     3.5762   3.6409   3.6679   3.7020   3.7280   3.7680   3.7972   3.8502
     3.8687   3.9383   3.9676   4.0104   4.0389   4.1589   4.2777   4.3945
     8.9872   9.0614   9.1421   9.2508   9.6486   9.7403   9.9634  10.0841
    10.1886  10.2535  10.4543  10.5275  10.6436

          k = 0.4000 0.0000 0.0000 ( 15078 PWs)   bands (ev):

    -9.0939  -8.7068  -8.4747  -8.4650  -8.1650  -8.1564  -7.5034  -7.4496
    -7.2944  -7.2503  -7.2126  -7.1584  -7.1397  -7.0745  -7.0301  -7.0234
    -0.6062  -0.2989  -0.1735   0.0566   0.2447   0.4561   0.5449   0.5894
     0.7249   0.8338   0.9414   1.0864   1.1732   1.2934   1.3923   1.4864
     1.5964   1.6667   1.7501   1.7774   1.8962   2.0405   2.1053   2.3918
     2.6180   2.6995   2.7493   2.8022   2.8663   3.0031   3.0892   3.1158
     3.1761   3.2297   3.3884   3.7790   3.8394   3.8713   3.9801   4.0469
     4.0644   4.0999   4.1777   4.2236   4.2567   4.3740   4.6112   4.6524
     8.9297   9.5115   9.5661   9.7553   9.8705   9.9954  10.1297  10.3875
    10.5032  10.7018  10.8606  11.0423  11.1990

          k = 0.4000 0.0000 0.2048 ( 15091 PWs)   bands (ev):

    -9.0082  -8.6283  -8.4016  -8.3917  -8.1009  -8.0921  -7.5961  -7.4780
    -7.3725  -7.2906  -7.2770  -7.2421  -7.1990  -7.1247  -7.1126  -7.0693
    -0.4747  -0.3591  -0.2232   0.0570   0.2115   0.3814   0.4300   0.5238
     0.6743   0.7533   0.8763   0.9934   1.0894   1.3907   1.4716   1.5571
     1.6386   1.7383   1.8635   1.9005   1.9712   2.1389   2.4290   2.5176
     2.7398   2.7790   2.8314   2.8938   2.9651   3.0272   3.0333   3.0579
     3.1476   3.3090   3.4049   3.7662   3.8010   3.8558   3.9297   3.9584
     4.0354   4.0907   4.1584   4.2419   4.2810   4.3916   4.5287   4.5585
     9.0394   9.4269   9.5732   9.7526   9.8967  10.0290  10.1488  10.3449
    10.4189  10.6414  10.7580  11.0187  11.1214

          k = 0.4000 0.0000 0.4096 ( 15113 PWs)   bands (ev):

    -8.7619  -8.4043  -8.1947  -8.1836  -7.9581  -7.9198  -7.9114  -7.6910
    -7.5454  -7.5377  -7.3782  -7.3716  -7.3569  -7.2184  -7.1842  -7.1252
    -0.5454  -0.3647  -0.2370  -0.0162   0.3070   0.3720   0.4543   0.5051
     0.5959   0.6527   0.6913   0.7863   1.0394   1.1422   1.2387   1.5368
     1.7165   1.9926   2.3275   2.3434   2.4081   2.5084   2.5605   2.6054
     2.6903   2.9201   2.9628   3.0359   3.1014   3.1667   3.3060   3.3225
     3.5133   3.5242   3.6035   3.6428   3.6907   3.7400   3.7978   3.8933
     3.9173   4.0266   4.0707   4.1158   4.1568   4.1914   4.2345   4.3556
     9.1329   9.3616   9.5593   9.6329   9.9087  10.1272  10.2331  10.3677
    10.5191  10.6600  10.7893  10.8708  10.9556

          k = 0.4000 0.0000-0.6143 ( 15154 PWs)   bands (ev):

    -8.4186  -8.3572  -8.0996  -8.0372  -7.9141  -7.9047  -7.8623  -7.8464
    -7.6838  -7.6705  -7.6235  -7.6105  -7.2880  -7.2458  -7.1991  -7.1530
    -0.6267  -0.2884  -0.2718  -0.1031   0.2268   0.2758   0.3912   0.4525
     0.6943   0.7234   0.8052   0.9190   0.9955   1.1643   1.3795   1.4503
     1.5497   1.5939   1.9768   2.1496   2.8879   2.9115   2.9875   3.0583
     3.1048   3.1223   3.1511   3.2189   3.2424   3.3283   3.4077   3.4363
     3.5608   3.5980   3.6112   3.6666   3.6709   3.6870   3.7214   3.7542
     3.7605   3.8188   3.8501   3.9329   3.9659   4.0161   4.0676   4.1983
     9.3480   9.3926   9.4802   9.5725   9.8864  10.0542  10.3249  10.4682
    10.5248  10.5667  10.6452  10.8281  10.8721

          k = 0.4000 0.1924 0.0000 ( 15112 PWs)   bands (ev):

    -9.0267  -8.7896  -8.6477  -8.4370  -8.0771  -7.8265  -7.6961  -7.5092
    -7.4077  -7.2818  -7.2418  -7.1458  -7.0728  -7.0525  -7.0033  -6.9844
    -0.5547  -0.3539  -0.1572   0.1297   0.2381   0.3518   0.4882   0.6368
     0.7222   0.8812   0.9744   1.0610   1.1071   1.3141   1.3874   1.5077
     1.5541   1.6753   1.8078   1.9035   1.9629   2.0340   2.1685   2.2395
     2.4241   2.5243   2.5979   2.8899   3.0188   3.1480   3.1956   3.2630
     3.3043   3.3495   3.4352   3.4823   3.5392   3.6234   3.6818   3.8118
     4.1094   4.2955   4.3827   4.4020   4.4496   4.4889   4.6071   4.6666
     8.9961   9.3669   9.5234   9.6748   9.9132  10.0175  10.1537  10.2734
    10.4392  10.6480  10.7304  11.0743  11.2371

          k = 0.4000 0.1924 0.2048 ( 15102 PWs)   bands (ev):

    -8.9423  -8.7090  -8.5706  -8.3643  -8.0162  -7.7757  -7.6542  -7.5662
    -7.4591  -7.4078  -7.3549  -7.2417  -7.1371  -7.0963  -7.0580  -7.0330
    -0.4522  -0.3502  -0.2141   0.1531   0.1871   0.3199   0.4062   0.5077
     0.5658   0.7234   0.8087   0.9422   1.2287   1.3912   1.5299   1.6514
     1.7674   1.8783   1.9092   2.0045   2.1068   2.2074   2.2660   2.3705
     2.4236   2.5083   2.5584   2.7383   2.9704   3.0759   3.2051   3.2641
     3.3161   3.4191   3.4810   3.5368   3.6296   3.7098   3.7781   3.9803
     4.1309   4.2498   4.3011   4.3310   4.3774   4.4546   4.4906   4.5881
     9.0207   9.3838   9.4455   9.6540   9.9315  10.0713  10.2152  10.2734
    10.4766  10.6469  10.8181  10.9513  11.0663

          k = 0.4000 0.1924 0.4096 ( 15126 PWs)   bands (ev):

    -8.6999  -8.4784  -8.3510  -8.1583  -7.9149  -7.8450  -7.7405  -7.6590
    -7.6274  -7.5312  -7.5054  -7.3823  -7.3205  -7.2071  -7.1973  -7.1266
    -0.5127  -0.3828  -0.2212  -0.0024   0.2872   0.3594   0.4019   0.4745
     0.5416   0.6110   0.6997   0.7367   1.0562   1.3306   1.4269   1.7215
     1.8896   2.0685   2.1417   2.2459   2.2696   2.4342   2.4754   2.5544
     2.6853   2.7034   2.8431   2.9482   3.0556   3.1513   3.2192   3.3128
     3.4035   3.4783   3.5916   3.8210   3.8506   3.9068   3.9554   3.9975
     4.0140   4.0281   4.0781   4.1037   4.1496   4.1540   4.2470   4.3891
     9.1300   9.3729   9.4577   9.5544   9.8784  10.0298  10.2917  10.4353
    10.5080  10.6506  10.7047  10.8599  10.9897

          k = 0.4000 0.1924-0.6143 ( 15126 PWs)   bands (ev):

    -8.3635  -8.3032  -8.1607  -8.1010  -8.0532  -7.9917  -7.8826  -7.8218
    -7.6214  -7.5709  -7.4614  -7.4117  -7.3728  -7.3273  -7.2622  -7.2125
    -0.5888  -0.3442  -0.2685  -0.0774   0.2409   0.2645   0.3116   0.4804
     0.5856   0.6890   0.7698   0.9879   1.1240   1.2442   1.3810   1.4920
     1.6837   1.8450   2.1140   2.2693   2.3464   2.4953   2.5302   2.6937
     3.1103   3.1498   3.2131   3.2772   3.3306   3.3940   3.4307   3.5220
     3.5770   3.6126   3.6868   3.7004   3.7233   3.7862   3.8137   3.8323
     3.8574   3.8770   3.9164   3.9271   3.9766   4.0204   4.0788   4.2097
     9.3096   9.3687   9.4772   9.5483   9.8436  10.0857  10.1953  10.3806
    10.4944  10.6154  10.7256  10.7883  10.8727

          k = 0.0000-0.1924 0.2048 ( 15124 PWs)   bands (ev):

    -9.2612  -9.0113  -8.2498  -7.8494  -7.7666  -7.7557  -7.7012  -7.6687
    -7.6057  -7.5722  -7.2112  -7.1808  -7.1135  -7.0985  -7.0710  -7.0077
    -0.7516  -0.6481  -0.5594  -0.2286  -0.0728   0.0053   0.1031   0.2063
     0.4420   0.5932   0.6916   0.8055   0.8699   1.0989   1.6515   1.6979
     1.8214   1.9183   1.9428   1.9728   2.2869   2.3691   2.6953   2.7434
     2.8319   2.9867   3.1429   3.1803   3.2898   3.3245   3.4719   3.4866
     3.6238   3.6654   3.6939   3.7579   3.7913   3.8848   3.9295   3.9831
     4.0687   4.1091   4.1736   4.2976   4.5180   4.6377   4.6753   4.7824
     8.4132   8.8038   9.0070   9.1422   9.6050   9.7756   9.8489  10.0631
    10.1886  10.2092  10.3480  10.5782  10.8460

          k = 0.0000-0.1924 0.4096 ( 15128 PWs)   bands (ev):

    -9.0030  -8.7639  -8.1503  -8.0527  -7.9522  -7.7042  -7.6380  -7.5782
    -7.5506  -7.4866  -7.4339  -7.2989  -7.2625  -7.2140  -7.1943  -7.1294
    -0.7981  -0.6982  -0.6461  -0.3052  -0.0849  -0.0016   0.0540   0.2480
     0.2858   0.3903   0.4202   0.5541   0.6035   0.8158   2.0103   2.0946
     2.3383   2.3751   2.4705   2.5758   2.6128   2.7910   2.8317   2.8685
     3.0190   3.0757   3.1343   3.1570   3.1960   3.2788   3.3677   3.4709
     3.4880   3.8031   3.8275   3.8629   3.9092   3.9481   3.9591   3.9853
     3.9964   4.0240   4.0627   4.1589   4.2185   4.4607   4.4705   4.6286
     8.6716   8.7383   8.9216   9.0561   9.5725   9.6235   9.7918   9.9439
    10.0560  10.1166  10.1952  10.5173  10.6695

          k =-0.2000 0.0000 0.2048 ( 15113 PWs)   bands (ev):

    -9.2492  -8.6031  -8.5936  -8.1791  -7.8032  -7.7920  -7.7384  -7.6061
    -7.3811  -7.3558  -7.3358  -7.2201  -7.1313  -7.1071  -7.0862  -7.0402
    -0.6853  -0.5852  -0.5063  -0.2118   0.1146   0.2142   0.2510   0.4793
     0.5294   0.6611   0.6969   0.7754   1.0888   1.1745   1.6189   1.7356
     1.7826   1.8361   1.9208   2.0051   2.1588   2.2152   2.4877   2.5432
     2.6919   2.7456   2.8977   2.9130   3.1869   3.2582   3.3390   3.4182
     3.5402   3.6181   3.6827   3.7770   3.8226   3.8777   4.0237   4.0519
     4.0993   4.1269   4.1959   4.2432   4.3618   4.3950   4.6849   4.7434
     8.4651   9.0115   9.2293   9.3433   9.7144   9.8844   9.9845  10.1392
    10.2228  10.2846  10.5221  10.7625  10.8828

          k =-0.2000 0.0000 0.4096 ( 15132 PWs)   bands (ev):

    -8.9912  -8.3813  -8.3707  -8.1360  -7.9916  -7.6967  -7.6803  -7.6395
    -7.6276  -7.4864  -7.4194  -7.3273  -7.2487  -7.2284  -7.1860  -7.1250
    -0.7530  -0.6518  -0.5608  -0.1751   0.0644   0.1156   0.1752   0.3465
     0.4667   0.5178   0.5947   0.6661   0.8692   1.1714   1.4261   1.5795
     2.0746   2.3918   2.4069   2.5151   2.5917   2.6140   2.6806   2.7067
     2.8634   3.0668   3.1212   3.1453   3.2297   3.3506   3.3651   3.4117
     3.4601   3.6435   3.7173   3.7907   3.8487   3.8954   3.9211   3.9429
     3.9662   4.0083   4.1003   4.1556   4.1830   4.2092   4.4767   4.5923
     8.7776   8.8712   9.0941   9.1885   9.6730   9.8090   9.9256  10.0444
    10.2200  10.2871  10.5655  10.7568  10.8192

          k =-0.2000 0.1924 0.0000 ( 15093 PWs)   bands (ev):

    -9.2672  -9.0177  -8.2546  -8.2032  -8.0365  -7.8447  -7.6400  -7.5428
    -7.4587  -7.3831  -7.1593  -7.1119  -7.0810  -7.0564  -7.0189  -6.9828
    -0.7942  -0.5533  -0.3751  -0.1530   0.0644   0.2314   0.3958   0.4765
     0.7822   0.8614   0.9096   0.9848   1.0173   1.1891   1.2629   1.4381
     1.5032   1.5791   1.6448   1.7701   2.0942   2.2845   2.5599   2.6208
     2.7612   2.8309   2.9329   2.9819   3.0070   3.0656   3.1689   3.3632
     3.4432   3.6043   3.6986   3.7920   3.8198   3.8543   3.9493   3.9599
     4.0323   4.0667   4.1671   4.2731   4.5647   4.6006   4.7630   4.7722
     8.4324   8.9720   9.2956   9.5267   9.8064   9.9713  10.1312  10.2662
    10.3624  10.4948  10.6251  10.7570  10.8613

          k =-0.2000-0.1924 0.2048 ( 15113 PWs)   bands (ev):

    -9.1789  -8.9329  -8.1886  -8.1378  -7.9770  -7.7950  -7.7005  -7.5988
    -7.5273  -7.4292  -7.2209  -7.1890  -7.1312  -7.1080  -7.0719  -7.0374
    -0.6542  -0.5567  -0.4413  -0.0741   0.0053   0.0894   0.1998   0.3485
     0.5131   0.6945   0.8081   0.8695   1.0633   1.1298   1.4293   1.6284
     1.6774   1.7504   1.8754   1.9406   2.4511   2.5186   2.6603   2.6939
     2.7508   2.8303   2.8947   2.9488   3.0469   3.3101   3.3468   3.4092
     3.5583   3.6080   3.6524   3.7265   3.7863   3.8389   3.9028   3.9504
     4.0077   4.0805   4.1064   4.1952   4.4764   4.5211   4.6205   4.7169
     8.6679   8.9527   9.3081   9.3857   9.7172   9.9253   9.9891  10.1472
    10.2153  10.3405  10.4712  10.7840  10.9972

          k =-0.2000 0.1924-0.2048 ( 15113 PWs)   bands (ev):

    -9.1789  -8.9330  -8.1878  -8.1386  -7.9765  -7.7949  -7.7005  -7.6033
    -7.5222  -7.4309  -7.2217  -7.1851  -7.1354  -7.1063  -7.0715  -7.0380
    -0.6656  -0.5094  -0.4675  -0.1530   0.0703   0.1058   0.2264   0.2873
     0.5561   0.7016   0.7524   0.9041   1.0695   1.1287   1.4185   1.6263
     1.6526   1.7888   1.8495   1.9544   2.4705   2.5120   2.6498   2.7044
     2.7504   2.8288   2.8748   2.9492   3.0438   3.2955   3.3467   3.4172
     3.5734   3.6064   3.6463   3.7332   3.8068   3.8402   3.9032   3.9351
     4.0114   4.0637   4.1184   4.1957   4.4801   4.5217   4.6203   4.7101
     8.6671   8.9670   9.1959   9.4699   9.7673   9.8795  10.0130  10.1445
    10.2861  10.3427  10.4453  10.7360  10.9785

          k = 0.2000-0.1924-0.2048 ( 15113 PWs)   bands (ev):

    -9.1789  -8.9330  -8.1878  -8.1387  -7.9766  -7.7953  -7.6997  -7.6034
    -7.5218  -7.4308  -7.2216  -7.1865  -7.1357  -7.1056  -7.0711  -7.0380
    -0.6587  -0.5136  -0.4781  -0.1378   0.0585   0.1147   0.2225   0.2809
     0.5686   0.6661   0.7871   0.9131   1.0354   1.1648   1.4064   1.5591
     1.7235   1.7901   1.8629   1.9294   2.4756   2.5331   2.6529   2.6759
     2.7385   2.8327   2.9007   2.9275   3.0469   3.2832   3.3406   3.4289
     3.5677   3.6059   3.6624   3.7350   3.8186   3.8309   3.8900   3.9420
     4.0015   4.0710   4.1307   4.1850   4.4782   4.5272   4.6264   4.7020
     8.6589   9.0237   9.2614   9.3461   9.7799   9.8614   9.9709  10.1393
    10.2642  10.3546  10.4589  10.8219  10.9979

          k =-0.2000-0.1924 0.4096 ( 15130 PWs)   bands (ev):

    -8.9244  -8.6895  -8.0886  -7.9975  -7.9569  -7.8947  -7.8065  -7.6556
    -7.4895  -7.4181  -7.4085  -7.3610  -7.3010  -7.2397  -7.1795  -7.1293
    -0.7123  -0.5933  -0.4796  -0.1939   0.0358   0.1278   0.1743   0.3252
     0.4079   0.4666   0.5660   0.6452   0.7484   0.8427   1.5427   2.1722
     2.1980   2.3529   2.4003   2.4205   2.4872   2.5482   2.7004   2.8889
     2.9637   3.0398   3.0790   3.1445   3.1941   3.2500   3.3477   3.4059
     3.5049   3.6195   3.6810   3.7159   3.8075   3.8620   3.9023   3.9714
     3.9868   4.0584   4.0939   4.1153   4.2132   4.2976   4.3498   4.5558
     8.7835   8.9665   9.2341   9.2776   9.7725   9.8510   9.8981  10.0811
    10.1598  10.2591  10.4272  10.6342  10.8303

          k =-0.2000 0.1924-0.4096 ( 15130 PWs)   bands (ev):

    -8.9244  -8.6896  -8.0883  -7.9971  -7.9564  -7.8950  -7.8075  -7.6566
    -7.4903  -7.4177  -7.4088  -7.3568  -7.3023  -7.2407  -7.1797  -7.1293
    -0.7044  -0.5869  -0.5046  -0.1927   0.0444   0.0999   0.2291   0.3375
     0.3815   0.4687   0.5372   0.6387   0.7789   0.8366   1.5423   2.1380
     2.2496   2.3311   2.3662   2.4338   2.4826   2.5664   2.7345   2.9031
     2.9532   3.0229   3.0733   3.1105   3.1930   3.2549   3.3542   3.4290
     3.4988   3.6058   3.6822   3.7291   3.8066   3.8474   3.9107   3.9810
     4.0005   4.0563   4.0784   4.1218   4.2097   4.3031   4.3495   4.5488
     8.7639   8.9917   9.1874   9.3378   9.7210   9.8290   9.9411  10.1025
    10.1715  10.2552  10.3725  10.6566  10.8000

          k = 0.2000-0.1924-0.4096 ( 15130 PWs)   bands (ev):

    -8.9244  -8.6896  -8.0882  -7.9975  -7.9576  -7.8937  -7.8073  -7.6561
    -7.4904  -7.4179  -7.4054  -7.3635  -7.2986  -7.2412  -7.1800  -7.1290
    -0.7009  -0.5928  -0.5061  -0.1772   0.0246   0.1072   0.2209   0.3319
     0.3938   0.4732   0.5298   0.6462   0.7524   0.8671   1.5449   2.0910
     2.2757   2.3303   2.3914   2.4256   2.4833   2.5787   2.7213   2.8864
     2.9661   3.0099   3.0716   3.1191   3.1771   3.2770   3.3466   3.4237
     3.5062   3.6261   3.6821   3.7136   3.8075   3.8470   3.9101   3.9729
     4.0040   4.0589   4.0924   4.1103   4.2131   4.2978   4.3623   4.5371
     8.8771   8.9966   9.1286   9.2335   9.7447   9.8538   9.9414  10.0799
    10.1361  10.2194  10.4163  10.6954  10.7783

          k =-0.2000 0.1924 0.6143 ( 15134 PWs)   bands (ev):

    -8.5682  -8.5044  -8.3509  -8.2863  -7.7567  -7.7203  -7.7087  -7.6609
    -7.5909  -7.5383  -7.4641  -7.4114  -7.3664  -7.3214  -7.2456  -7.1967
    -0.7415  -0.6115  -0.4884  -0.3106   0.0082   0.0408   0.1221   0.1756
     0.2547   0.4325   0.4583   0.5684   1.3244   1.4836   1.5005   1.6769
     1.8601   2.0126   2.5236   2.6950   2.7900   2.9207   2.9779   3.0224
     3.1095   3.1415   3.2395   3.3399   3.4416   3.4730   3.5182   3.5340
     3.5741   3.6368   3.6650   3.6886   3.7494   3.7679   3.7772   3.8601
     3.8855   3.9416   3.9512   4.0076   4.0427   4.1651   4.2746   4.3880
     8.9720   9.0701   9.1605   9.2434   9.6515   9.7543   9.9546  10.0438
    10.1339  10.3603  10.4045  10.5123  10.7048

          k =-0.4000 0.0000 0.2048 ( 15091 PWs)   bands (ev):

    -9.0082  -8.6284  -8.4016  -8.3917  -8.1010  -8.0920  -7.5959  -7.4775
    -7.3735  -7.2893  -7.2760  -7.2431  -7.2010  -7.1241  -7.1118  -7.0694
    -0.4699  -0.3646  -0.2336   0.0819   0.2241   0.3529   0.4214   0.5291
     0.6712   0.7757   0.8716   0.9914   1.0729   1.3744   1.4865   1.5578
     1.6637   1.7302   1.8686   1.8969   1.9628   2.1372   2.4310   2.5294
     2.7190   2.7732   2.8663   2.9040   2.9222   3.0005   3.0389   3.0872
     3.1445   3.3179   3.4066   3.7578   3.8241   3.8483   3.9135   3.9543
     4.0526   4.0826   4.1641   4.2383   4.2810   4.3843   4.5339   4.5591
     9.0501   9.4138   9.5639   9.7575   9.9043  10.0647  10.1277  10.2980
    10.4458  10.6615  10.7432  11.0234  11.1585

          k =-0.4000 0.0000 0.4096 ( 15113 PWs)   bands (ev):

    -8.7618  -8.4044  -8.1945  -8.1836  -7.9621  -7.9162  -7.9107  -7.6911
    -7.5449  -7.5381  -7.3793  -7.3766  -7.3509  -7.2189  -7.1842  -7.1250
    -0.5473  -0.3696  -0.2272  -0.0076   0.2944   0.3536   0.4552   0.5231
     0.6058   0.6470   0.6988   0.7715   1.0414   1.1370   1.2386   1.5499
     1.7154   1.9914   2.3056   2.3490   2.4339   2.4985   2.5688   2.5886
     2.6882   2.8944   2.9810   3.0541   3.1129   3.1680   3.2619   3.3452
     3.5155   3.5491   3.6117   3.6194   3.6890   3.7312   3.8082   3.8835
     3.9278   4.0173   4.0689   4.1250   4.1481   4.1807   4.2470   4.3569
     9.1915   9.2547   9.5387   9.7350  10.0062  10.0533  10.1593  10.3741
    10.4979  10.6590  10.7887  10.8695  10.9559

          k =-0.4000 0.1924 0.0000 ( 15112 PWs)   bands (ev):

    -9.0267  -8.7898  -8.6475  -8.4369  -8.0770  -7.8271  -7.6964  -7.5056
    -7.4118  -7.2801  -7.2417  -7.1462  -7.0764  -7.0462  -7.0080  -6.9825
    -0.5624  -0.3114  -0.1897   0.0660   0.2962   0.3735   0.4679   0.6272
     0.7983   0.8451   0.9415   1.0546   1.1072   1.3088   1.4224   1.4960
     1.5624   1.6507   1.8105   1.9145   1.9730   2.0301   2.1646   2.2169
     2.4545   2.5068   2.5966   2.8783   3.0472   3.1554   3.1807   3.2344
     3.3177   3.3695   3.4406   3.4477   3.5348   3.6512   3.6916   3.7987
     4.1158   4.2939   4.3706   4.3916   4.4657   4.4987   4.6035   4.6615
     8.9999   9.3458   9.5228   9.7102   9.8772  10.0164  10.1720  10.2824
    10.5247  10.6031  10.7085  11.0197  11.1863

          k =-0.4000-0.1924 0.2048 ( 15102 PWs)   bands (ev):

    -8.9423  -8.7090  -8.5707  -8.3643  -8.0162  -7.7758  -7.6536  -7.5667
    -7.4583  -7.4072  -7.3564  -7.2418  -7.1366  -7.0966  -7.0583  -7.0325
    -0.4489  -0.3492  -0.2330   0.1790   0.1954   0.3309   0.4211   0.4639
     0.5652   0.7463   0.8202   0.9071   1.2004   1.3445   1.5785   1.7034
     1.7986   1.8433   1.9035   1.9764   2.0837   2.2284   2.2784   2.3759
     2.4274   2.4903   2.5838   2.7475   2.9497   3.0795   3.1921   3.2750
     3.3114   3.4054   3.4840   3.5491   3.6244   3.7144   3.7753   3.9828
     4.1431   4.2253   4.3168   4.3499   4.3612   4.4408   4.4866   4.5986
     9.0443   9.2623   9.5150   9.6843   9.9051  10.0778  10.2558  10.3420
    10.4686  10.5907  10.7384  10.9858  11.1407

          k =-0.4000 0.1924-0.2048 ( 15102 PWs)   bands (ev):

    -8.9423  -8.7093  -8.5704  -8.3642  -8.0160  -7.7768  -7.6543  -7.5631
    -7.4626  -7.4062  -7.3550  -7.2415  -7.1390  -7.0931  -7.0600  -7.0325
    -0.4610  -0.3091  -0.2518   0.0928   0.2638   0.3464   0.3758   0.5105
     0.5998   0.7063   0.8131   0.8979   1.2118   1.3730   1.6005   1.6614
     1.7772   1.8321   1.9138   1.9887   2.1063   2.1830   2.2915   2.3698
     2.4484   2.5006   2.5732   2.7369   2.9513   3.0897   3.1845   3.2852
     3.3487   3.3775   3.4557   3.5394   3.6295   3.7300   3.7805   3.9780
     4.1545   4.2305   4.2944   4.3499   4.3713   4.4465   4.4861   4.5915
     9.0266   9.3066   9.4757   9.6630   9.9399  10.0507  10.2739  10.3759
    10.5372  10.6064  10.7346  10.8500  11.0817

          k = 0.4000-0.1924-0.2048 ( 15102 PWs)   bands (ev):

    -8.9422  -8.7093  -8.5705  -8.3642  -8.0159  -7.7771  -7.6547  -7.5626
    -7.4621  -7.4061  -7.3545  -7.2430  -7.1389  -7.0929  -7.0600  -7.0324
    -0.4546  -0.3184  -0.2535   0.1049   0.2555   0.3428   0.3776   0.4989
     0.6345   0.7007   0.7748   0.9010   1.2623   1.3836   1.5461   1.6586
     1.7472   1.8951   1.9257   1.9766   2.1250   2.1893   2.2472   2.3835
     2.4386   2.4921   2.5610   2.7314   2.9704   3.0783   3.2050   3.2892
     3.3343   3.3963   3.4428   3.5412   3.6431   3.7214   3.7786   3.9787
     4.1386   4.2417   4.2935   4.3433   4.3634   4.4633   4.4922   4.5843
     9.0236   9.3561   9.5394   9.5948   9.9015  10.0810  10.1453  10.3840
    10.4965  10.6317  10.7758  10.9303  11.0413

          k =-0.4000-0.1924 0.4096 ( 15126 PWs)   bands (ev):

    -8.6999  -8.4784  -8.3512  -8.1585  -7.9154  -7.8440  -7.7399  -7.6599
    -7.6269  -7.5322  -7.5046  -7.3819  -7.3215  -7.2071  -7.1977  -7.1260
    -0.5179  -0.3818  -0.2186   0.0100   0.2726   0.3705   0.4167   0.4811
     0.5390   0.6189   0.6752   0.7194   1.0316   1.3558   1.4349   1.7210
     1.8719   2.0612   2.1663   2.2355   2.3122   2.4225   2.4602   2.5758
     2.6666   2.7255   2.8264   2.9121   3.0706   3.1484   3.2019   3.3364
     3.4044   3.4933   3.5968   3.8208   3.8538   3.9179   3.9465   3.9761
     3.9883   4.0421   4.0728   4.1131   4.1500   4.1574   4.2357   4.4052
     9.0679   9.2651   9.5728   9.6684   9.9301  10.0045  10.2531  10.4208
    10.5143  10.5997  10.7790  10.8856  10.9760

          k =-0.4000 0.1924-0.4096 ( 15126 PWs)   bands (ev):

    -8.6999  -8.4787  -8.3508  -8.1581  -7.9153  -7.8435  -7.7435  -7.6616
    -7.6236  -7.5282  -7.5064  -7.3843  -7.3209  -7.2067  -7.1969  -7.1267
    -0.5145  -0.3785  -0.2321   0.0059   0.2880   0.3482   0.4553   0.4870
     0.5464   0.6129   0.6350   0.7174   1.0544   1.3645   1.4320   1.6975
     1.8720   2.0586   2.1564   2.2415   2.3421   2.3973   2.4637   2.6105
     2.6707   2.7191   2.8058   2.8983   3.0771   3.1310   3.2014   3.3519
     3.4217   3.4830   3.5983   3.8093   3.8719   3.8915   3.9603   3.9623
     4.0088   4.0399   4.0726   4.1210   4.1458   4.1540   4.2412   4.3976
     9.0347   9.3614   9.5311   9.6124   9.9038  10.0619  10.2497  10.4370
    10.5608  10.6144  10.7119  10.7635  10.9790

          k = 0.4000-0.1924-0.4096 ( 15126 PWs)   bands (ev):

    -8.6997  -8.4788  -8.3510  -8.1581  -7.9149  -7.8435  -7.7431  -7.6611
    -7.6239  -7.5312  -7.5057  -7.3807  -7.3230  -7.2065  -7.1970  -7.1268
    -0.5102  -0.3855  -0.2301   0.0105   0.2822   0.3331   0.4589   0.4897
     0.5449   0.6150   0.6454   0.7118   1.0847   1.3252   1.4386   1.7237
     1.8778   2.0751   2.1463   2.2287   2.2861   2.3794   2.4828   2.6285
     2.6636   2.7129   2.8170   2.9342   3.0770   3.1233   3.2227   3.3271
     3.4316   3.4665   3.5899   3.8075   3.8613   3.9103   3.9552   3.9905
     4.0071   4.0323   4.0807   4.0994   4.1382   4.1683   4.2510   4.3847
     9.1397   9.3320   9.4847   9.5882   9.8904   9.9818  10.2726  10.4351
    10.5715  10.6270  10.6805  10.8655  10.9322

          k =-0.4000 0.1924 0.6143 ( 15126 PWs)   bands (ev):

    -8.3633  -8.3032  -8.1623  -8.1009  -8.0514  -7.9926  -7.8827  -7.8199
    -7.6229  -7.5735  -7.4611  -7.4101  -7.3713  -7.3268  -7.2630  -7.2130
    -0.5832  -0.3632  -0.2702  -0.0520   0.2356   0.2581   0.3263   0.4689
     0.5545   0.7009   0.7988   0.9754   1.1320   1.2527   1.3698   1.4767
     1.6970   1.8430   2.1123   2.2780   2.3337   2.4847   2.5439   2.6969
     3.0983   3.1545   3.2162   3.2816   3.3352   3.3973   3.4185   3.5354
     3.5592   3.6278   3.6619   3.7064   3.7390   3.7911   3.8066   3.8208
     3.8676   3.8858   3.9028   3.9373   3.9754   4.0275   4.0724   4.2039
     9.2932   9.3987   9.4538   9.5728   9.8817   9.9837  10.1952  10.4223
    10.5095  10.5945  10.7010  10.7794  10.8627

     the Fermi energy is     6.2080 ev

!    total energy              =    -416.22551279 Ry
     estimated scf accuracy    <          1.9E-11 Ry
     smearing contrib. (-TS)   =      -0.00000000 Ry
     internal energy E=F+TS    =    -416.22551279 Ry

     The total energy is F=E-TS. E is the sum of the following terms:
     one-electron contribution =     -39.57168132 Ry
     hartree contribution      =      90.53804316 Ry
     xc contribution           =    -132.33852394 Ry
     ewald contribution        =    -334.85335069 Ry

     convergence has been achieved in  22 iterations

     Writing output data file ./wfc-out/pwscf.save/
 
     init_run     :      8.33s CPU      8.75s WALL (       1 calls)
     electrons    :    429.56s CPU    434.05s WALL (       1 calls)

     Called by init_run:
     wfcinit      :      7.54s CPU      7.87s WALL (       1 calls)
     potinit      :      0.18s CPU      0.18s WALL (       1 calls)
     hinit0       :      0.43s CPU      0.50s WALL (       1 calls)

     Called by electrons:
     c_bands      :    391.78s CPU    395.59s WALL (      22 calls)
     sum_band     :     35.89s CPU     36.42s WALL (      22 calls)
     v_of_rho     :      0.10s CPU      0.11s WALL (      23 calls)
     newd         :      1.56s CPU      1.59s WALL (      23 calls)
     mix_rho      :      0.15s CPU      0.15s WALL (      22 calls)

     Called by c_bands:
     init_us_2    :      2.48s CPU      2.60s WALL (    2070 calls)
     cegterg      :    383.11s CPU    386.28s WALL (    1012 calls)

     Called by *egterg:
     cdiaghg      :     59.56s CPU     59.78s WALL (    5673 calls)
     h_psi        :    183.80s CPU    186.52s WALL (    5719 calls)
     s_psi        :     39.91s CPU     40.07s WALL (    5719 calls)
     g_psi        :      0.41s CPU      0.42s WALL (    4661 calls)

     Called by h_psi:
     h_psi:calbec :     48.38s CPU     48.83s WALL (    5719 calls)
     vloc_psi     :     93.59s CPU     95.69s WALL (    5719 calls)
     add_vuspsi   :     40.99s CPU     41.17s WALL (    5719 calls)

     General routines
     calbec       :     63.05s CPU     63.58s WALL (    6731 calls)
     fft          :      0.76s CPU      0.84s WALL (     136 calls)
     ffts         :      0.03s CPU      0.03s WALL (      45 calls)
     fftw         :    104.90s CPU    107.26s WALL (  554330 calls)
     interpolate  :      0.06s CPU      0.07s WALL (      23 calls)
 
     Parallel routines
     fft_scatt_xy :      6.08s CPU      6.20s WALL (  554511 calls)
     fft_scatt_yz :     50.91s CPU     52.09s WALL (  554511 calls)
 
     PWSCF        :   7m19.97s CPU   7m41.64s WALL

 
   This run was terminated on:  16:37:23   6Mar2023            

=------------------------------------------------------------------------------=
   JOB DONE.
=------------------------------------------------------------------------------=
