 running on  192 total cores
 distrk:  each k-point on  192 cores,    1 groups
 distr:  one band on   24 cores,    8 groups
 using from now: INCAR     
 vasp.5.4.4.18Apr17-6-g9f103f2a35 (build Feb 21 2024 19:30:58) complex          
  
 POSCAR found type information on POSCAR  S  Pb
 POSCAR found :  2 types and      12 ions
 scaLAPACK will be used
 WARNING: PSMAXN for non-local potential too small
 LDA part: xc-table for Pade appr. of Perdew
 found WAVECAR, reading the header
  number of k-points has changed, file:    25 present:    40
  trying to continue reading WAVECAR, but it might fail
 WARNING: stress and forces are not correct
 POSCAR, INCAR and KPOINTS ok, starting setup
 FFT: planning ...
 reading WAVECAR
 the WAVECAR file was read successfully
 charge-density read from file: unknown                                 
 entering main loop
       N       E                     dE             d eps       ncg     rms          rms(c)
DAV:   1    -0.399854264238E+02   -0.39985E+02   -0.71220E+02  4464   0.670E+01
DAV:   2    -0.514227418407E+02   -0.11437E+02   -0.11260E+02  4088   0.278E+01
DAV:   3    -0.517781428454E+02   -0.35540E+00   -0.35307E+00  4448   0.603E+00
DAV:   4    -0.517878056756E+02   -0.96628E-02   -0.96218E-02  4328   0.957E-01
DAV:   5    -0.517881902026E+02   -0.38453E-03   -0.38194E-03  4424   0.161E-01
DAV:   6    -0.517882116585E+02   -0.21456E-04   -0.21444E-04  4216   0.289E-02
DAV:   7    -0.517882132791E+02   -0.16206E-05   -0.16205E-05  3232   0.443E-03
DAV:   8    -0.517882134968E+02   -0.21765E-06   -0.20099E-06  2648   0.125E-03
   1 F= -.51788213E+02 E0= -.51788213E+02  d E =0.000000E+00
 writing wavefunctions
