 vasp.5.4.4.18Apr17-6-g9f103f2a35 (build Sep 16 2021 13:51:27) complex          
  
 executed on             LinuxIFC date 2023.02.26  09:55:28
 running on   24 total cores
 distrk:  each k-point on   24 cores,    1 groups
 distr:  one band on NCORES_PER_BAND=  24 cores,    1 groups


--------------------------------------------------------------------------------------------------------


 INCAR:
 POTCAR:    PAW_PBE Sn 08Apr2002                  
 POTCAR:    PAW_PBE Se 06Sep2000                  

 ----------------------------------------------------------------------------- 
|                                                                             |
|           W    W    AA    RRRRR   N    N  II  N    N   GGGG   !!!           |
|           W    W   A  A   R    R  NN   N  II  NN   N  G    G  !!!           |
|           W    W  A    A  R    R  N N  N  II  N N  N  G       !!!           |
|           W WW W  AAAAAA  RRRRR   N  N N  II  N  N N  G  GGG   !            |
|           WW  WW  A    A  R   R   N   NN  II  N   NN  G    G                |
|           W    W  A    A  R    R  N    N  II  N    N   GGGG   !!!           |
|                                                                             |
|      For optimal performance we recommend to set                            |
|        NCORE= 4 - approx SQRT( number of cores)                             |
|      NCORE specifies how many cores store one orbital (NPAR=cpu/NCORE).     |
|      This setting can  greatly improve the performance of VASP for DFT.     |
|      The default,   NCORE=1            might be grossly inefficient         |
|      on modern multi-core architectures or massively parallel machines.     |
|      Do your own testing !!!!                                               |
|      Unfortunately you need to use the default for GW and RPA calculations. |
|      (for HF NCORE is supported but not extensively tested yet)             |
|                                                                             |
 ----------------------------------------------------------------------------- 

 POTCAR:    PAW_PBE Sn 08Apr2002                  
   VRHFIN =Sn: s2p2                                                             
   LEXCH  = PE                                                                  
   EATOM  =    94.0860 eV,    6.9151 Ry                                         
                                                                                
   TITEL  = PAW_PBE Sn 08Apr2002                                                
   LULTRA =        F    use ultrasoft PP ?                                      
   IUNSCR =        1    unscreen: 0-lin 1-nonlin 2-no                           
   RPACOR =    2.000    partial core radius                                     
   POMASS =  118.710; ZVAL   =    4.000    mass and valenz                      
   RCORE  =    3.000    outmost cutoff radius                                   
   RWIGS  =    2.960; RWIGS  =    1.566    wigner-seitz radius (au A)           
   ENMAX  =  103.236; ENMIN  =   77.427 eV                                      
   ICORE  =        3    local potential                                         
   LCOR   =        T    correct aug charges                                     
   LPAW   =        T    paw PP                                                  
   EAUG   =  263.585                                                            
   DEXC   =    0.000                                                            
   RMAX   =    3.078    core radius for proj-oper                               
   RAUG   =    1.300    factor for augmentation sphere                          
   RDEP   =    3.022    radius for radial grids                                 
   RDEPT  =    2.655    core radius for aug-charge                              
                                                                                
   Atomic configuration                                                         
   13 entries                                                                   
     n  l   j            E        occ.                                          
     1  0  0.50    -29007.2859   2.0000                                         
     2  0  0.50     -4378.8056   2.0000                                         
     2  1  1.50     -3930.4293   6.0000                                         
     3  0  0.50      -845.0264   2.0000                                         
     3  1  1.50      -698.5725   6.0000                                         
     3  2  2.50      -473.2839  10.0000                                         
     4  0  0.50      -133.9036   2.0000                                         
     4  1  1.50       -89.6752   6.0000                                         
     4  2  2.50       -25.8375  10.0000                                         
     5  0  0.50       -10.5484   2.0000                                         
     5  1  0.50        -3.6940   2.0000                                         
     5  2  1.50        -1.3606   0.0000                                         
     4  3  2.50        -4.0817   0.0000                                         
   Description                                                                  
     l       E           TYP  RCUT    TYP  RCUT                                 
     0    -10.5483727     23  3.000                                             
     0     27.2116520     23  3.000                                             
     1     -3.6939829     23  3.000                                             
     1      1.9821976     23  3.000                                             
     2     -1.3605826     23  3.000                                             
     3     -2.7211652     23  3.000                                             
  local pseudopotential read in
  partial core-charges read in
  partial kinetic energy density read in
  atomic valenz-charges read in
  non local Contribution for L=           0  read in
    real space projection operators read in
  non local Contribution for L=           0  read in
    real space projection operators read in
  non local Contribution for L=           1  read in
    real space projection operators read in
  non local Contribution for L=           1  read in
    real space projection operators read in
  non local Contribution for L=           2  read in
    real space projection operators read in
    PAW grid and wavefunctions read in
 
   number of l-projection  operators is LMAX  =           5
   number of lm-projection operators is LMMAX =          13
 
 POTCAR:    PAW_PBE Se 06Sep2000                  
   VRHFIN =Se: s2p4                                                             
   LEXCH  = PE                                                                  
   EATOM  =   257.1286 eV,   18.8984 Ry                                         
                                                                                
   TITEL  = PAW_PBE Se 06Sep2000                                                
   LULTRA =        F    use ultrasoft PP ?                                      
   IUNSCR =        1    unscreen: 0-lin 1-nonlin 2-no                           
   RPACOR =    1.900    partial core radius                                     
   POMASS =   78.960; ZVAL   =    6.000    mass and valenz                      
   RCORE  =    2.100    outmost cutoff radius                                   
   RWIGS  =    2.200; RWIGS  =    1.164    wigner-seitz radius (au A)           
   ENMAX  =  211.555; ENMIN  =  158.666 eV                                      
   ICORE  =        3    local potential                                         
   LCOR   =        T    correct aug charges                                     
   LPAW   =        T    paw PP                                                  
   EAUG   =  446.842                                                            
   DEXC   =    0.000                                                            
   RMAX   =    2.147    core radius for proj-oper                               
   RAUG   =    1.300    factor for augmentation sphere                          
   RDEP   =    2.177    radius for radial grids                                 
   RDEPT  =    1.928    core radius for aug-charge                              
                                                                                
   Atomic configuration                                                         
   10 entries                                                                   
     n  l   j            E        occ.                                          
     1  0  0.50    -12503.4787   2.0000                                         
     2  0  0.50     -1606.9547   2.0000                                         
     2  1  1.50     -1413.3140   6.0000                                         
     3  0  0.50      -213.4885   2.0000                                         
     3  1  1.50      -152.9538   6.0000                                         
     3  2  2.50       -53.1221  10.0000                                         
     4  0  0.50       -17.2865   2.0000                                         
     4  1  0.50        -6.5110   4.0000                                         
     4  2  2.50        -6.8029   0.0000                                         
     4  3  2.50        -6.8029   0.0000                                         
   Description                                                                  
     l       E           TYP  RCUT    TYP  RCUT                                 
     0    -17.2865377     23  2.100                                             
     0    -15.3094411     23  2.100                                             
     1     -6.5110275     23  2.100                                             
     1     -0.0695192     23  2.100                                             
     2     -6.8029130     23  2.100                                             
     3     -1.3605826      7  2.100                                             
  local pseudopotential read in
  partial core-charges read in
  partial kinetic energy density read in
  atomic valenz-charges read in
  non local Contribution for L=           0  read in
    real space projection operators read in
  non local Contribution for L=           0  read in
    real space projection operators read in
  non local Contribution for L=           1  read in
    real space projection operators read in
  non local Contribution for L=           1  read in
    real space projection operators read in
  non local Contribution for L=           2  read in
    real space projection operators read in
    PAW grid and wavefunctions read in
 
   number of l-projection  operators is LMAX  =           5
   number of lm-projection operators is LMMAX =          13
 
 WARNING: PSMAXN for non-local potential too small
          PSMAXN should be >   12.5490833729506       NTYP=           1
  PAW_PBE Sn 08Apr2002                  :
 energy of atom  1       EATOM=  -94.0860
 kinetic energy error for atom=    0.0000 (will be added to EATOM!!)
  PAW_PBE Se 06Sep2000                  :
 energy of atom  2       EATOM= -257.1286
 kinetic energy error for atom=    0.0006 (will be added to EATOM!!)
 
 
 POSCAR:  SnSe-Monolayer                         
  positions in direct lattice
  velocities in cartesian coordinates
 exchange correlation table for  LEXCH =        8
   RHO(1)=    0.500       N(1)  =     2000
   RHO(2)=  100.500       N(2)  =     4000
 


--------------------------------------------------------------------------------------------------------


 ion  position               nearest neighbor table
   1  0.581  0.750  0.569-   4 2.72   3 2.92   3 2.92   3 3.23   3 3.23
   2  0.081  0.250  0.431-   3 2.72   4 2.92   4 2.92   4 3.23   4 3.23
   3  0.033  0.250  0.567-   2 2.72   1 2.92   1 2.92   1 3.23   1 3.23
   4  0.533  0.750  0.433-   1 2.72   2 2.92   2 2.92   2 3.23   2 3.23
 
  LATTYP: Found a simple orthorhombic cell.
 ALAT       =     4.2924778572
 B/A-ratio  =     1.0229805778
 C/A-ratio  =     4.6593134934
  
  Lattice vectors:
  
 A1 = (   0.0000000000,  -4.2924778572,   0.0000000000)
 A2 = (  -4.3911214785,   0.0000000000,   0.0000000000)
 A3 = (   0.0000000000,   0.0000000000, -20.0000000000)


Analysis of symmetry for initial positions (statically):
=====================================================================
 Subroutine PRICEL returns:
 Original cell was already a primitive cell.
 

 Routine SETGRP: Setting up the symmetry group for a 
 simple orthorhombic supercell.


 Subroutine GETGRP returns: Found  4 space group operations
 (whereof  1 operations were pure point group operations)
 out of a pool of  8 trial point group operations.


The static configuration has the point symmetry C_1 .
 The point group associated with its full space group is C_2v.


Analysis of symmetry for dynamics (positions and initial velocities):
=====================================================================
 Subroutine PRICEL returns:
 Original cell was already a primitive cell.
 

 Routine SETGRP: Setting up the symmetry group for a 
 simple orthorhombic supercell.


 Subroutine GETGRP returns: Found  4 space group operations
 (whereof  1 operations were pure point group operations)
 out of a pool of  8 trial point group operations.


The dynamic configuration has the point symmetry C_1 .
 The point group associated with its full space group is C_2v.


 Subroutine INISYM returns: Found  4 space group operations
 (whereof  1 operations are pure point group operations),
 and found     1 'primitive' translations

 
 
 KPOINTS: Automatic                               

Automatic generation of k-mesh.
Space group operators:
 irot       det(A)        alpha          n_x          n_y          n_z        tau_x        tau_y        tau_z
    1     1.000000     0.000000     1.000000     0.000000     0.000000     0.000000     0.000000     0.000000
    2    -1.000000   180.000000     0.000000     0.000000     1.000000    -0.500000    -0.500000     0.000000
    3     1.000000   180.000000     1.000000     0.000000     0.000000    -0.500000     0.000000     0.000000
    4    -1.000000   180.000000     0.000000     1.000000     0.000000     0.000000    -0.500000     0.000000
 
 Subroutine IBZKPT returns following result:
 ===========================================
 
 Found     64 irreducible k-points:
 
 Following reciprocal coordinates:
            Coordinates               Weight
  0.000000  0.000000  0.000000      1.000000
  0.066667  0.000000  0.000000      2.000000
  0.133333  0.000000  0.000000      2.000000
  0.200000  0.000000  0.000000      2.000000
  0.266667  0.000000  0.000000      2.000000
  0.333333  0.000000  0.000000      2.000000
  0.400000  0.000000  0.000000      2.000000
  0.466667  0.000000  0.000000      2.000000
  0.000000  0.066667  0.000000      2.000000
  0.066667  0.066667  0.000000      4.000000
  0.133333  0.066667  0.000000      4.000000
  0.200000  0.066667  0.000000      4.000000
  0.266667  0.066667  0.000000      4.000000
  0.333333  0.066667  0.000000      4.000000
  0.400000  0.066667  0.000000      4.000000
  0.466667  0.066667  0.000000      4.000000
  0.000000  0.133333  0.000000      2.000000
  0.066667  0.133333  0.000000      4.000000
  0.133333  0.133333  0.000000      4.000000
  0.200000  0.133333  0.000000      4.000000
  0.266667  0.133333  0.000000      4.000000
  0.333333  0.133333  0.000000      4.000000
  0.400000  0.133333  0.000000      4.000000
  0.466667  0.133333  0.000000      4.000000
  0.000000  0.200000  0.000000      2.000000
  0.066667  0.200000  0.000000      4.000000
  0.133333  0.200000  0.000000      4.000000
  0.200000  0.200000  0.000000      4.000000
  0.266667  0.200000  0.000000      4.000000
  0.333333  0.200000  0.000000      4.000000
  0.400000  0.200000  0.000000      4.000000
  0.466667  0.200000  0.000000      4.000000
  0.000000  0.266667  0.000000      2.000000
  0.066667  0.266667  0.000000      4.000000
  0.133333  0.266667  0.000000      4.000000
  0.200000  0.266667  0.000000      4.000000
  0.266667  0.266667  0.000000      4.000000
  0.333333  0.266667  0.000000      4.000000
  0.400000  0.266667  0.000000      4.000000
  0.466667  0.266667  0.000000      4.000000
  0.000000  0.333333  0.000000      2.000000
  0.066667  0.333333  0.000000      4.000000
  0.133333  0.333333  0.000000      4.000000
  0.200000  0.333333  0.000000      4.000000
  0.266667  0.333333  0.000000      4.000000
  0.333333  0.333333  0.000000      4.000000
  0.400000  0.333333  0.000000      4.000000
  0.466667  0.333333  0.000000      4.000000
  0.000000  0.400000  0.000000      2.000000
  0.066667  0.400000  0.000000      4.000000
  0.133333  0.400000  0.000000      4.000000
  0.200000  0.400000  0.000000      4.000000
  0.266667  0.400000  0.000000      4.000000
  0.333333  0.400000  0.000000      4.000000
  0.400000  0.400000  0.000000      4.000000
  0.466667  0.400000  0.000000      4.000000
  0.000000  0.466667  0.000000      2.000000
  0.066667  0.466667  0.000000      4.000000
  0.133333  0.466667  0.000000      4.000000
  0.200000  0.466667  0.000000      4.000000
  0.266667  0.466667  0.000000      4.000000
  0.333333  0.466667  0.000000      4.000000
  0.400000  0.466667  0.000000      4.000000
  0.466667  0.466667  0.000000      4.000000
 
 Following cartesian coordinates:
            Coordinates               Weight
  0.000000  0.000000  0.000000      1.000000
  0.015182  0.000000  0.000000      2.000000
  0.030364  0.000000  0.000000      2.000000
  0.045546  0.000000  0.000000      2.000000
  0.060729  0.000000  0.000000      2.000000
  0.075911  0.000000  0.000000      2.000000
  0.091093  0.000000  0.000000      2.000000
  0.106275  0.000000  0.000000      2.000000
  0.000000  0.015531  0.000000      2.000000
  0.015182  0.015531  0.000000      4.000000
  0.030364  0.015531  0.000000      4.000000
  0.045546  0.015531  0.000000      4.000000
  0.060729  0.015531  0.000000      4.000000
  0.075911  0.015531  0.000000      4.000000
  0.091093  0.015531  0.000000      4.000000
  0.106275  0.015531  0.000000      4.000000
  0.000000  0.031062  0.000000      2.000000
  0.015182  0.031062  0.000000      4.000000
  0.030364  0.031062  0.000000      4.000000
  0.045546  0.031062  0.000000      4.000000
  0.060729  0.031062  0.000000      4.000000
  0.075911  0.031062  0.000000      4.000000
  0.091093  0.031062  0.000000      4.000000
  0.106275  0.031062  0.000000      4.000000
  0.000000  0.046593  0.000000      2.000000
  0.015182  0.046593  0.000000      4.000000
  0.030364  0.046593  0.000000      4.000000
  0.045546  0.046593  0.000000      4.000000
  0.060729  0.046593  0.000000      4.000000
  0.075911  0.046593  0.000000      4.000000
  0.091093  0.046593  0.000000      4.000000
  0.106275  0.046593  0.000000      4.000000
  0.000000  0.062124  0.000000      2.000000
  0.015182  0.062124  0.000000      4.000000
  0.030364  0.062124  0.000000      4.000000
  0.045546  0.062124  0.000000      4.000000
  0.060729  0.062124  0.000000      4.000000
  0.075911  0.062124  0.000000      4.000000
  0.091093  0.062124  0.000000      4.000000
  0.106275  0.062124  0.000000      4.000000
  0.000000  0.077655  0.000000      2.000000
  0.015182  0.077655  0.000000      4.000000
  0.030364  0.077655  0.000000      4.000000
  0.045546  0.077655  0.000000      4.000000
  0.060729  0.077655  0.000000      4.000000
  0.075911  0.077655  0.000000      4.000000
  0.091093  0.077655  0.000000      4.000000
  0.106275  0.077655  0.000000      4.000000
  0.000000  0.093186  0.000000      2.000000
  0.015182  0.093186  0.000000      4.000000
  0.030364  0.093186  0.000000      4.000000
  0.045546  0.093186  0.000000      4.000000
  0.060729  0.093186  0.000000      4.000000
  0.075911  0.093186  0.000000      4.000000
  0.091093  0.093186  0.000000      4.000000
  0.106275  0.093186  0.000000      4.000000
  0.000000  0.108717  0.000000      2.000000
  0.015182  0.108717  0.000000      4.000000
  0.030364  0.108717  0.000000      4.000000
  0.045546  0.108717  0.000000      4.000000
  0.060729  0.108717  0.000000      4.000000
  0.075911  0.108717  0.000000      4.000000
  0.091093  0.108717  0.000000      4.000000
  0.106275  0.108717  0.000000      4.000000
 


--------------------------------------------------------------------------------------------------------




 Dimension of arrays:
   k-points           NKPTS =     64   k-points in BZ     NKDIM =     64   number of bands    NBANDS=     14
   number of dos      NEDOS =    301   number of ions     NIONS =      4
   non local maximal  LDIM  =      5   non local SUM 2l+1 LMDIM =     13
   total plane-waves  NPLWV = 207360
   max r-space proj   IRMAX =      1   max aug-charges    IRDMAX=  53141
   dimension x,y,z NGX =    36 NGY =   36 NGZ =  160
   dimension x,y,z NGXF=    72 NGYF=   72 NGZF=  320
   support grid    NGXF=    72 NGYF=   72 NGZF=  320
   ions per type =               2   2
   NGX,Y,Z   is equivalent  to a cutoff of  13.63, 13.94, 13.30 a.u.
   NGXF,Y,Z  is equivalent  to a cutoff of  27.26, 27.89, 26.60 a.u.

 SYSTEM =  SnSe                                    
 POSCAR =   SnSe-Monolayer                         

 Startparameter for this run:
   NWRITE =      2    write-flag & timer
   PREC   = accura    normal or accurate (medium, high low for compatibility)
   ISTART =      0    job   : 0-new  1-cont  2-samecut
   ICHARG =      2    charge: 1-file 2-atom 10-const
   ISPIN  =      1    spin polarized calculation?
   LNONCOLLINEAR =      F non collinear calculations
   LSORBIT =      F    spin-orbit coupling
   INIWAV =      1    electr: 0-lowe 1-rand  2-diag
   LASPH  =      F    aspherical Exc in radial PAW
   METAGGA=      F    non-selfconsistent MetaGGA calc.

 Electronic Relaxation 1
   ENCUT  =  600.0 eV  44.10 Ry    6.64 a.u.   8.77  8.57 39.94*2*pi/ulx,y,z
   ENINI  =  600.0     initial cutoff
   ENAUG  =  446.8 eV  augmentation charge cutoff
   NELM   =     60;   NELMIN=  2; NELMDL= -5     # of ELM steps 
   EDIFF  = 0.1E-05   stopping-criterion for ELM
   LREAL  =      F    real-space projection
   NLSPLINE    = F    spline interpolate recip. space projectors
   LCOMPAT=      F    compatible to vasp.4.4
   GGA_COMPAT  = T    GGA compatible to vasp.4.4-vasp.4.6
   LMAXPAW     = -100 max onsite density
   LMAXMIX     =    2 max onsite mixed and CHGCAR
   VOSKOWN=      0    Vosko Wilk Nusair interpolation
   ROPT   =    0.00000   0.00000
 Ionic relaxation
   EDIFFG = -.1E-02   stopping-criterion for IOM
   NSW    =    100    number of steps for IOM
   NBLOCK =      1;   KBLOCK =    100    inner block; outer block 
   IBRION =      2    ionic relax: 0-MD 1-quasi-New 2-CG
   NFREE  =      1    steps in history (QN), initial steepest desc. (CG)
   ISIF   =      2    stress and relaxation
   IWAVPR =     11    prediction:  0-non 1-charg 2-wave 3-comb
   ISYM   =      2    0-nonsym 1-usesym 2-fastsym
   LCORR  =      T    Harris-Foulkes like correction to forces

   POTIM  = 0.5000    time-step for ionic-motion
   TEIN   =    0.0    initial temperature
   TEBEG  =    0.0;   TEEND  =   0.0 temperature during run
   SMASS  =  -3.00    Nose mass-parameter (am)
   estimated Nose-frequenzy (Omega)   =  0.10E-29 period in steps =****** mass=  -0.441E-27a.u.
   SCALEE = 1.0000    scale energy and forces
   NPACO  =    256;   APACO  = 16.0  distance and # of slots for P.C.
   PSTRESS=    0.0 pullay stress

  Mass of Ions in am
   POMASS = 118.71 78.96
  Ionic Valenz
   ZVAL   =   4.00  6.00
  Atomic Wigner-Seitz radii
   RWIGS  =  -1.00 -1.00
  virtual crystal weights 
   VCA    =   1.00  1.00
   NELECT =      20.0000    total number of electrons
   NUPDOWN=      -1.0000    fix difference up-down

 DOS related values:
   EMIN   =  10.00;   EMAX   =-10.00  energy-range for DOS
   EFERMI =   0.00
   ISMEAR =     0;   SIGMA  =   0.10  broadening in eV -4-tet -1-fermi 0-gaus

 Electronic relaxation 2 (details)
   IALGO  =     38    algorithm
   LDIAG  =      T    sub-space diagonalisation (order eigenvalues)
   LSUBROT=      F    optimize rotation matrix (better conditioning)
   TURBO    =      0    0=normal 1=particle mesh
   IRESTART =      0    0=no restart 2=restart with 2 vectors
   NREBOOT  =      0    no. of reboots
   NMIN     =      0    reboot dimension
   EREF     =   0.00    reference energy to select bands
   IMIX   =      4    mixing-type and parameters
     AMIX     =   0.40;   BMIX     =  1.00
     AMIX_MAG =   1.60;   BMIX_MAG =  1.00
     AMIN     =   0.10
     WC   =   100.;   INIMIX=   1;  MIXPRE=   1;  MAXMIX= -45

 Intra band minimization:
   WEIMIN = 0.0010     energy-eigenvalue tresh-hold
   EBREAK =  0.18E-07  absolut break condition
   DEPER  =   0.30     relativ break condition  

   TIME   =   0.40     timestep for ELM

  volume/ion in A,a.u.               =      94.24       635.99
  Fermi-wavevector in a.u.,A,eV,Ry     =   0.615149  1.162463  5.148557  0.378408
  Thomas-Fermi vector in A             =   1.672415
 
 Write flags
   LWAVE        =      T    write WAVECAR
   LDOWNSAMPLE  =      F    k-point downsampling of WAVECAR
   LCHARG       =      T    write CHGCAR
   LVTOT        =      F    write LOCPOT, total local potential
   LVHAR        =      F    write LOCPOT, Hartree potential only
   LELF         =      F    write electronic localiz. function (ELF)
   LORBIT       =      0    0 simple, 1 ext, 2 COOP (PROOUT), +10 PAW based schemes


 Dipole corrections
   LMONO  =      F    monopole corrections only (constant potential shift)
   LDIPOL =      F    correct potential (dipole corrections)
   IDIPOL =      0    1-x, 2-y, 3-z, 4-all directions 
   EPSILON=  1.0000000 bulk dielectric constant

 Exchange correlation treatment:
   GGA     =    PE    GGA type
   LEXCH   =     8    internal setting for exchange type
   VOSKOWN=      0    Vosko Wilk Nusair interpolation
   LHFCALC =     F    Hartree Fock is set to
   LHFONE  =     F    Hartree Fock one center treatment
   AEXX    =    0.0000 exact exchange contribution

 Linear response parameters
   LEPSILON=     F    determine dielectric tensor
   LRPA    =     F    only Hartree local field effects (RPA)
   LNABLA  =     F    use nabla operator in PAW spheres
   LVEL    =     F    velocity operator in full k-point grid
   LINTERFAST=   F  fast interpolation
   KINTER  =     0    interpolate to denser k-point grid
   CSHIFT  =0.1000    complex shift for real part using Kramers Kronig
   OMEGAMAX=  -1.0    maximum frequency
   DEG_THRESHOLD= 0.2000000E-02 threshold for treating states as degnerate
   RTIME   =   -0.100 relaxation time in fs
  (WPLASMAI=    0.000 imaginary part of plasma frequency in eV, 0.658/RTIME)
   DFIELD  = 0.0000000 0.0000000 0.0000000 field for delta impulse in time
 
 Orbital magnetization related:
   ORBITALMAG=     F  switch on orbital magnetization
   LCHIMAG   =     F  perturbation theory with respect to B field
   DQ        =  0.001000  dq finite difference perturbation B field
   LLRAUG    =     F  two centre corrections for induced B field



--------------------------------------------------------------------------------------------------------


 conjugate gradient relaxation of ions
 charge density and potential will be updated during run
 non-spin polarized calculation
 Variant of blocked Davidson
 Davidson routine will perform the subspace rotation
 perform sub-space diagonalisation
    after iterative eigenvector-optimisation
 modified Broyden-mixing scheme, WC =      100.0
 initial mixing is a Kerker type mixing with AMIX =  0.4000 and BMIX =      1.0000
 Hartree-type preconditioning will be used
 using additional bands            4
 reciprocal scheme for non local part
 use partial core corrections
 calculate Harris-corrections to forces 
   (improved forces if not selfconsistent)
 use gradient corrections 
 use of overlap-Matrix (Vanderbilt PP)
 Gauss-broadening in eV      SIGMA  =   0.10


--------------------------------------------------------------------------------------------------------


  energy-cutoff  :      600.00
  volume of cell :      376.98
      direct lattice vectors                 reciprocal lattice vectors
     4.391121478  0.000000000  0.000000000     0.227732256  0.000000000  0.000000000
     0.000000000  4.292477857  0.000000000     0.000000000  0.232965675  0.000000000
     0.000000000  0.000000000 20.000000000     0.000000000  0.000000000  0.050000000

  length of vectors
     4.391121478  4.292477857 20.000000000     0.227732256  0.232965675  0.050000000


 
 k-points in units of 2pi/SCALE and weight: Automatic                               
   0.00000000  0.00000000  0.00000000       0.004
   0.01518215  0.00000000  0.00000000       0.009
   0.03036430  0.00000000  0.00000000       0.009
   0.04554645  0.00000000  0.00000000       0.009
   0.06072860  0.00000000  0.00000000       0.009
   0.07591075  0.00000000  0.00000000       0.009
   0.09109290  0.00000000  0.00000000       0.009
   0.10627505  0.00000000  0.00000000       0.009
   0.00000000  0.01553104  0.00000000       0.009
   0.01518215  0.01553104  0.00000000       0.018
   0.03036430  0.01553104  0.00000000       0.018
   0.04554645  0.01553104  0.00000000       0.018
   0.06072860  0.01553104  0.00000000       0.018
   0.07591075  0.01553104  0.00000000       0.018
   0.09109290  0.01553104  0.00000000       0.018
   0.10627505  0.01553104  0.00000000       0.018
   0.00000000  0.03106209  0.00000000       0.009
   0.01518215  0.03106209  0.00000000       0.018
   0.03036430  0.03106209  0.00000000       0.018
   0.04554645  0.03106209  0.00000000       0.018
   0.06072860  0.03106209  0.00000000       0.018
   0.07591075  0.03106209  0.00000000       0.018
   0.09109290  0.03106209  0.00000000       0.018
   0.10627505  0.03106209  0.00000000       0.018
   0.00000000  0.04659313  0.00000000       0.009
   0.01518215  0.04659313  0.00000000       0.018
   0.03036430  0.04659313  0.00000000       0.018
   0.04554645  0.04659313  0.00000000       0.018
   0.06072860  0.04659313  0.00000000       0.018
   0.07591075  0.04659313  0.00000000       0.018
   0.09109290  0.04659313  0.00000000       0.018
   0.10627505  0.04659313  0.00000000       0.018
   0.00000000  0.06212418  0.00000000       0.009
   0.01518215  0.06212418  0.00000000       0.018
   0.03036430  0.06212418  0.00000000       0.018
   0.04554645  0.06212418  0.00000000       0.018
   0.06072860  0.06212418  0.00000000       0.018
   0.07591075  0.06212418  0.00000000       0.018
   0.09109290  0.06212418  0.00000000       0.018
   0.10627505  0.06212418  0.00000000       0.018
   0.00000000  0.07765522  0.00000000       0.009
   0.01518215  0.07765522  0.00000000       0.018
   0.03036430  0.07765522  0.00000000       0.018
   0.04554645  0.07765522  0.00000000       0.018
   0.06072860  0.07765522  0.00000000       0.018
   0.07591075  0.07765522  0.00000000       0.018
   0.09109290  0.07765522  0.00000000       0.018
   0.10627505  0.07765522  0.00000000       0.018
   0.00000000  0.09318627  0.00000000       0.009
   0.01518215  0.09318627  0.00000000       0.018
   0.03036430  0.09318627  0.00000000       0.018
   0.04554645  0.09318627  0.00000000       0.018
   0.06072860  0.09318627  0.00000000       0.018
   0.07591075  0.09318627  0.00000000       0.018
   0.09109290  0.09318627  0.00000000       0.018
   0.10627505  0.09318627  0.00000000       0.018
   0.00000000  0.10871731  0.00000000       0.009
   0.01518215  0.10871731  0.00000000       0.018
   0.03036430  0.10871731  0.00000000       0.018
   0.04554645  0.10871731  0.00000000       0.018
   0.06072860  0.10871731  0.00000000       0.018
   0.07591075  0.10871731  0.00000000       0.018
   0.09109290  0.10871731  0.00000000       0.018
   0.10627505  0.10871731  0.00000000       0.018
 
 k-points in reciprocal lattice and weights: Automatic                               
   0.00000000  0.00000000  0.00000000       0.004
   0.06666667  0.00000000  0.00000000       0.009
   0.13333333  0.00000000  0.00000000       0.009
   0.20000000  0.00000000  0.00000000       0.009
   0.26666667  0.00000000  0.00000000       0.009
   0.33333333  0.00000000  0.00000000       0.009
   0.40000000  0.00000000  0.00000000       0.009
   0.46666667  0.00000000  0.00000000       0.009
   0.00000000  0.06666667  0.00000000       0.009
   0.06666667  0.06666667  0.00000000       0.018
   0.13333333  0.06666667  0.00000000       0.018
   0.20000000  0.06666667  0.00000000       0.018
   0.26666667  0.06666667  0.00000000       0.018
   0.33333333  0.06666667  0.00000000       0.018
   0.40000000  0.06666667  0.00000000       0.018
   0.46666667  0.06666667  0.00000000       0.018
   0.00000000  0.13333333  0.00000000       0.009
   0.06666667  0.13333333  0.00000000       0.018
   0.13333333  0.13333333  0.00000000       0.018
   0.20000000  0.13333333  0.00000000       0.018
   0.26666667  0.13333333  0.00000000       0.018
   0.33333333  0.13333333  0.00000000       0.018
   0.40000000  0.13333333  0.00000000       0.018
   0.46666667  0.13333333  0.00000000       0.018
   0.00000000  0.20000000  0.00000000       0.009
   0.06666667  0.20000000  0.00000000       0.018
   0.13333333  0.20000000  0.00000000       0.018
   0.20000000  0.20000000  0.00000000       0.018
   0.26666667  0.20000000  0.00000000       0.018
   0.33333333  0.20000000  0.00000000       0.018
   0.40000000  0.20000000  0.00000000       0.018
   0.46666667  0.20000000  0.00000000       0.018
   0.00000000  0.26666667  0.00000000       0.009
   0.06666667  0.26666667  0.00000000       0.018
   0.13333333  0.26666667  0.00000000       0.018
   0.20000000  0.26666667  0.00000000       0.018
   0.26666667  0.26666667  0.00000000       0.018
   0.33333333  0.26666667  0.00000000       0.018
   0.40000000  0.26666667  0.00000000       0.018
   0.46666667  0.26666667  0.00000000       0.018
   0.00000000  0.33333333  0.00000000       0.009
   0.06666667  0.33333333  0.00000000       0.018
   0.13333333  0.33333333  0.00000000       0.018
   0.20000000  0.33333333  0.00000000       0.018
   0.26666667  0.33333333  0.00000000       0.018
   0.33333333  0.33333333  0.00000000       0.018
   0.40000000  0.33333333  0.00000000       0.018
   0.46666667  0.33333333  0.00000000       0.018
   0.00000000  0.40000000  0.00000000       0.009
   0.06666667  0.40000000  0.00000000       0.018
   0.13333333  0.40000000  0.00000000       0.018
   0.20000000  0.40000000  0.00000000       0.018
   0.26666667  0.40000000  0.00000000       0.018
   0.33333333  0.40000000  0.00000000       0.018
   0.40000000  0.40000000  0.00000000       0.018
   0.46666667  0.40000000  0.00000000       0.018
   0.00000000  0.46666667  0.00000000       0.009
   0.06666667  0.46666667  0.00000000       0.018
   0.13333333  0.46666667  0.00000000       0.018
   0.20000000  0.46666667  0.00000000       0.018
   0.26666667  0.46666667  0.00000000       0.018
   0.33333333  0.46666667  0.00000000       0.018
   0.40000000  0.46666667  0.00000000       0.018
   0.46666667  0.46666667  0.00000000       0.018
 
 position of ions in fractional coordinates (direct lattice) 
   0.58124336  0.75000000  0.56874314
   0.08124336  0.25000000  0.43125686
   0.03286064  0.25000000  0.56707387
   0.53286061  0.75000000  0.43292613
 
 position of ions in cartesian coordinates  (Angst):
   2.55231019  3.21935839 11.37486283
   0.35674946  1.07311946  8.62513717
   0.14429507  1.07311946 11.34147733
   2.33985569  3.21935839  8.65852267
 


--------------------------------------------------------------------------------------------------------


 k-point  1 :   0.0000 0.0000 0.0000  plane waves:   12671
 k-point  2 :   0.0667 0.0000 0.0000  plane waves:   12639
 k-point  3 :   0.1333 0.0000 0.0000  plane waves:   12601
 k-point  4 :   0.2000 0.0000 0.0000  plane waves:   12567
 k-point  5 :   0.2667 0.0000 0.0000  plane waves:   12538
 k-point  6 :   0.3333 0.0000 0.0000  plane waves:   12600
 k-point  7 :   0.4000 0.0000 0.0000  plane waves:   12624
 k-point  8 :   0.4667 0.0000 0.0000  plane waves:   12600
 k-point  9 :   0.0000 0.0667 0.0000  plane waves:   12609
 k-point 10 :   0.0667 0.0667 0.0000  plane waves:   12619
 k-point 11 :   0.1333 0.0667 0.0000  plane waves:   12608
 k-point 12 :   0.2000 0.0667 0.0000  plane waves:   12570
 k-point 13 :   0.2667 0.0667 0.0000  plane waves:   12573
 k-point 14 :   0.3333 0.0667 0.0000  plane waves:   12604
 k-point 15 :   0.4000 0.0667 0.0000  plane waves:   12608
 k-point 16 :   0.4667 0.0667 0.0000  plane waves:   12613
 k-point 17 :   0.0000 0.1333 0.0000  plane waves:   12599
 k-point 18 :   0.0667 0.1333 0.0000  plane waves:   12600
 k-point 19 :   0.1333 0.1333 0.0000  plane waves:   12575
 k-point 20 :   0.2000 0.1333 0.0000  plane waves:   12566
 k-point 21 :   0.2667 0.1333 0.0000  plane waves:   12573
 k-point 22 :   0.3333 0.1333 0.0000  plane waves:   12602
 k-point 23 :   0.4000 0.1333 0.0000  plane waves:   12599
 k-point 24 :   0.4667 0.1333 0.0000  plane waves:   12606
 k-point 25 :   0.0000 0.2000 0.0000  plane waves:   12601
 k-point 26 :   0.0667 0.2000 0.0000  plane waves:   12579
 k-point 27 :   0.1333 0.2000 0.0000  plane waves:   12579
 k-point 28 :   0.2000 0.2000 0.0000  plane waves:   12589
 k-point 29 :   0.2667 0.2000 0.0000  plane waves:   12577
 k-point 30 :   0.3333 0.2000 0.0000  plane waves:   12581
 k-point 31 :   0.4000 0.2000 0.0000  plane waves:   12594
 k-point 32 :   0.4667 0.2000 0.0000  plane waves:   12605
 k-point 33 :   0.0000 0.2667 0.0000  plane waves:   12585
 k-point 34 :   0.0667 0.2667 0.0000  plane waves:   12574
 k-point 35 :   0.1333 0.2667 0.0000  plane waves:   12577
 k-point 36 :   0.2000 0.2667 0.0000  plane waves:   12583
 k-point 37 :   0.2667 0.2667 0.0000  plane waves:   12578
 k-point 38 :   0.3333 0.2667 0.0000  plane waves:   12584
 k-point 39 :   0.4000 0.2667 0.0000  plane waves:   12588
 k-point 40 :   0.4667 0.2667 0.0000  plane waves:   12589
 k-point 41 :   0.0000 0.3333 0.0000  plane waves:   12571
 k-point 42 :   0.0667 0.3333 0.0000  plane waves:   12552
 k-point 43 :   0.1333 0.3333 0.0000  plane waves:   12564
 k-point 44 :   0.2000 0.3333 0.0000  plane waves:   12581
 k-point 45 :   0.2667 0.3333 0.0000  plane waves:   12569
 k-point 46 :   0.3333 0.3333 0.0000  plane waves:   12575
 k-point 47 :   0.4000 0.3333 0.0000  plane waves:   12575
 k-point 48 :   0.4667 0.3333 0.0000  plane waves:   12585
 k-point 49 :   0.0000 0.4000 0.0000  plane waves:   12529
 k-point 50 :   0.0667 0.4000 0.0000  plane waves:   12542
 k-point 51 :   0.1333 0.4000 0.0000  plane waves:   12560
 k-point 52 :   0.2000 0.4000 0.0000  plane waves:   12564
 k-point 53 :   0.2667 0.4000 0.0000  plane waves:   12585
 k-point 54 :   0.3333 0.4000 0.0000  plane waves:   12561
 k-point 55 :   0.4000 0.4000 0.0000  plane waves:   12567
 k-point 56 :   0.4667 0.4000 0.0000  plane waves:   12567
 k-point 57 :   0.0000 0.4667 0.0000  plane waves:   12560
 k-point 58 :   0.0667 0.4667 0.0000  plane waves:   12552
 k-point 59 :   0.1333 0.4667 0.0000  plane waves:   12566
 k-point 60 :   0.2000 0.4667 0.0000  plane waves:   12562
 k-point 61 :   0.2667 0.4667 0.0000  plane waves:   12548
 k-point 62 :   0.3333 0.4667 0.0000  plane waves:   12547
 k-point 63 :   0.4000 0.4667 0.0000  plane waves:   12562
 k-point 64 :   0.4667 0.4667 0.0000  plane waves:   12555

 maximum and minimum number of plane-waves per node :       548      492

 maximum number of plane-waves:     12671
 maximum index in each direction: 
   IXMAX=    8   IYMAX=    8   IZMAX=   39
   IXMIN=   -9   IYMIN=   -9   IZMIN=  -39


 parallel 3D FFT for wavefunctions:
    minimum data exchange during FFTs selected (reduces bandwidth)
 parallel 3D FFT for charge:
    minimum data exchange during FFTs selected (reduces bandwidth)


 total amount of memory used by VASP MPI-rank0    52101. kBytes
=======================================================================

   base      :      30000. kBytes
   nonl-proj :       7182. kBytes
   fftplans  :       2678. kBytes
   grid      :       4349. kBytes
   one-center:          8. kBytes
   wavefun   :       7884. kBytes
 
     INWAV:  cpu time    0.0000: real time    0.0000
 Broyden mixing: mesh for mixing (old mesh)
   NGX = 17   NGY = 17   NGZ = 79
  (NGX  = 72   NGY  = 72   NGZ  =320)
  gives a total of  22831 points

 initial charge density was supplied:
 charge density of overlapping atoms calculated
 number of electron      20.0000000 magnetization 
 keeping initial charge density in first step


--------------------------------------------------------------------------------------------------------


 Maximum index for augmentation-charges         2220 (set IRDMAX)


--------------------------------------------------------------------------------------------------------


 First call to EWALD:  gamma=   0.245
 Maximum number of real-space cells 4x 4x 1
 Maximum number of reciprocal cells 2x 2x 7

    FEWALD:  cpu time    0.0600: real time    0.0602


--------------------------------------- Iteration      1(   1)  ---------------------------------------


    POTLOK:  cpu time    0.0494: real time    0.2165
    SETDIJ:  cpu time    0.0045: real time    0.0048
     EDDAV:  cpu time    1.5539: real time    1.5606
       DOS:  cpu time    0.0036: real time    0.0036
    --------------------------------------------
      LOOP:  cpu time    1.6114: real time    1.7856

 eigenvalue-minimisations  :  1792
 total energy-change (2. order) : 0.1450715E+03  (-0.6298275E+03)
 number of electron      20.0000000 magnetization 
 augmentation part       20.0000000 magnetization 

 Free energy of the ion-electron system (eV)
  ---------------------------------------------------
  alpha Z        PSCENC =         9.48524705
  Ewald energy   TEWEN  =      1149.51337041
  -Hartree energ DENC   =     -1751.36601457
  -exchange      EXHF   =         0.00000000
  -V(xc)+E(xc)   XCENC  =      -238.60120901
  PAW double counting   =       799.43158084     -524.17639913
  entropy T*S    EENTRO =        -0.01025257
  eigenvalues    EBANDS =        -1.63273905
  atomic energy  EATOM  =       702.42789710
  Solvation  Ediel_sol  =         0.00000000
  ---------------------------------------------------
  free energy    TOTEN  =       145.07148107 eV

  energy without entropy =      145.08173364  energy(sigma->0) =      145.07660736


--------------------------------------------------------------------------------------------------------




--------------------------------------- Iteration      1(   2)  ---------------------------------------


     EDDAV:  cpu time    2.2723: real time    2.2768
       DOS:  cpu time    0.0034: real time    0.0033
    --------------------------------------------
      LOOP:  cpu time    2.2757: real time    2.2801

 eigenvalue-minimisations  :  2948
 total energy-change (2. order) :-0.1402183E+03  (-0.1355133E+03)
 number of electron      20.0000000 magnetization 
 augmentation part       20.0000000 magnetization 

 Free energy of the ion-electron system (eV)
  ---------------------------------------------------
  alpha Z        PSCENC =         9.48524705
  Ewald energy   TEWEN  =      1149.51337041
  -Hartree energ DENC   =     -1751.36601457
  -exchange      EXHF   =         0.00000000
  -V(xc)+E(xc)   XCENC  =      -238.60120901
  PAW double counting   =       799.43158084     -524.17639913
  entropy T*S    EENTRO =        -0.00082577
  eigenvalues    EBANDS =      -141.86044735
  atomic energy  EATOM  =       702.42789710
  Solvation  Ediel_sol  =         0.00000000
  ---------------------------------------------------
  free energy    TOTEN  =         4.85319957 eV

  energy without entropy =        4.85402535  energy(sigma->0) =        4.85361246


--------------------------------------------------------------------------------------------------------




--------------------------------------- Iteration      1(   3)  ---------------------------------------


     EDDAV:  cpu time    1.8074: real time    1.8106
       DOS:  cpu time    0.0023: real time    0.0023
    --------------------------------------------
      LOOP:  cpu time    1.8097: real time    1.8129

 eigenvalue-minimisations  :  2248
 total energy-change (2. order) :-0.2083166E+02  (-0.2068531E+02)
 number of electron      20.0000000 magnetization 
 augmentation part       20.0000000 magnetization 

 Free energy of the ion-electron system (eV)
  ---------------------------------------------------
  alpha Z        PSCENC =         9.48524705
  Ewald energy   TEWEN  =      1149.51337041
  -Hartree energ DENC   =     -1751.36601457
  -exchange      EXHF   =         0.00000000
  -V(xc)+E(xc)   XCENC  =      -238.60120901
  PAW double counting   =       799.43158084     -524.17639913
  entropy T*S    EENTRO =        -0.00000000
  eigenvalues    EBANDS =      -162.69293489
  atomic energy  EATOM  =       702.42789710
  Solvation  Ediel_sol  =         0.00000000
  ---------------------------------------------------
  free energy    TOTEN  =       -15.97846219 eV

  energy without entropy =      -15.97846219  energy(sigma->0) =      -15.97846219


--------------------------------------------------------------------------------------------------------




--------------------------------------- Iteration      1(   4)  ---------------------------------------


     EDDAV:  cpu time    2.0806: real time    2.0844
       DOS:  cpu time    0.0024: real time    0.0024
    --------------------------------------------
      LOOP:  cpu time    2.0830: real time    2.0868

 eigenvalue-minimisations  :  2610
 total energy-change (2. order) :-0.8009976E+00  (-0.7982350E+00)
 number of electron      20.0000000 magnetization 
 augmentation part       20.0000000 magnetization 

 Free energy of the ion-electron system (eV)
  ---------------------------------------------------
  alpha Z        PSCENC =         9.48524705
  Ewald energy   TEWEN  =      1149.51337041
  -Hartree energ DENC   =     -1751.36601457
  -exchange      EXHF   =         0.00000000
  -V(xc)+E(xc)   XCENC  =      -238.60120901
  PAW double counting   =       799.43158084     -524.17639913
  entropy T*S    EENTRO =        -0.00000000
  eigenvalues    EBANDS =      -163.49393251
  atomic energy  EATOM  =       702.42789710
  Solvation  Ediel_sol  =         0.00000000
  ---------------------------------------------------
  free energy    TOTEN  =       -16.77945982 eV

  energy without entropy =      -16.77945982  energy(sigma->0) =      -16.77945982


--------------------------------------------------------------------------------------------------------




--------------------------------------- Iteration      1(   5)  ---------------------------------------


     EDDAV:  cpu time    1.8390: real time    1.8434
       DOS:  cpu time    0.0024: real time    0.0024
    CHARGE:  cpu time    0.1503: real time    0.1506
    MIXING:  cpu time    0.0019: real time    0.0020
    --------------------------------------------
      LOOP:  cpu time    1.9936: real time    1.9984

 eigenvalue-minimisations  :  2302
 total energy-change (2. order) :-0.1890726E-01  (-0.1889687E-01)
 number of electron      20.0000000 magnetization 
 augmentation part       -4.5224466 magnetization 

 Broyden mixing:
  rms(total) = 0.45047E+00    rms(broyden)= 0.45047E+00
  rms(prec ) = 0.49130E+00
  weight for this iteration     100.00

 Free energy of the ion-electron system (eV)
  ---------------------------------------------------
  alpha Z        PSCENC =         9.48524705
  Ewald energy   TEWEN  =      1149.51337041
  -Hartree energ DENC   =     -1751.36601457
  -exchange      EXHF   =         0.00000000
  -V(xc)+E(xc)   XCENC  =      -238.60120901
  PAW double counting   =       799.43158084     -524.17639913
  entropy T*S    EENTRO =        -0.00000000
  eigenvalues    EBANDS =      -163.51283977
  atomic energy  EATOM  =       702.42789710
  Solvation  Ediel_sol  =         0.00000000
  ---------------------------------------------------
  free energy    TOTEN  =       -16.79836708 eV

  energy without entropy =      -16.79836708  energy(sigma->0) =      -16.79836708


--------------------------------------------------------------------------------------------------------




--------------------------------------- Iteration      1(   6)  ---------------------------------------


    POTLOK:  cpu time    0.0429: real time    0.0430
    SETDIJ:  cpu time    0.0038: real time    0.0038
     EDDAV:  cpu time    1.7851: real time    1.7885
       DOS:  cpu time    0.0024: real time    0.0024
    CHARGE:  cpu time    0.1487: real time    0.1490
    MIXING:  cpu time    0.0016: real time    0.0016
    --------------------------------------------
      LOOP:  cpu time    1.9846: real time    1.9884

 eigenvalue-minimisations  :  2212
 total energy-change (2. order) : 0.4931306E+00  (-0.1258426E+00)
 number of electron      20.0000000 magnetization 
 augmentation part       -4.4898372 magnetization 

 Broyden mixing:
  rms(total) = 0.27620E+00    rms(broyden)= 0.27620E+00
  rms(prec ) = 0.28539E+00
  weight for this iteration     100.00

 eigenvalues of (default mixing * dielectric matrix)
  average eigenvalue GAMMA=   1.7935
  1.7935

 Free energy of the ion-electron system (eV)
  ---------------------------------------------------
  alpha Z        PSCENC =         9.48524705
  Ewald energy   TEWEN  =      1149.51337041
  -Hartree energ DENC   =     -1759.25422423
  -exchange      EXHF   =         0.00000000
  -V(xc)+E(xc)   XCENC  =      -238.11760685
  PAW double counting   =       923.73673149     -648.66236129
  entropy T*S    EENTRO =        -0.00000000
  eigenvalues    EBANDS =      -155.43429014
  atomic energy  EATOM  =       702.42789710
  Solvation  Ediel_sol  =         0.00000000
  ---------------------------------------------------
  free energy    TOTEN  =       -16.30523646 eV

  energy without entropy =      -16.30523646  energy(sigma->0) =      -16.30523646


--------------------------------------------------------------------------------------------------------




--------------------------------------- Iteration      1(   7)  ---------------------------------------


    POTLOK:  cpu time    0.0427: real time    0.0429
    SETDIJ:  cpu time    0.0037: real time    0.0037
     EDDAV:  cpu time    1.9348: real time    1.9387
       DOS:  cpu time    0.0024: real time    0.0024
    CHARGE:  cpu time    0.1480: real time    0.1483
    MIXING:  cpu time    0.0017: real time    0.0018
    --------------------------------------------
      LOOP:  cpu time    2.1333: real time    2.1378

 eigenvalue-minimisations  :  2438
 total energy-change (2. order) : 0.2729432E-01  (-0.3137603E-01)
 number of electron      20.0000000 magnetization 
 augmentation part       -4.4816560 magnetization 

 Broyden mixing:
  rms(total) = 0.10516E+00    rms(broyden)= 0.10516E+00
  rms(prec ) = 0.11056E+00
  weight for this iteration     100.00

 eigenvalues of (default mixing * dielectric matrix)
  average eigenvalue GAMMA=   1.7297
  1.3708  2.0886

 Free energy of the ion-electron system (eV)
  ---------------------------------------------------
  alpha Z        PSCENC =         9.48524705
  Ewald energy   TEWEN  =      1149.51337041
  -Hartree energ DENC   =     -1764.25276106
  -exchange      EXHF   =         0.00000000
  -V(xc)+E(xc)   XCENC  =      -237.79485198
  PAW double counting   =      1063.77065611     -788.83321514
  entropy T*S    EENTRO =        -0.00000000
  eigenvalues    EBANDS =      -150.59428463
  atomic energy  EATOM  =       702.42789710
  Solvation  Ediel_sol  =         0.00000000
  ---------------------------------------------------
  free energy    TOTEN  =       -16.27794214 eV

  energy without entropy =      -16.27794214  energy(sigma->0) =      -16.27794214


--------------------------------------------------------------------------------------------------------




--------------------------------------- Iteration      1(   8)  ---------------------------------------


    POTLOK:  cpu time    0.0432: real time    0.0433
    SETDIJ:  cpu time    0.0037: real time    0.0037
     EDDAV:  cpu time    1.9810: real time    1.9850
       DOS:  cpu time    0.0024: real time    0.0024
    CHARGE:  cpu time    0.1482: real time    0.1485
    MIXING:  cpu time    0.0016: real time    0.0016
    --------------------------------------------
      LOOP:  cpu time    2.1802: real time    2.1846

 eigenvalue-minimisations  :  2484
 total energy-change (2. order) : 0.9590560E-02  (-0.3852377E-02)
 number of electron      20.0000000 magnetization 
 augmentation part       -4.4859529 magnetization 

 Broyden mixing:
  rms(total) = 0.20333E-01    rms(broyden)= 0.20333E-01
  rms(prec ) = 0.27813E-01
  weight for this iteration     100.00

 eigenvalues of (default mixing * dielectric matrix)
  average eigenvalue GAMMA=   1.7015
  2.5213  1.2917  1.2917

 Free energy of the ion-electron system (eV)
  ---------------------------------------------------
  alpha Z        PSCENC =         9.48524705
  Ewald energy   TEWEN  =      1149.51337041
  -Hartree energ DENC   =     -1765.95440337
  -exchange      EXHF   =         0.00000000
  -V(xc)+E(xc)   XCENC  =      -237.71565374
  PAW double counting   =      1129.87846776     -854.97941995
  entropy T*S    EENTRO =        -0.00000000
  eigenvalues    EBANDS =      -148.92385684
  atomic energy  EATOM  =       702.42789710
  Solvation  Ediel_sol  =         0.00000000
  ---------------------------------------------------
  free energy    TOTEN  =       -16.26835158 eV

  energy without entropy =      -16.26835158  energy(sigma->0) =      -16.26835158


--------------------------------------------------------------------------------------------------------




--------------------------------------- Iteration      1(   9)  ---------------------------------------


    POTLOK:  cpu time    0.0430: real time    0.0431
    SETDIJ:  cpu time    0.0039: real time    0.0039
     EDDAV:  cpu time    1.9199: real time    1.9311
       DOS:  cpu time    0.0024: real time    0.0024
    CHARGE:  cpu time    0.1644: real time    0.1647
    MIXING:  cpu time    0.0016: real time    0.0016
    --------------------------------------------
      LOOP:  cpu time    2.1351: real time    2.1468

 eigenvalue-minimisations  :  2452
 total energy-change (2. order) : 0.3722664E-02  (-0.6743432E-03)
 number of electron      20.0000000 magnetization 
 augmentation part       -4.4840394 magnetization 

 Broyden mixing:
  rms(total) = 0.10025E-01    rms(broyden)= 0.10025E-01
  rms(prec ) = 0.15649E-01
  weight for this iteration     100.00

 eigenvalues of (default mixing * dielectric matrix)
  average eigenvalue GAMMA=   1.7239
  2.2542  2.2542  1.1936  1.1936

 Free energy of the ion-electron system (eV)
  ---------------------------------------------------
  alpha Z        PSCENC =         9.48524705
  Ewald energy   TEWEN  =      1149.51337041
  -Hartree energ DENC   =     -1767.91990142
  -exchange      EXHF   =         0.00000000
  -V(xc)+E(xc)   XCENC  =      -237.64270081
  PAW double counting   =      1147.66659995     -872.77937973
  entropy T*S    EENTRO =        -0.00000000
  eigenvalues    EBANDS =      -147.01576146
  atomic energy  EATOM  =       702.42789710
  Solvation  Ediel_sol  =         0.00000000
  ---------------------------------------------------
  free energy    TOTEN  =       -16.26462891 eV

  energy without entropy =      -16.26462891  energy(sigma->0) =      -16.26462891


--------------------------------------------------------------------------------------------------------




--------------------------------------- Iteration      1(  10)  ---------------------------------------


    POTLOK:  cpu time    0.0432: real time    0.0434
    SETDIJ:  cpu time    0.0037: real time    0.0037
     EDDAV:  cpu time    1.9315: real time    1.9350
       DOS:  cpu time    0.0026: real time    0.0025
    CHARGE:  cpu time    0.1488: real time    0.1491
    MIXING:  cpu time    0.0018: real time    0.0018
    --------------------------------------------
      LOOP:  cpu time    2.1315: real time    2.1355

 eigenvalue-minimisations  :  2464
 total energy-change (2. order) : 0.1345331E-02  (-0.1334802E-03)
 number of electron      20.0000000 magnetization 
 augmentation part       -4.4827460 magnetization 

 Broyden mixing:
  rms(total) = 0.52362E-02    rms(broyden)= 0.52362E-02
  rms(prec ) = 0.93295E-02
  weight for this iteration     100.00

 eigenvalues of (default mixing * dielectric matrix)
  average eigenvalue GAMMA=   1.8601
  3.3315  2.5908  1.2341  1.2341  0.9098

 Free energy of the ion-electron system (eV)
  ---------------------------------------------------
  alpha Z        PSCENC =         9.48524705
  Ewald energy   TEWEN  =      1149.51337041
  -Hartree energ DENC   =     -1769.24933365
  -exchange      EXHF   =         0.00000000
  -V(xc)+E(xc)   XCENC  =      -237.63074527
  PAW double counting   =      1136.97203961     -862.07445780
  entropy T*S    EENTRO =        -0.00000000
  eigenvalues    EBANDS =      -145.70730103
  atomic energy  EATOM  =       702.42789710
  Solvation  Ediel_sol  =         0.00000000
  ---------------------------------------------------
  free energy    TOTEN  =       -16.26328358 eV

  energy without entropy =      -16.26328358  energy(sigma->0) =      -16.26328358


--------------------------------------------------------------------------------------------------------




--------------------------------------- Iteration      1(  11)  ---------------------------------------


    POTLOK:  cpu time    0.0434: real time    0.0435
    SETDIJ:  cpu time    0.0037: real time    0.0037
     EDDAV:  cpu time    1.9586: real time    1.9623
       DOS:  cpu time    0.0024: real time    0.0025
    CHARGE:  cpu time    0.1490: real time    0.1492
    MIXING:  cpu time    0.0018: real time    0.0018
    --------------------------------------------
      LOOP:  cpu time    2.1589: real time    2.1629

 eigenvalue-minimisations  :  2434
 total energy-change (2. order) : 0.6951574E-03  (-0.1168180E-03)
 number of electron      20.0000000 magnetization 
 augmentation part       -4.4814110 magnetization 

 Broyden mixing:
  rms(total) = 0.31936E-02    rms(broyden)= 0.31936E-02
  rms(prec ) = 0.49628E-02
  weight for this iteration     100.00

 eigenvalues of (default mixing * dielectric matrix)
  average eigenvalue GAMMA=   1.8510
  3.4049  2.2121  2.2121  1.1930  1.1930  0.8906

 Free energy of the ion-electron system (eV)
  ---------------------------------------------------
  alpha Z        PSCENC =         9.48524705
  Ewald energy   TEWEN  =      1149.51337041
  -Hartree energ DENC   =     -1770.79272935
  -exchange      EXHF   =         0.00000000
  -V(xc)+E(xc)   XCENC  =      -237.59957619
  PAW double counting   =      1138.84419534     -863.94609072
  entropy T*S    EENTRO =        -0.00000000
  eigenvalues    EBANDS =      -144.19490206
  atomic energy  EATOM  =       702.42789710
  Solvation  Ediel_sol  =         0.00000000
  ---------------------------------------------------
  free energy    TOTEN  =       -16.26258842 eV

  energy without entropy =      -16.26258842  energy(sigma->0) =      -16.26258842


--------------------------------------------------------------------------------------------------------




--------------------------------------- Iteration      1(  12)  ---------------------------------------


    POTLOK:  cpu time    0.0424: real time    0.0425
    SETDIJ:  cpu time    0.0036: real time    0.0036
     EDDAV:  cpu time    1.6961: real time    1.6993
       DOS:  cpu time    0.0024: real time    0.0025
    CHARGE:  cpu time    0.1478: real time    0.1481
    MIXING:  cpu time    0.0017: real time    0.0017
    --------------------------------------------
      LOOP:  cpu time    1.8940: real time    1.8977

 eigenvalue-minimisations  :  2014
 total energy-change (2. order) :-0.8418996E-03  (-0.2967632E-04)
 number of electron      20.0000000 magnetization 
 augmentation part       -4.4807515 magnetization 

 Broyden mixing:
  rms(total) = 0.17776E-02    rms(broyden)= 0.17776E-02
  rms(prec ) = 0.27412E-02
  weight for this iteration     100.00

 eigenvalues of (default mixing * dielectric matrix)
  average eigenvalue GAMMA=   2.0652
  4.5986  3.0779  2.4984  1.2037  1.2037  1.0287  0.8458

 Free energy of the ion-electron system (eV)
  ---------------------------------------------------
  alpha Z        PSCENC =         9.48524705
  Ewald energy   TEWEN  =      1149.51337041
  -Hartree energ DENC   =     -1771.46233814
  -exchange      EXHF   =         0.00000000
  -V(xc)+E(xc)   XCENC  =      -237.58985413
  PAW double counting   =      1140.47346319     -865.57779382
  entropy T*S    EENTRO =        -0.00000000
  eigenvalues    EBANDS =      -143.53342198
  atomic energy  EATOM  =       702.42789710
  Solvation  Ediel_sol  =         0.00000000
  ---------------------------------------------------
  free energy    TOTEN  =       -16.26343032 eV

  energy without entropy =      -16.26343032  energy(sigma->0) =      -16.26343032


--------------------------------------------------------------------------------------------------------




--------------------------------------- Iteration      1(  13)  ---------------------------------------


    POTLOK:  cpu time    0.0433: real time    0.0435
    SETDIJ:  cpu time    0.0036: real time    0.0036
     EDDAV:  cpu time    1.7689: real time    1.7723
       DOS:  cpu time    0.0024: real time    0.0024
    CHARGE:  cpu time    0.1461: real time    0.1463
    MIXING:  cpu time    0.0021: real time    0.0021
    --------------------------------------------
      LOOP:  cpu time    1.9664: real time    1.9702

 eigenvalue-minimisations  :  2098
 total energy-change (2. order) :-0.4110126E-03  (-0.7638077E-05)
 number of electron      20.0000000 magnetization 
 augmentation part       -4.4805681 magnetization 

 Broyden mixing:
  rms(total) = 0.11133E-02    rms(broyden)= 0.11133E-02
  rms(prec ) = 0.14939E-02
  weight for this iteration     100.00

 eigenvalues of (default mixing * dielectric matrix)
  average eigenvalue GAMMA=   2.2472
  5.7291  3.2585  2.4651  2.2293  1.1625  1.1625  1.0558  0.9147

 Free energy of the ion-electron system (eV)
  ---------------------------------------------------
  alpha Z        PSCENC =         9.48524705
  Ewald energy   TEWEN  =      1149.51337041
  -Hartree energ DENC   =     -1771.85206880
  -exchange      EXHF   =         0.00000000
  -V(xc)+E(xc)   XCENC  =      -237.58869384
  PAW double counting   =      1139.43503676     -864.53823004
  entropy T*S    EENTRO =        -0.00000000
  eigenvalues    EBANDS =      -143.14639998
  atomic energy  EATOM  =       702.42789710
  Solvation  Ediel_sol  =         0.00000000
  ---------------------------------------------------
  free energy    TOTEN  =       -16.26384134 eV

  energy without entropy =      -16.26384134  energy(sigma->0) =      -16.26384134


--------------------------------------------------------------------------------------------------------




--------------------------------------- Iteration      1(  14)  ---------------------------------------


    POTLOK:  cpu time    0.0455: real time    0.0456
    SETDIJ:  cpu time    0.0037: real time    0.0037
     EDDAV:  cpu time    1.7875: real time    1.7908
       DOS:  cpu time    0.0024: real time    0.0024
    CHARGE:  cpu time    0.1485: real time    0.1487
    MIXING:  cpu time    0.0021: real time    0.0020
    --------------------------------------------
      LOOP:  cpu time    1.9896: real time    1.9932

 eigenvalue-minimisations  :  2194
 total energy-change (2. order) :-0.2683782E-03  (-0.4187450E-05)
 number of electron      20.0000000 magnetization 
 augmentation part       -4.4805417 magnetization 

 Broyden mixing:
  rms(total) = 0.40144E-03    rms(broyden)= 0.40144E-03
  rms(prec ) = 0.62099E-03
  weight for this iteration     100.00

 eigenvalues of (default mixing * dielectric matrix)
  average eigenvalue GAMMA=   2.2486
  6.7557  3.0616  2.5350  2.5350  1.1843  1.1843  1.0316  0.9748  0.9748

 Free energy of the ion-electron system (eV)
  ---------------------------------------------------
  alpha Z        PSCENC =         9.48524705
  Ewald energy   TEWEN  =      1149.51337041
  -Hartree energ DENC   =     -1772.06140157
  -exchange      EXHF   =         0.00000000
  -V(xc)+E(xc)   XCENC  =      -237.58857791
  PAW double counting   =      1139.66732352     -864.76995990
  entropy T*S    EENTRO =        -0.00000000
  eigenvalues    EBANDS =      -142.93800841
  atomic energy  EATOM  =       702.42789710
  Solvation  Ediel_sol  =         0.00000000
  ---------------------------------------------------
  free energy    TOTEN  =       -16.26410971 eV

  energy without entropy =      -16.26410971  energy(sigma->0) =      -16.26410971


--------------------------------------------------------------------------------------------------------




--------------------------------------- Iteration      1(  15)  ---------------------------------------


    POTLOK:  cpu time    0.0453: real time    0.0454
    SETDIJ:  cpu time    0.0038: real time    0.0038
     EDDAV:  cpu time    1.7716: real time    1.7747
       DOS:  cpu time    0.0025: real time    0.0025
    CHARGE:  cpu time    0.1444: real time    0.1446
    MIXING:  cpu time    0.0020: real time    0.0020
    --------------------------------------------
      LOOP:  cpu time    1.9695: real time    1.9731

 eigenvalue-minimisations  :  2160
 total energy-change (2. order) :-0.5803291E-04  (-0.2049913E-06)
 number of electron      20.0000000 magnetization 
 augmentation part       -4.4805586 magnetization 

 Broyden mixing:
  rms(total) = 0.31761E-03    rms(broyden)= 0.31761E-03
  rms(prec ) = 0.49163E-03
  weight for this iteration     100.00

 eigenvalues of (default mixing * dielectric matrix)
  average eigenvalue GAMMA=   2.3659
  6.5827  4.3044  2.7015  2.7015  2.0064  1.1444  1.1444  1.1968  0.9383  0.9383

 Free energy of the ion-electron system (eV)
  ---------------------------------------------------
  alpha Z        PSCENC =         9.48524705
  Ewald energy   TEWEN  =      1149.51337041
  -Hartree energ DENC   =     -1772.07515353
  -exchange      EXHF   =         0.00000000
  -V(xc)+E(xc)   XCENC  =      -237.58891310
  PAW double counting   =      1139.50152425     -864.60406839
  entropy T*S    EENTRO =        -0.00000000
  eigenvalues    EBANDS =      -142.92407154
  atomic energy  EATOM  =       702.42789710
  Solvation  Ediel_sol  =         0.00000000
  ---------------------------------------------------
  free energy    TOTEN  =       -16.26416775 eV

  energy without entropy =      -16.26416775  energy(sigma->0) =      -16.26416775


--------------------------------------------------------------------------------------------------------




--------------------------------------- Iteration      1(  16)  ---------------------------------------


    POTLOK:  cpu time    0.0443: real time    0.0444
    SETDIJ:  cpu time    0.0036: real time    0.0036
     EDDAV:  cpu time    1.6604: real time    1.6635
       DOS:  cpu time    0.0024: real time    0.0024
    CHARGE:  cpu time    0.1465: real time    0.1467
    MIXING:  cpu time    0.0020: real time    0.0020
    --------------------------------------------
      LOOP:  cpu time    1.8591: real time    1.8627

 eigenvalue-minimisations  :  2004
 total energy-change (2. order) :-0.4412297E-04  (-0.8444677E-06)
 number of electron      20.0000000 magnetization 
 augmentation part       -4.4805698 magnetization 

 Broyden mixing:
  rms(total) = 0.11655E-03    rms(broyden)= 0.11655E-03
  rms(prec ) = 0.21796E-03
  weight for this iteration     100.00

 eigenvalues of (default mixing * dielectric matrix)
  average eigenvalue GAMMA=   2.2850
  6.7977  4.5306  2.6500  2.6500  2.2531  1.1562  1.1562  1.2013  0.9417  0.9417
  0.8562

 Free energy of the ion-electron system (eV)
  ---------------------------------------------------
  alpha Z        PSCENC =         9.48524705
  Ewald energy   TEWEN  =      1149.51337041
  -Hartree energ DENC   =     -1772.12830066
  -exchange      EXHF   =         0.00000000
  -V(xc)+E(xc)   XCENC  =      -237.58897605
  PAW double counting   =      1139.36690218     -864.46946695
  entropy T*S    EENTRO =        -0.00000000
  eigenvalues    EBANDS =      -142.87088495
  atomic energy  EATOM  =       702.42789710
  Solvation  Ediel_sol  =         0.00000000
  ---------------------------------------------------
  free energy    TOTEN  =       -16.26421187 eV

  energy without entropy =      -16.26421187  energy(sigma->0) =      -16.26421187


--------------------------------------------------------------------------------------------------------




--------------------------------------- Iteration      1(  17)  ---------------------------------------


    POTLOK:  cpu time    0.0437: real time    0.0439
    SETDIJ:  cpu time    0.0037: real time    0.0037
     EDDAV:  cpu time    1.5534: real time    1.5567
       DOS:  cpu time    0.0024: real time    0.0024
    CHARGE:  cpu time    0.1464: real time    0.1466
    MIXING:  cpu time    0.0021: real time    0.0021
    --------------------------------------------
      LOOP:  cpu time    1.7516: real time    1.7554

 eigenvalue-minimisations  :  1818
 total energy-change (2. order) :-0.2320236E-04  (-0.1053526E-06)
 number of electron      20.0000000 magnetization 
 augmentation part       -4.4805510 magnetization 

 Broyden mixing:
  rms(total) = 0.11629E-03    rms(broyden)= 0.11629E-03
  rms(prec ) = 0.17729E-03
  weight for this iteration     100.00

 eigenvalues of (default mixing * dielectric matrix)
  average eigenvalue GAMMA=   2.4024
  7.0085  5.1919  2.9491  2.9491  2.3774  1.9993  1.1512  1.1512  0.9263  0.9719
  1.0768  1.0768

 Free energy of the ion-electron system (eV)
  ---------------------------------------------------
  alpha Z        PSCENC =         9.48524705
  Ewald energy   TEWEN  =      1149.51337041
  -Hartree energ DENC   =     -1772.14397414
  -exchange      EXHF   =         0.00000000
  -V(xc)+E(xc)   XCENC  =      -237.58884341
  PAW double counting   =      1139.42553833     -864.52819394
  entropy T*S    EENTRO =        -0.00000000
  eigenvalues    EBANDS =      -142.85527647
  atomic energy  EATOM  =       702.42789710
  Solvation  Ediel_sol  =         0.00000000
  ---------------------------------------------------
  free energy    TOTEN  =       -16.26423507 eV

  energy without entropy =      -16.26423507  energy(sigma->0) =      -16.26423507


--------------------------------------------------------------------------------------------------------




--------------------------------------- Iteration      1(  18)  ---------------------------------------


    POTLOK:  cpu time    0.0436: real time    0.0437
    SETDIJ:  cpu time    0.0036: real time    0.0036
     EDDAV:  cpu time    1.7143: real time    1.7175
       DOS:  cpu time    0.0025: real time    0.0025
    CHARGE:  cpu time    0.1517: real time    0.1520
    MIXING:  cpu time    0.0022: real time    0.0022
    --------------------------------------------
      LOOP:  cpu time    1.9179: real time    1.9213

 eigenvalue-minimisations  :  2092
 total energy-change (2. order) :-0.3814204E-04  (-0.3936367E-06)
 number of electron      20.0000000 magnetization 
 augmentation part       -4.4805410 magnetization 

 Broyden mixing:
  rms(total) = 0.58867E-04    rms(broyden)= 0.58867E-04
  rms(prec ) = 0.74667E-04
  weight for this iteration     100.00

 eigenvalues of (default mixing * dielectric matrix)
  average eigenvalue GAMMA=   2.3711
  7.1083  5.5076  2.9713  2.8473  2.5779  2.0766  1.4272  1.1593  1.1593  0.9117
  0.9782  1.0496  1.0496

 Free energy of the ion-electron system (eV)
  ---------------------------------------------------
  alpha Z        PSCENC =         9.48524705
  Ewald energy   TEWEN  =      1149.51337041
  -Hartree energ DENC   =     -1772.16636237
  -exchange      EXHF   =         0.00000000
  -V(xc)+E(xc)   XCENC  =      -237.58881920
  PAW double counting   =      1139.42427140     -864.52690722
  entropy T*S    EENTRO =        -0.00000000
  eigenvalues    EBANDS =      -142.83297038
  atomic energy  EATOM  =       702.42789710
  Solvation  Ediel_sol  =         0.00000000
  ---------------------------------------------------
  free energy    TOTEN  =       -16.26427321 eV

  energy without entropy =      -16.26427321  energy(sigma->0) =      -16.26427321


--------------------------------------------------------------------------------------------------------




--------------------------------------- Iteration      1(  19)  ---------------------------------------


    POTLOK:  cpu time    0.0434: real time    0.0435
    SETDIJ:  cpu time    0.0037: real time    0.0037
     EDDAV:  cpu time    1.6249: real time    1.6281
       DOS:  cpu time    0.0025: real time    0.0025
    CHARGE:  cpu time    0.1480: real time    0.1482
    MIXING:  cpu time    0.0023: real time    0.0022
    --------------------------------------------
      LOOP:  cpu time    1.8247: real time    1.8283

 eigenvalue-minimisations  :  1868
 total energy-change (2. order) :-0.6982540E-05  (-0.2244881E-07)
 number of electron      20.0000000 magnetization 
 augmentation part       -4.4805502 magnetization 

 Broyden mixing:
  rms(total) = 0.35009E-04    rms(broyden)= 0.35009E-04
  rms(prec ) = 0.42026E-04
  weight for this iteration     100.00

 eigenvalues of (default mixing * dielectric matrix)
  average eigenvalue GAMMA=   2.5874
  7.5406  7.5406  3.8868  3.0425  2.4174  2.4174  1.9908  1.1552  1.1552  1.0855
  1.0855  0.9366  0.9366  1.0333

 Free energy of the ion-electron system (eV)
  ---------------------------------------------------
  alpha Z        PSCENC =         9.48524705
  Ewald energy   TEWEN  =      1149.51337041
  -Hartree energ DENC   =     -1772.16572165
  -exchange      EXHF   =         0.00000000
  -V(xc)+E(xc)   XCENC  =      -237.58887729
  PAW double counting   =      1139.46178980     -864.56443579
  entropy T*S    EENTRO =        -0.00000000
  eigenvalues    EBANDS =      -142.83354983
  atomic energy  EATOM  =       702.42789710
  Solvation  Ediel_sol  =         0.00000000
  ---------------------------------------------------
  free energy    TOTEN  =       -16.26428020 eV

  energy without entropy =      -16.26428020  energy(sigma->0) =      -16.26428020


--------------------------------------------------------------------------------------------------------




--------------------------------------- Iteration      1(  20)  ---------------------------------------


    POTLOK:  cpu time    0.0436: real time    0.0437
    SETDIJ:  cpu time    0.0037: real time    0.0037
     EDDAV:  cpu time    1.4055: real time    1.4081
       DOS:  cpu time    0.0025: real time    0.0025
    CHARGE:  cpu time    0.1482: real time    0.1488
    MIXING:  cpu time    0.0024: real time    0.0024
    --------------------------------------------
      LOOP:  cpu time    1.6059: real time    1.6093

 eigenvalue-minimisations  :  1580
 total energy-change (2. order) :-0.5208566E-05  (-0.2776605E-07)
 number of electron      20.0000000 magnetization 
 augmentation part       -4.4805501 magnetization 

 Broyden mixing:
  rms(total) = 0.20347E-04    rms(broyden)= 0.20347E-04
  rms(prec ) = 0.22712E-04
  weight for this iteration     100.00

 eigenvalues of (default mixing * dielectric matrix)
  average eigenvalue GAMMA=   2.5694
  7.7710  7.7710  3.9885  3.0226  2.3034  2.3034  2.2667  1.7189  1.1520  1.1520
  1.0873  1.0873  0.9196  0.9984  0.9984

 Free energy of the ion-electron system (eV)
  ---------------------------------------------------
  alpha Z        PSCENC =         9.48524705
  Ewald energy   TEWEN  =      1149.51337041
  -Hartree energ DENC   =     -1772.17000793
  -exchange      EXHF   =         0.00000000
  -V(xc)+E(xc)   XCENC  =      -237.58886719
  PAW double counting   =      1139.43827180     -864.54088997
  entropy T*S    EENTRO =        -0.00000000
  eigenvalues    EBANDS =      -142.82930668
  atomic energy  EATOM  =       702.42789710
  Solvation  Ediel_sol  =         0.00000000
  ---------------------------------------------------
  free energy    TOTEN  =       -16.26428541 eV

  energy without entropy =      -16.26428541  energy(sigma->0) =      -16.26428541


--------------------------------------------------------------------------------------------------------




--------------------------------------- Iteration      1(  21)  ---------------------------------------


    POTLOK:  cpu time    0.0438: real time    0.0439
    SETDIJ:  cpu time    0.0037: real time    0.0037
     EDDAV:  cpu time    1.5318: real time    1.5371
       DOS:  cpu time    0.0024: real time    0.0024
    --------------------------------------------
      LOOP:  cpu time    1.5817: real time    1.5871

 eigenvalue-minimisations  :  1772
 total energy-change (2. order) :-0.7256538E-06  (-0.3043649E-08)
 number of electron      20.0000000 magnetization 
 augmentation part       -4.4805501 magnetization 

 Free energy of the ion-electron system (eV)
  ---------------------------------------------------
  alpha Z        PSCENC =         9.48524705
  Ewald energy   TEWEN  =      1149.51337041
  -Hartree energ DENC   =     -1772.17135221
  -exchange      EXHF   =         0.00000000
  -V(xc)+E(xc)   XCENC  =      -237.58884704
  PAW double counting   =      1139.43327659     -864.53589555
  entropy T*S    EENTRO =        -0.00000000
  eigenvalues    EBANDS =      -142.82798249
  atomic energy  EATOM  =       702.42789710
  Solvation  Ediel_sol  =         0.00000000
  ---------------------------------------------------
  free energy    TOTEN  =       -16.26428613 eV

  energy without entropy =      -16.26428613  energy(sigma->0) =      -16.26428613


--------------------------------------------------------------------------------------------------------




 average (electrostatic) potential at core
  the test charge radii are     1.4072  1.0808
  (the norm of the test charge is              1.0000)
       1 -51.2669       2 -51.2669       3 -59.9480       4 -59.9480
 
 
 
 E-fermi :  -1.5016     XC(G=0):  -3.3362     alpha+bet : -2.6692


 k-point     1 :       0.0000    0.0000    0.0000
  band No.  band energies     occupation 
      1     -15.3117      2.00000
      2     -14.3221      2.00000
      3      -8.2673      2.00000
      4      -7.2915      2.00000
      5      -5.4191      2.00000
      6      -5.0807      2.00000
      7      -5.0216      2.00000
      8      -3.8451      2.00000
      9      -3.8369      2.00000
     10      -2.6208      2.00000
     11      -0.4729      0.00000
     12       1.3446      0.00000
     13       1.7976      0.00000
     14       1.9656      0.00000

 k-point     2 :       0.0667    0.0000    0.0000
  band No.  band energies     occupation 
      1     -15.2936      2.00000
      2     -14.3199      2.00000
      3      -8.3363      2.00000
      4      -7.3723      2.00000
      5      -5.4212      2.00000
      6      -5.0101      2.00000
      7      -4.9912      2.00000
      8      -3.8162      2.00000
      9      -3.7349      2.00000
     10      -2.6388      2.00000
     11      -0.4615      0.00000
     12       1.3947      0.00000
     13       1.6641      0.00000
     14       1.9082      0.00000

 k-point     3 :       0.1333    0.0000    0.0000
  band No.  band energies     occupation 
      1     -15.2405      2.00000
[...]
  band No.  band energies     occupation 
      1     -14.5922      2.00000
      2     -14.2873      2.00000
      3      -8.7408      2.00000
      4      -8.4885      2.00000
      5      -6.3720      2.00000
      6      -5.1839      2.00000
      7      -5.0123      2.00000
      8      -4.0696      2.00000
      9      -3.9945      2.00000
     10      -3.0766      2.00000
     11       0.1662      0.00000
     12       1.1270      0.00000
     13       1.4685      0.00000
     14       1.7466      0.00000

 k-point    47 :       0.4000    0.3333    0.0000
  band No.  band energies     occupation 
      1     -14.4997      2.00000
      2     -14.3077      2.00000
      3      -8.6501      2.00000
      4      -8.5049      2.00000
      5      -6.3980      2.00000
      6      -5.5827      2.00000
      7      -5.0023      2.00000
      8      -4.3415      2.00000
      9      -3.9534      2.00000
     10      -3.3757      2.00000
     11       0.5245      0.00000
     12       1.3262      0.00000
     13       1.5859      0.00000
     14       2.2931      0.00000

 k-point    48 :       0.4667    0.3333    0.0000
  band No.  band energies     occupation 
      1     -14.4164      2.00000
      2     -14.3508      2.00000
      3      -8.5853      2.00000
      4      -8.5385      2.00000
      5      -6.2518      2.00000
      6      -5.9637      2.00000
      7      -4.8673      2.00000
      8      -4.6307      2.00000
      9      -3.8076      2.00000
     10      -3.6128      2.00000
     11       0.8367      0.00000
     12       1.1074      0.00000
     13       2.0001      0.00000
     14       2.2929      0.00000

 k-point    49 :       0.0000    0.4000    0.0000
  band No.  band energies     occupation 
      1     -14.7364      2.00000
      2     -14.3783      2.00000
      3      -9.2328      2.00000
      4      -8.8746      2.00000
      5      -4.7879      2.00000
      6      -4.2524      2.00000
      7      -4.0641      2.00000
      8      -3.5716      2.00000
      9      -2.8480      2.00000
     10      -2.1109      2.00000
     11      -1.0199      0.00000
     12      -0.0695      0.00000
     13       0.0276      0.00000
     14       0.3363      0.00000

 k-point    50 :       0.0667    0.4000    0.0000
  band No.  band energies     occupation 
      1     -14.7242      2.00000
      2     -14.3726      2.00000
      3      -9.2061      2.00000
      4      -8.8559      2.00000
      5      -4.7828      2.00000
      6      -4.6018      2.00000
      7      -3.9557      2.00000
      8      -3.7566      2.00000
      9      -2.6695      2.00000
     10      -2.3898      2.00000
     11      -0.7744      0.00000
     12      -0.3944      0.00000
     13       0.2192      0.00000
     14       0.3671      0.00000

 k-point    51 :       0.1333    0.4000    0.0000
  band No.  band energies     occupation 
      1     -14.6890      2.00000
      2     -14.3568      2.00000
      3      -9.1274      2.00000
      4      -8.8020      2.00000
      5      -5.1301      2.00000
      6      -4.7793      2.00000
      7      -4.1591      2.00000
      8      -3.9290      2.00000
      9      -2.9529      2.00000
     10      -2.5053      2.00000
     11      -0.6373      0.00000
     12      -0.1848      0.00000
     13       0.4837      0.00000
     14       0.7752      0.00000

 k-point    52 :       0.2000    0.4000    0.0000
  band No.  band energies     occupation 
      1     -14.6342      2.00000
      2     -14.3349      2.00000
      3      -9.0019      2.00000
      4      -8.7192      2.00000
      5      -5.6416      2.00000
      6      -4.8413      2.00000
      7      -4.5683      2.00000
      8      -3.9736      2.00000
      9      -3.5076      2.00000
     10      -2.7269      2.00000
     11      -0.3620      0.00000
     12       0.5391      0.00000
     13       0.7001      0.00000
     14       1.2116      0.00000

 k-point    53 :       0.2667    0.4000    0.0000
  band No.  band energies     occupation 
      1     -14.5657      2.00000
      2     -14.3130      2.00000
      3      -8.8403      2.00000
      4      -8.6187      2.00000
      5      -6.0734      2.00000
      6      -5.1232      2.00000
      7      -4.8398      2.00000
      8      -4.1076      2.00000
      9      -3.8672      2.00000
     10      -3.0958      2.00000
     11       0.1103      0.00000
     12       1.0582      0.00000
     13       1.1504      0.00000
     14       1.5635      0.00000

 k-point    54 :       0.3333    0.4000    0.0000
  band No.  band energies     occupation 
      1     -14.4913      2.00000
      2     -14.2986      2.00000
      3      -8.6631      2.00000
      4      -8.5165      2.00000
      5      -6.3850      2.00000
      6      -5.5162      2.00000
      7      -5.0746      2.00000
      8      -4.3628      2.00000
      9      -3.9608      2.00000
     10      -3.3784      2.00000
     11       0.5124      0.00000
     12       1.3199      0.00000
     13       1.5590      0.00000
     14       2.2091      0.00000

 k-point    55 :       0.4000    0.4000    0.0000
  band No.  band energies     occupation 
      1     -14.4200      2.00000
      2     -14.2988      2.00000
      3      -8.5052      2.00000
      4      -8.4323      2.00000
      5      -6.5379      2.00000
      6      -5.9268      2.00000
      7      -5.1980      2.00000
      8      -4.6853      2.00000
      9      -3.9096      2.00000
     10      -3.5558      2.00000
     11       0.8214      0.00000
     12       1.3210      0.00000
     13       2.0708      0.00000
     14       2.6951      0.00000

 k-point    56 :       0.4667    0.4000    0.0000
  band No.  band energies     occupation 
      1     -14.3602      2.00000
      2     -14.3189      2.00000
      3      -8.4075      2.00000
      4      -8.3880      2.00000
      5      -6.5010      2.00000
      6      -6.2800      2.00000
      7      -5.1589      2.00000
      8      -4.9740      2.00000
      9      -3.8075      2.00000
     10      -3.6886      2.00000
     11       1.0623      0.00000
     12       1.2319      0.00000
     13       2.4518      0.00000
     14       2.6784      0.00000

 k-point    57 :       0.0000    0.4667    0.0000
  band No.  band energies     occupation 
      1     -14.5927      2.00000
      2     -14.4695      2.00000
      3      -9.2172      2.00000
      4      -9.0940      2.00000
      5      -4.5453      2.00000
      6      -4.3296      2.00000
      7      -3.8732      2.00000
      8      -3.6806      2.00000
      9      -2.5822      2.00000
     10      -2.2466      2.00000
     11      -0.9123      0.00000
     12      -0.4793      0.00000
     13      -0.0779      0.00000
     14       0.1196      0.00000

 k-point    58 :       0.0667    0.4667    0.0000
  band No.  band energies     occupation 
      1     -14.5827      2.00000
      2     -14.4618      2.00000
      3      -9.1897      2.00000
      4      -9.0694      2.00000
      5      -4.5598      2.00000
      6      -4.4439      2.00000
      7      -4.0186      2.00000
      8      -3.8866      2.00000
      9      -2.5009      2.00000
     10      -2.4013      2.00000
     11      -0.8164      0.00000
     12      -0.7054      0.00000
     13       0.2765      0.00000
     14       0.5806      0.00000

 k-point    59 :       0.1333    0.4667    0.0000
  band No.  band energies     occupation 
      1     -14.5540      2.00000
      2     -14.4398      2.00000
      3      -9.1085      2.00000
      4      -8.9967      2.00000
      5      -4.8534      2.00000
      6      -4.6704      2.00000
      7      -4.2521      2.00000
      8      -4.1325      2.00000
      9      -2.8610      2.00000
     10      -2.6562      2.00000
     11      -0.5656      0.00000
     12      -0.3352      0.00000
     13       0.7828      0.00000
     14       0.8760      0.00000

 k-point    60 :       0.2000    0.4667    0.0000
  band No.  band energies     occupation 
      1     -14.5103      2.00000
      2     -14.4075      2.00000
      3      -8.9773      2.00000
      4      -8.8805      2.00000
      5      -5.3622      2.00000
      6      -5.0401      2.00000
      7      -4.4438      2.00000
      8      -4.2103      2.00000
      9      -3.3672      2.00000
     10      -3.0713      2.00000
     11      -0.0436      0.00000
     12       0.3133      0.00000
     13       1.0020      0.00000
     14       1.2268      0.00000

 k-point    61 :       0.2667    0.4667    0.0000
  band No.  band energies     occupation 
      1     -14.4574      2.00000
      2     -14.3707      2.00000
      3      -8.8047      2.00000
      4      -8.7295      2.00000
      5      -5.8327      2.00000
      6      -5.4930      2.00000
      7      -4.6416      2.00000
      8      -4.3798      2.00000
      9      -3.7025      2.00000
     10      -3.4323      2.00000
     11       0.4722      0.00000
     12       0.8300      0.00000
     13       1.3963      0.00000
     14       1.6400      0.00000

 k-point    62 :       0.3333    0.4667    0.0000
  band No.  band energies     occupation 
      1     -14.4030      2.00000
      2     -14.3369      2.00000
      3      -8.6073      2.00000
      4      -8.5597      2.00000
      5      -6.2167      2.00000
      6      -5.9064      2.00000
      7      -4.9378      2.00000
      8      -4.6794      2.00000
      9      -3.8102      2.00000
     10      -3.6136      2.00000
     11       0.8214      0.00000
     12       1.0948      0.00000
     13       1.9458      0.00000
     14       2.2142      0.00000

 k-point    63 :       0.4000    0.4667    0.0000
  band No.  band energies     occupation 
      1     -14.3553      2.00000
      2     -14.3139      2.00000
      3      -8.4189      2.00000
      4      -8.3990      2.00000
      5      -6.4802      2.00000
      6      -6.2517      2.00000
      7      -5.1907      2.00000
      8      -4.9980      2.00000
      9      -3.8054      2.00000
     10      -3.6861      2.00000
     11       1.0573      0.00000
     12       1.2273      0.00000
     13       2.4366      0.00000
     14       2.6627      0.00000

 k-point    64 :       0.4667    0.4667    0.0000
  band No.  band energies     occupation 
      1     -14.3220      2.00000
      2     -14.3078      2.00000
      3      -8.2966      2.00000
      4      -8.2933      2.00000
      5      -6.5825      2.00000
      6      -6.4960      2.00000
      7      -5.2953      2.00000
      8      -5.2237      2.00000
      9      -3.7686      2.00000
     10      -3.7284      2.00000
     11       1.2094      0.00000
     12       1.2671      0.00000
     13       2.6823      0.00000
     14       2.7965      0.00000


--------------------------------------------------------------------------------------------------------


 soft charge-density along one line, spin component           1
         0         1         2         3         4         5         6         7         8         9
 total charge-density along one line
 
 pseudopotential strength for first ion, spin component:           1
 30.089 -23.438   0.000  -0.089   0.036   0.000  -0.141   0.056
-23.438  28.119  -0.000   0.051  -0.020  -0.000   0.082  -0.032
  0.000  -0.000   6.332   0.000  -0.000   9.797   0.000  -0.000
 -0.089   0.051   0.000   6.330   0.002   0.000   9.792   0.003
  0.036  -0.020  -0.000   0.002   6.332  -0.000   0.003   9.796
  0.000  -0.000   9.797   0.000  -0.000  15.227   0.000  -0.000
 -0.141   0.082   0.000   9.792   0.003   0.000  15.220   0.004
  0.056  -0.032  -0.000   0.003   9.796  -0.000   0.004  15.225
 -0.000   0.000   0.007   0.000   0.000   0.011   0.000   0.000
  0.000  -0.000  -0.020   0.000   0.000  -0.031   0.000   0.000
 -0.003   0.004  -0.000  -0.023  -0.004  -0.000  -0.035  -0.007
  0.003  -0.002   0.000   0.008  -0.020   0.000   0.013  -0.031
 -0.000   0.000  -0.000  -0.000   0.009  -0.000  -0.000   0.013
 total augmentation occupancy for first ion, spin component:           1
  2.025  -0.015  -0.000   0.238  -0.090   0.000  -0.043   0.017  -0.000   0.000   0.022   0.002  -0.000
 -0.015   0.009   0.000  -0.073   0.028  -0.000   0.018  -0.007  -0.000   0.000  -0.002   0.001  -0.000
  0.000   0.000   1.507   0.000  -0.000  -0.405   0.000   0.000   0.127  -0.043  -0.000   0.000   0.000
  0.238  -0.073   0.000   1.841   0.001   0.000  -0.486  -0.015  -0.000   0.000  -0.267  -0.019  -0.001
 -0.090   0.028  -0.000   0.001   1.490   0.000  -0.015  -0.394  -0.000   0.000  -0.081  -0.045  -0.006
 -0.000   0.000  -0.405  -0.000   0.000   0.118  -0.000  -0.000  -0.034   0.012  -0.000   0.000   0.000
 -0.043   0.018   0.000  -0.486  -0.015  -0.000   0.140   0.007   0.000  -0.000   0.074   0.005   0.000
  0.017  -0.007   0.000  -0.015  -0.394   0.000   0.007   0.113   0.000   0.000   0.022   0.012   0.002
  0.000  -0.000   0.127   0.000  -0.000  -0.034   0.000   0.000   0.076   0.000   0.000  -0.000   0.000
 -0.000  -0.000  -0.043   0.000   0.000   0.012   0.000   0.000   0.000   0.021   0.000   0.000   0.000
  0.022  -0.002  -0.000  -0.267  -0.081  -0.000   0.074   0.022  -0.000   0.000   0.077   0.006   0.002
  0.002   0.001   0.000  -0.019  -0.045   0.000   0.005   0.012   0.000   0.000   0.006   0.022   0.001
 -0.000  -0.000  -0.000  -0.001  -0.006   0.000   0.000   0.002  -0.000   0.000   0.002   0.001   0.017


------------------------ aborting loop because EDIFF is reached ----------------------------------------


    CHARGE:  cpu time    0.1269: real time    0.1271
    FORLOC:  cpu time    0.0023: real time    0.0023
    FORNL :  cpu time    0.2008: real time    0.2010
    STRESS:  cpu time    0.3739: real time    0.3743
    FORCOR:  cpu time    0.0411: real time    0.0412
    FORHAR:  cpu time    0.0106: real time    0.0106
    MIXING:  cpu time    0.0009: real time    0.0009
    OFIELD:  cpu time    0.0000: real time    0.0000

  FORCE on cell =-STRESS in cart. coord.  units (eV):
  Direction    XX          YY          ZZ          XY          YZ          ZX
  --------------------------------------------------------------------------------------
  Alpha Z     9.48525     9.48525     9.48525
  Ewald    1602.65227  1607.33117 -2060.13792     0.00000     0.00000     0.00000
  Hartree  1723.86752  1725.63455 -1677.05849    -0.00000    -0.00000     0.00000
  E(xc)     -77.65601   -77.67058   -78.87723     0.00000     0.00000     0.00000
  Local   -3579.24102 -3585.09044  3482.39216     0.00000    -0.00000     0.00000
  n-local   162.49386   162.68886   167.19927    -0.38784     0.00000     0.00000
  augment   -31.87663   -31.81759   -32.80221     0.00000    -0.00000     0.00000
  Kinetic   190.21790   189.39700   189.79777     5.50157    -0.00000    -0.00000
  Fock        0.00000     0.00000     0.00000     0.00000     0.00000     0.00000
  -------------------------------------------------------------------------------------
  Total      -0.05687    -0.04178    -0.00140     0.00000     0.00000     0.00000
  in kB      -0.24171    -0.17755    -0.00596     0.00000     0.00000     0.00000
  external pressure =       -0.14 kB  Pullay stress =        0.00 kB


 VOLUME and BASIS-vectors are now :
 -----------------------------------------------------------------------------
  energy-cutoff  :      600.00
  volume of cell :      376.98
      direct lattice vectors                 reciprocal lattice vectors
     4.391121478  0.000000000  0.000000000     0.227732256  0.000000000  0.000000000
     0.000000000  4.292477857  0.000000000     0.000000000  0.232965675  0.000000000
     0.000000000  0.000000000 20.000000000     0.000000000  0.000000000  0.050000000

  length of vectors
     4.391121478  4.292477857 20.000000000     0.227732256  0.232965675  0.050000000


 FORCES acting on ions
    electron-ion (+dipol)            ewald-force                    non-local-force                 convergence-correction
 -----------------------------------------------------------------------------------------------
   0.438E+01 0.149E-13 -.144E+03   -.591E+01 0.297E-16 0.148E+03   0.154E+01 -.278E-16 -.381E+01   -.779E-05 0.275E-13 0.435E-03
   0.438E+01 0.199E-13 0.144E+03   -.591E+01 -.184E-14 -.148E+03   0.154E+01 -.278E-16 0.381E+01   -.779E-05 -.192E-13 -.435E-03
   -.545E+01 0.621E-14 -.206E+03   0.591E+01 0.178E-14 0.208E+03   -.460E+00 0.000E+00 -.204E+01   -.117E-03 -.471E-13 0.962E-03
   -.545E+01 -.205E-12 0.206E+03   0.591E+01 0.190E-14 -.208E+03   -.460E+00 0.000E+00 0.204E+01   -.117E-03 0.683E-13 -.962E-03
 -----------------------------------------------------------------------------------------------
   -.215E+01 -.164E-12 -.876E-06   0.178E-14 0.188E-14 0.284E-13   0.215E+01 -.555E-16 0.000E+00   -.249E-03 0.296E-13 0.360E-10
 
 
 POSITION                                       TOTAL-FORCE (eV/Angst)
 -----------------------------------------------------------------------------------
      2.55582      3.21936     11.37439         0.000033      0.000000      0.000834
      0.36026      1.07312      8.62561         0.000033      0.000000     -0.000834
      0.14079      1.07312     11.34121        -0.000033     -0.000000     -0.000768
      2.33635      3.21936      8.65879        -0.000033     -0.000000      0.000768
 -----------------------------------------------------------------------------------
    total drift:                               -0.000361     -0.000000     -0.000001


--------------------------------------------------------------------------------------------------------



  FREE ENERGIE OF THE ION-ELECTRON SYSTEM (eV)
  ---------------------------------------------------
  free  energy   TOTEN  =       -16.26433902 eV

  energy  without entropy=      -16.26433902  energy(sigma->0) =      -16.26433902
 
 d Force = 0.5083742E-06[ 0.417E-06, 0.599E-06]  d Energy = 0.5039906E-06 0.438E-08
 d Force = 0.1013523E-01[ 0.101E-01, 0.101E-01]  d Ewald  = 0.1013523E-01-0.307E-10


--------------------------------------------------------------------------------------------------------


    POTLOK:  cpu time    0.0430: real time    0.0430


--------------------------------------------------------------------------------------------------------


 Conjugate gradient step on ions:
 trial-energy change:   -0.000001  1 .order   -0.000001   -0.000001   -0.000000
  (g-gl).g =-0.103E-06      g.g   = 0.237E-06  gl.gl    = 0.748E-05
 g(Force)  = 0.237E-06   g(Stress)= 0.000E+00 ortho     = 0.175E-07
 gamma     =  -0.01383
 trial     =   2.52665
 opt step  =   8.32938  (harmonic =   8.32938) maximal distance =0.00054441
 next E    =   -16.264340   (d E  =  -0.00000)


--------------------------------------------------------------------------------------------------------


  
 reached required accuracy - stopping structural energy minimisation
 writing wavefunctions
     LOOP+:  cpu time    4.1980: real time    4.3962
    4ORBIT:  cpu time    0.0000: real time    0.0000

 total amount of memory used by VASP MPI-rank0    52101. kBytes
=======================================================================

   base      :      30000. kBytes
   nonl-proj :       7182. kBytes
   fftplans  :       2678. kBytes
   grid      :       4349. kBytes
   one-center:          8. kBytes
   wavefun   :       7884. kBytes
 
  
  
 General timing and accounting informations for this job:
 ========================================================
  
                  Total CPU time used (sec):      101.632
                            User time (sec):      100.539
                          System time (sec):        1.093
                         Elapsed time (sec):      109.414
  
                   Maximum memory used (kb):      198328.
                   Average memory used (kb):           0.
  
                          Minor page faults:       110022
                          Major page faults:          725
                 Voluntary context switches:         8478
