 vasp.5.4.4.18Apr17-6-g9f103f2a35 (build Sep 16 2021 13:51:27) complex          
  
 executed on             LinuxIFC date 2023.03.16  13:02:09
 running on   24 total cores
 distrk:  each k-point on   24 cores,    1 groups
 distr:  one band on NCORES_PER_BAND=  24 cores,    1 groups


--------------------------------------------------------------------------------------------------------


 INCAR:
 POTCAR:    PAW_PBE Sn 08Apr2002                  
 POTCAR:    PAW_PBE Se 06Sep2000                  

 ----------------------------------------------------------------------------- 
|                                                                             |
|           W    W    AA    RRRRR   N    N  II  N    N   GGGG   !!!           |
|           W    W   A  A   R    R  NN   N  II  NN   N  G    G  !!!           |
|           W    W  A    A  R    R  N N  N  II  N N  N  G       !!!           |
|           W WW W  AAAAAA  RRRRR   N  N N  II  N  N N  G  GGG   !            |
|           WW  WW  A    A  R   R   N   NN  II  N   NN  G    G                |
|           W    W  A    A  R    R  N    N  II  N    N   GGGG   !!!           |
|                                                                             |
|      For optimal performance we recommend to set                            |
|        NCORE= 4 - approx SQRT( number of cores)                             |
|      NCORE specifies how many cores store one orbital (NPAR=cpu/NCORE).     |
|      This setting can  greatly improve the performance of VASP for DFT.     |
|      The default,   NCORE=1            might be grossly inefficient         |
|      on modern multi-core architectures or massively parallel machines.     |
|      Do your own testing !!!!                                               |
|      Unfortunately you need to use the default for GW and RPA calculations. |
|      (for HF NCORE is supported but not extensively tested yet)             |
|                                                                             |
 ----------------------------------------------------------------------------- 

 POTCAR:    PAW_PBE Sn 08Apr2002                  
   VRHFIN =Sn: s2p2                                                             
   LEXCH  = PE                                                                  
   EATOM  =    94.0860 eV,    6.9151 Ry                                         
                                                                                
   TITEL  = PAW_PBE Sn 08Apr2002                                                
   LULTRA =        F    use ultrasoft PP ?                                      
   IUNSCR =        1    unscreen: 0-lin 1-nonlin 2-no                           
   RPACOR =    2.000    partial core radius                                     
   POMASS =  118.710; ZVAL   =    4.000    mass and valenz                      
   RCORE  =    3.000    outmost cutoff radius                                   
   RWIGS  =    2.960; RWIGS  =    1.566    wigner-seitz radius (au A)           
   ENMAX  =  103.236; ENMIN  =   77.427 eV                                      
   ICORE  =        3    local potential                                         
   LCOR   =        T    correct aug charges                                     
   LPAW   =        T    paw PP                                                  
   EAUG   =  263.585                                                            
   DEXC   =    0.000                                                            
   RMAX   =    3.078    core radius for proj-oper                               
   RAUG   =    1.300    factor for augmentation sphere                          
   RDEP   =    3.022    radius for radial grids                                 
   RDEPT  =    2.655    core radius for aug-charge                              
                                                                                
   Atomic configuration                                                         
   13 entries                                                                   
     n  l   j            E        occ.                                          
     1  0  0.50    -29007.2859   2.0000                                         
     2  0  0.50     -4378.8056   2.0000                                         
     2  1  1.50     -3930.4293   6.0000                                         
     3  0  0.50      -845.0264   2.0000                                         
     3  1  1.50      -698.5725   6.0000                                         
     3  2  2.50      -473.2839  10.0000                                         
     4  0  0.50      -133.9036   2.0000                                         
     4  1  1.50       -89.6752   6.0000                                         
     4  2  2.50       -25.8375  10.0000                                         
     5  0  0.50       -10.5484   2.0000                                         
     5  1  0.50        -3.6940   2.0000                                         
     5  2  1.50        -1.3606   0.0000                                         
     4  3  2.50        -4.0817   0.0000                                         
   Description                                                                  
     l       E           TYP  RCUT    TYP  RCUT                                 
     0    -10.5483727     23  3.000                                             
     0     27.2116520     23  3.000                                             
     1     -3.6939829     23  3.000                                             
     1      1.9821976     23  3.000                                             
     2     -1.3605826     23  3.000                                             
     3     -2.7211652     23  3.000                                             
  local pseudopotential read in
  partial core-charges read in
  partial kinetic energy density read in
  atomic valenz-charges read in
  non local Contribution for L=           0  read in
    real space projection operators read in
  non local Contribution for L=           0  read in
    real space projection operators read in
  non local Contribution for L=           1  read in
    real space projection operators read in
  non local Contribution for L=           1  read in
    real space projection operators read in
  non local Contribution for L=           2  read in
    real space projection operators read in
    PAW grid and wavefunctions read in
 
   number of l-projection  operators is LMAX  =           5
   number of lm-projection operators is LMMAX =          13
 
 POTCAR:    PAW_PBE Se 06Sep2000                  
   VRHFIN =Se: s2p4                                                             
   LEXCH  = PE                                                                  
   EATOM  =   257.1286 eV,   18.8984 Ry                                         
                                                                                
   TITEL  = PAW_PBE Se 06Sep2000                                                
   LULTRA =        F    use ultrasoft PP ?                                      
   IUNSCR =        1    unscreen: 0-lin 1-nonlin 2-no                           
   RPACOR =    1.900    partial core radius                                     
   POMASS =   78.960; ZVAL   =    6.000    mass and valenz                      
   RCORE  =    2.100    outmost cutoff radius                                   
   RWIGS  =    2.200; RWIGS  =    1.164    wigner-seitz radius (au A)           
   ENMAX  =  211.555; ENMIN  =  158.666 eV                                      
   ICORE  =        3    local potential                                         
   LCOR   =        T    correct aug charges                                     
   LPAW   =        T    paw PP                                                  
   EAUG   =  446.842                                                            
   DEXC   =    0.000                                                            
   RMAX   =    2.147    core radius for proj-oper                               
   RAUG   =    1.300    factor for augmentation sphere                          
   RDEP   =    2.177    radius for radial grids                                 
   RDEPT  =    1.928    core radius for aug-charge                              
                                                                                
   Atomic configuration                                                         
   10 entries                                                                   
     n  l   j            E        occ.                                          
     1  0  0.50    -12503.4787   2.0000                                         
     2  0  0.50     -1606.9547   2.0000                                         
     2  1  1.50     -1413.3140   6.0000                                         
     3  0  0.50      -213.4885   2.0000                                         
     3  1  1.50      -152.9538   6.0000                                         
     3  2  2.50       -53.1221  10.0000                                         
     4  0  0.50       -17.2865   2.0000                                         
     4  1  0.50        -6.5110   4.0000                                         
     4  2  2.50        -6.8029   0.0000                                         
     4  3  2.50        -6.8029   0.0000                                         
   Description                                                                  
     l       E           TYP  RCUT    TYP  RCUT                                 
     0    -17.2865377     23  2.100                                             
     0    -15.3094411     23  2.100                                             
     1     -6.5110275     23  2.100                                             
     1     -0.0695192     23  2.100                                             
     2     -6.8029130     23  2.100                                             
     3     -1.3605826      7  2.100                                             
  local pseudopotential read in
  partial core-charges read in
  partial kinetic energy density read in
  atomic valenz-charges read in
  non local Contribution for L=           0  read in
    real space projection operators read in
  non local Contribution for L=           0  read in
    real space projection operators read in
  non local Contribution for L=           1  read in
    real space projection operators read in
  non local Contribution for L=           1  read in
    real space projection operators read in
  non local Contribution for L=           2  read in
    real space projection operators read in
    PAW grid and wavefunctions read in
 
   number of l-projection  operators is LMAX  =           5
   number of lm-projection operators is LMMAX =          13
 
 WARNING: PSMAXN for non-local potential too small
          PSMAXN should be >   12.5490833729506       NTYP=           1
  PAW_PBE Sn 08Apr2002                  :
 energy of atom  1       EATOM=  -94.0860
 kinetic energy error for atom=    0.0000 (will be added to EATOM!!)
  PAW_PBE Se 06Sep2000                  :
 energy of atom  2       EATOM= -257.1286
 kinetic energy error for atom=    0.0006 (will be added to EATOM!!)
 
 
 POSCAR:  POSCAR with strain of 0.010            
  positions in direct lattice
  No initial velocities read in
 exchange correlation table for  LEXCH =        8
   RHO(1)=    0.500       N(1)  =     2000
   RHO(2)=  100.500       N(2)  =     4000
 


--------------------------------------------------------------------------------------------------------


 ion  position               nearest neighbor table
   1  0.581  0.750  0.569-   4 2.75   3 2.91   3 2.93   3 3.21   3 3.24
   2  0.081  0.250  0.431-   3 2.75   4 2.91   4 2.93   4 3.21   4 3.24
   3  0.033  0.250  0.567-   2 2.75   1 2.91   1 2.93   1 3.21   1 3.24
   4  0.533  0.750  0.433-   1 2.75   2 2.91   2 2.93   2 3.21   2 3.24
 

IMPORTANT INFORMATION: All symmetrisations will be switched off!
NOSYMM: (Re-)initialisation of all symmetry stuff for point group C_1.

 
 
 KPOINTS: KMesh Grid                              

Automatic generation of k-mesh.
Space group operators:
 irot       det(A)        alpha          n_x          n_y          n_z        tau_x        tau_y        tau_z
    1     1.000000     0.000001     1.000000     0.000000     0.000000     0.000000     0.000000     0.000000
 
 Subroutine IBZKPT returns following result:
 ===========================================
 
 Found    113 irreducible k-points:
 
 Following reciprocal coordinates:
            Coordinates               Weight
  0.000000  0.000000  0.000000      1.000000
  0.066667 -0.000000  0.000000      2.000000
  0.133333  0.000000 -0.000000      2.000000
  0.200000  0.000000 -0.000000      2.000000
  0.266667  0.000000 -0.000000      2.000000
  0.333333  0.000000 -0.000000      2.000000
  0.400000  0.000000 -0.000000      2.000000
  0.466667 -0.000000 -0.000000      2.000000
  0.000000  0.066667  0.000000      2.000000
  0.066667  0.066667  0.000000      2.000000
  0.133333  0.066667  0.000000      2.000000
  0.200000  0.066667 -0.000000      2.000000
  0.266667  0.066667  0.000000      2.000000
  0.333333  0.066667 -0.000000      2.000000
  0.400000  0.066667 -0.000000      2.000000
  0.466667  0.066667 -0.000000      2.000000
 -0.466667  0.066667 -0.000000      2.000000
 -0.400000  0.066667  0.000000      2.000000
 -0.333333  0.066667 -0.000000      2.000000
 -0.266667  0.066667  0.000000      2.000000
 -0.200000  0.066667  0.000000      2.000000
 -0.133333  0.066667  0.000000      2.000000
 -0.066667  0.066667  0.000000      2.000000
  0.000000  0.133333  0.000000      2.000000
  0.066667  0.133333  0.000000      2.000000
  0.133333  0.133333  0.000000      2.000000
  0.200000  0.133333  0.000000      2.000000
  0.266667  0.133333  0.000000      2.000000
  0.333333  0.133333  0.000000      2.000000
  0.400000  0.133333 -0.000000      2.000000
  0.466667  0.133333  0.000000      2.000000
 -0.466667  0.133333  0.000000      2.000000
 -0.400000  0.133333  0.000000      2.000000
 -0.333333  0.133333  0.000000      2.000000
 -0.266667  0.133333  0.000000      2.000000
 -0.200000  0.133333  0.000000      2.000000
 -0.133333  0.133333  0.000000      2.000000
 -0.066667  0.133333  0.000000      2.000000
 -0.000000  0.200000  0.000000      2.000000
  0.066667  0.200000  0.000000      2.000000
  0.133333  0.200000 -0.000000      2.000000
  0.200000  0.200000 -0.000000      2.000000
  0.266667  0.200000  0.000000      2.000000
  0.333333  0.200000 -0.000000      2.000000
  0.400000  0.200000  0.000000      2.000000
  0.466667  0.200000  0.000000      2.000000
 -0.466667  0.200000  0.000000      2.000000
 -0.400000  0.200000  0.000000      2.000000
 -0.333333  0.200000  0.000000      2.000000
 -0.266667  0.200000 -0.000000      2.000000
 -0.200000  0.200000  0.000000      2.000000
 -0.133333  0.200000  0.000000      2.000000
 -0.066667  0.200000 -0.000000      2.000000
 -0.000000  0.266667  0.000000      2.000000
  0.066667  0.266667  0.000000      2.000000
  0.133333  0.266667  0.000000      2.000000
  0.200000  0.266667  0.000000      2.000000
  0.266667  0.266667  0.000000      2.000000
  0.333333  0.266667  0.000000      2.000000
  0.400000  0.266667  0.000000      2.000000
  0.466667  0.266667  0.000000      2.000000
 -0.466667  0.266667  0.000000      2.000000
 -0.400000  0.266667  0.000000      2.000000
 -0.333333  0.266667  0.000000      2.000000
 -0.266667  0.266667  0.000000      2.000000
 -0.200000  0.266667  0.000000      2.000000
 -0.133333  0.266667  0.000000      2.000000
 -0.066667  0.266667  0.000000      2.000000
  0.000000  0.333333  0.000000      2.000000
  0.066667  0.333333  0.000000      2.000000
  0.133333  0.333333  0.000000      2.000000
  0.200000  0.333333  0.000000      2.000000
  0.266667  0.333333  0.000000      2.000000
  0.333333  0.333333  0.000000      2.000000
  0.400000  0.333333  0.000000      2.000000
  0.466667  0.333333  0.000000      2.000000
 -0.466667  0.333333  0.000000      2.000000
 -0.400000  0.333333  0.000000      2.000000
 -0.333333  0.333333  0.000000      2.000000
 -0.266667  0.333333  0.000000      2.000000
 -0.200000  0.333333  0.000000      2.000000
 -0.133333  0.333333  0.000000      2.000000
 -0.066667  0.333333  0.000000      2.000000
 -0.000000  0.400000  0.000000      2.000000
  0.066667  0.400000  0.000000      2.000000
  0.133333  0.400000  0.000000      2.000000
  0.200000  0.400000 -0.000000      2.000000
  0.266667  0.400000  0.000000      2.000000
  0.333333  0.400000  0.000000      2.000000
  0.400000  0.400000 -0.000000      2.000000
  0.466667  0.400000 -0.000000      2.000000
 -0.466667  0.400000  0.000000      2.000000
 -0.400000  0.400000  0.000000      2.000000
 -0.333333  0.400000  0.000000      2.000000
 -0.266667  0.400000  0.000000      2.000000
 -0.200000  0.400000  0.000000      2.000000
 -0.133333  0.400000  0.000000      2.000000
 -0.066667  0.400000  0.000000      2.000000
 -0.000000  0.466667  0.000000      2.000000
  0.066667  0.466667  0.000000      2.000000
  0.133333  0.466667  0.000000      2.000000
  0.200000  0.466667  0.000000      2.000000
  0.266667  0.466667  0.000000      2.000000
  0.333333  0.466667  0.000000      2.000000
  0.400000  0.466667 -0.000000      2.000000
  0.466667  0.466667 -0.000000      2.000000
 -0.466667  0.466667  0.000000      2.000000
 -0.400000  0.466667  0.000000      2.000000
 -0.333333  0.466667  0.000000      2.000000
 -0.266667  0.466667 -0.000000      2.000000
 -0.200000  0.466667  0.000000      2.000000
 -0.133333  0.466667  0.000000      2.000000
 -0.066667  0.466667  0.000000      2.000000
 
 Following cartesian coordinates:
            Coordinates               Weight
  0.000000  0.000000  0.000000      1.000000
  0.015213 -0.000076 -0.000075      2.000000
  0.030427 -0.000151 -0.000150      2.000000
  0.045640 -0.000227 -0.000225      2.000000
  0.060853 -0.000303 -0.000300      2.000000
  0.076066 -0.000378 -0.000375      2.000000
  0.091280 -0.000454 -0.000450      2.000000
  0.106493 -0.000530 -0.000525      2.000000
 -0.000077  0.015532 -0.000077      2.000000
  0.015136  0.015456 -0.000151      2.000000
  0.030349  0.015380 -0.000226      2.000000
  0.045563  0.015305 -0.000301      2.000000
  0.060776  0.015229 -0.000376      2.000000
  0.075989  0.015153 -0.000451      2.000000
  0.091202  0.015078 -0.000526      2.000000
  0.106416  0.015002 -0.000601      2.000000
 -0.106570  0.016062  0.000448      2.000000
 -0.091357  0.015986  0.000373      2.000000
 -0.076144  0.015910  0.000298      2.000000
 -0.060930  0.015835  0.000223      2.000000
 -0.045717  0.015759  0.000148      2.000000
 -0.030504  0.015683  0.000073      2.000000
 -0.015291  0.015608 -0.000002      2.000000
 -0.000155  0.031064 -0.000153      2.000000
  0.015059  0.030988 -0.000228      2.000000
  0.030272  0.030912 -0.000303      2.000000
  0.045485  0.030837 -0.000378      2.000000
  0.060699  0.030761 -0.000453      2.000000
  0.075912  0.030685 -0.000528      2.000000
  0.091125  0.030609 -0.000603      2.000000
  0.106338  0.030534 -0.000678      2.000000
 -0.106647  0.031593  0.000372      2.000000
 -0.091434  0.031518  0.000297      2.000000
 -0.076221  0.031442  0.000222      2.000000
 -0.061008  0.031366  0.000147      2.000000
 -0.045794  0.031291  0.000072      2.000000
 -0.030581  0.031215 -0.000003      2.000000
 -0.015368  0.031139 -0.000078      2.000000
 -0.000232  0.046595 -0.000230      2.000000
  0.014981  0.046520 -0.000304      2.000000
  0.030195  0.046444 -0.000379      2.000000
  0.045408  0.046368 -0.000454      2.000000
  0.060621  0.046293 -0.000529      2.000000
  0.075835  0.046217 -0.000604      2.000000
  0.091048  0.046141 -0.000679      2.000000
  0.106261  0.046066 -0.000754      2.000000
 -0.106725  0.047125  0.000295      2.000000
 -0.091511  0.047050  0.000220      2.000000
 -0.076298  0.046974  0.000145      2.000000
 -0.061085  0.046898  0.000070      2.000000
 -0.045872  0.046823 -0.000005      2.000000
 -0.030658  0.046747 -0.000080      2.000000
 -0.015445  0.046671 -0.000155      2.000000
 -0.000309  0.062127 -0.000306      2.000000
  0.014904  0.062052 -0.000381      2.000000
  0.030117  0.061976 -0.000456      2.000000
  0.045331  0.061900 -0.000531      2.000000
  0.060544  0.061824 -0.000606      2.000000
  0.075757  0.061749 -0.000681      2.000000
  0.090971  0.061673 -0.000756      2.000000
  0.106184  0.061597 -0.000831      2.000000
 -0.106802  0.062657  0.000219      2.000000
 -0.091589  0.062581  0.000144      2.000000
 -0.076375  0.062506  0.000069      2.000000
 -0.061162  0.062430 -0.000006      2.000000
 -0.045949  0.062354 -0.000081      2.000000
 -0.030736  0.062279 -0.000156      2.000000
 -0.015522  0.062203 -0.000231      2.000000
 -0.000386  0.077659 -0.000383      2.000000
  0.014827  0.077583 -0.000457      2.000000
  0.030040  0.077508 -0.000532      2.000000
  0.045253  0.077432 -0.000607      2.000000
  0.060467  0.077356 -0.000682      2.000000
  0.075680  0.077281 -0.000757      2.000000
  0.090893  0.077205 -0.000832      2.000000
  0.106106  0.077129 -0.000907      2.000000
 -0.106879  0.078189  0.000142      2.000000
 -0.091666  0.078113  0.000067      2.000000
 -0.076453  0.078038 -0.000008      2.000000
 -0.061239  0.077962 -0.000083      2.000000
 -0.046026  0.077886 -0.000158      2.000000
 -0.030813  0.077810 -0.000233      2.000000
 -0.015600  0.077735 -0.000308      2.000000
 -0.000464  0.093191 -0.000459      2.000000
  0.014750  0.093115 -0.000534      2.000000
  0.029963  0.093040 -0.000609      2.000000
  0.045176  0.092964 -0.000684      2.000000
  0.060389  0.092888 -0.000759      2.000000
  0.075603  0.092812 -0.000834      2.000000
  0.090816  0.092737 -0.000909      2.000000
  0.106029  0.092661 -0.000984      2.000000
 -0.106957  0.093721  0.000066      2.000000
 -0.091743  0.093645 -0.000009      2.000000
 -0.076530  0.093569 -0.000084      2.000000
 -0.061317  0.093494 -0.000159      2.000000
 -0.046103  0.093418 -0.000234      2.000000
 -0.030890  0.093342 -0.000309      2.000000
 -0.015677  0.093267 -0.000384      2.000000
 -0.000541  0.108723 -0.000536      2.000000
  0.014672  0.108647 -0.000610      2.000000
  0.029886  0.108571 -0.000685      2.000000
  0.045099  0.108496 -0.000760      2.000000
  0.060312  0.108420 -0.000835      2.000000
  0.075525  0.108344 -0.000910      2.000000
  0.090739  0.108269 -0.000985      2.000000
  0.105952  0.108193 -0.001060      2.000000
 -0.107034  0.109253 -0.000011      2.000000
 -0.091821  0.109177 -0.000086      2.000000
 -0.076607  0.109101 -0.000161      2.000000
 -0.061394  0.109025 -0.000236      2.000000
 -0.046181  0.108950 -0.000311      2.000000
 -0.030967  0.108874 -0.000386      2.000000
 -0.015754  0.108798 -0.000461      2.000000
 


--------------------------------------------------------------------------------------------------------




 Dimension of arrays:
   k-points           NKPTS =    113   k-points in BZ     NKDIM =    113   number of bands    NBANDS=     14
   number of dos      NEDOS =    301   number of ions     NIONS =      4
   non local maximal  LDIM  =      5   non local SUM 2l+1 LMDIM =     13
   total plane-waves  NPLWV = 209952
   max r-space proj   IRMAX =      1   max aug-charges    IRDMAX=  53382
   dimension x,y,z NGX =    36 NGY =   36 NGZ =  162
   dimension x,y,z NGXF=    72 NGYF=   72 NGZF=  324
   support grid    NGXF=    72 NGYF=   72 NGZF=  324
   ions per type =               2   2
   NGX,Y,Z   is equivalent  to a cutoff of  13.66, 13.94, 13.33 a.u.
   NGXF,Y,Z  is equivalent  to a cutoff of  27.31, 27.88, 26.66 a.u.

 SYSTEM =  SnSe                                    
 POSCAR =   POSCAR with strain of 0.010            

 Startparameter for this run:
   NWRITE =      2    write-flag & timer
   PREC   = accura    normal or accurate (medium, high low for compatibility)
   ISTART =      0    job   : 0-new  1-cont  2-samecut
   ICHARG =      2    charge: 1-file 2-atom 10-const
   ISPIN  =      1    spin polarized calculation?
   LNONCOLLINEAR =      F non collinear calculations
   LSORBIT =      F    spin-orbit coupling
   INIWAV =      1    electr: 0-lowe 1-rand  2-diag
   LASPH  =      F    aspherical Exc in radial PAW
   METAGGA=      F    non-selfconsistent MetaGGA calc.

 Electronic Relaxation 1
   ENCUT  =  600.0 eV  44.10 Ry    6.64 a.u.   8.75  8.57 40.35*2*pi/ulx,y,z
   ENINI  =  600.0     initial cutoff
   ENAUG  =  446.8 eV  augmentation charge cutoff
   NELM   =     60;   NELMIN=  2; NELMDL= -5     # of ELM steps 
   EDIFF  = 0.1E-05   stopping-criterion for ELM
   LREAL  =      F    real-space projection
   NLSPLINE    = F    spline interpolate recip. space projectors
   LCOMPAT=      F    compatible to vasp.4.4
   GGA_COMPAT  = T    GGA compatible to vasp.4.4-vasp.4.6
   LMAXPAW     = -100 max onsite density
   LMAXMIX     =    2 max onsite mixed and CHGCAR
   VOSKOWN=      0    Vosko Wilk Nusair interpolation
   ROPT   =    0.00000   0.00000
 Ionic relaxation
   EDIFFG = -.1E-02   stopping-criterion for IOM
   NSW    =    100    number of steps for IOM
   NBLOCK =      1;   KBLOCK =    100    inner block; outer block 
   IBRION =      2    ionic relax: 0-MD 1-quasi-New 2-CG
   NFREE  =      1    steps in history (QN), initial steepest desc. (CG)
   ISIF   =      2    stress and relaxation
   IWAVPR =     11    prediction:  0-non 1-charg 2-wave 3-comb
   ISYM   =      0    0-nonsym 1-usesym 2-fastsym
   LCORR  =      T    Harris-Foulkes like correction to forces

   POTIM  = 0.5000    time-step for ionic-motion
   TEIN   =    0.0    initial temperature
   TEBEG  =    0.0;   TEEND  =   0.0 temperature during run
   SMASS  =  -3.00    Nose mass-parameter (am)
   estimated Nose-frequenzy (Omega)   =  0.10E-29 period in steps =****** mass=  -0.439E-27a.u.
   SCALEE = 1.0000    scale energy and forces
   NPACO  =    256;   APACO  = 16.0  distance and # of slots for P.C.
   PSTRESS=    0.0 pullay stress

  Mass of Ions in am
   POMASS = 118.71 78.96
  Ionic Valenz
   ZVAL   =   4.00  6.00
  Atomic Wigner-Seitz radii
   RWIGS  =  -1.00 -1.00
  virtual crystal weights 
   VCA    =   1.00  1.00
   NELECT =      20.0000    total number of electrons
   NUPDOWN=      -1.0000    fix difference up-down

 DOS related values:
   EMIN   =  10.00;   EMAX   =-10.00  energy-range for DOS
   EFERMI =   0.00
   ISMEAR =     0;   SIGMA  =   0.10  broadening in eV -4-tet -1-fermi 0-gaus

 Electronic relaxation 2 (details)
   IALGO  =     38    algorithm
   LDIAG  =      T    sub-space diagonalisation (order eigenvalues)
   LSUBROT=      F    optimize rotation matrix (better conditioning)
   TURBO    =      0    0=normal 1=particle mesh
   IRESTART =      0    0=no restart 2=restart with 2 vectors
   NREBOOT  =      0    no. of reboots
   NMIN     =      0    reboot dimension
   EREF     =   0.00    reference energy to select bands
   IMIX   =      4    mixing-type and parameters
     AMIX     =   0.40;   BMIX     =  1.00
     AMIX_MAG =   1.60;   BMIX_MAG =  1.00
     AMIN     =   0.10
     WC   =   100.;   INIMIX=   1;  MIXPRE=   1;  MAXMIX= -45

 Intra band minimization:
   WEIMIN = 0.0010     energy-eigenvalue tresh-hold
   EBREAK =  0.18E-07  absolut break condition
   DEPER  =   0.30     relativ break condition  

   TIME   =   0.40     timestep for ELM

  volume/ion in A,a.u.               =      94.99       641.02
  Fermi-wavevector in a.u.,A,eV,Ry     =   0.613536  1.159414  5.121588  0.376426
  Thomas-Fermi vector in A             =   1.670221
 
 Write flags
   LWAVE        =      T    write WAVECAR
   LDOWNSAMPLE  =      F    k-point downsampling of WAVECAR
   LCHARG       =      T    write CHGCAR
   LVTOT        =      F    write LOCPOT, total local potential
   LVHAR        =      F    write LOCPOT, Hartree potential only
   LELF         =      F    write electronic localiz. function (ELF)
   LORBIT       =      0    0 simple, 1 ext, 2 COOP (PROOUT), +10 PAW based schemes


 Dipole corrections
   LMONO  =      F    monopole corrections only (constant potential shift)
   LDIPOL =      F    correct potential (dipole corrections)
   IDIPOL =      0    1-x, 2-y, 3-z, 4-all directions 
   EPSILON=  1.0000000 bulk dielectric constant

 Exchange correlation treatment:
   GGA     =    PE    GGA type
   LEXCH   =     8    internal setting for exchange type
   VOSKOWN=      0    Vosko Wilk Nusair interpolation
   LHFCALC =     F    Hartree Fock is set to
   LHFONE  =     F    Hartree Fock one center treatment
   AEXX    =    0.0000 exact exchange contribution

 Linear response parameters
   LEPSILON=     F    determine dielectric tensor
   LRPA    =     F    only Hartree local field effects (RPA)
   LNABLA  =     F    use nabla operator in PAW spheres
   LVEL    =     F    velocity operator in full k-point grid
   LINTERFAST=   F  fast interpolation
   KINTER  =     0    interpolate to denser k-point grid
   CSHIFT  =0.1000    complex shift for real part using Kramers Kronig
   OMEGAMAX=  -1.0    maximum frequency
   DEG_THRESHOLD= 0.2000000E-02 threshold for treating states as degnerate
   RTIME   =   -0.100 relaxation time in fs
  (WPLASMAI=    0.000 imaginary part of plasma frequency in eV, 0.658/RTIME)
   DFIELD  = 0.0000000 0.0000000 0.0000000 field for delta impulse in time
 
 Orbital magnetization related:
   ORBITALMAG=     F  switch on orbital magnetization
   LCHIMAG   =     F  perturbation theory with respect to B field
   DQ        =  0.001000  dq finite difference perturbation B field
   LLRAUG    =     F  two centre corrections for induced B field



--------------------------------------------------------------------------------------------------------


 conjugate gradient relaxation of ions
 charge density and potential will be updated during run
 non-spin polarized calculation
 Variant of blocked Davidson
 Davidson routine will perform the subspace rotation
 perform sub-space diagonalisation
    after iterative eigenvector-optimisation
 modified Broyden-mixing scheme, WC =      100.0
 initial mixing is a Kerker type mixing with AMIX =  0.4000 and BMIX =      1.0000
 Hartree-type preconditioning will be used
 using additional bands            4
 reciprocal scheme for non local part
 use partial core corrections
 calculate Harris-corrections to forces 
   (improved forces if not selfconsistent)
 use gradient corrections 
 use of overlap-Matrix (Vanderbilt PP)
 Gauss-broadening in eV      SIGMA  =   0.10


--------------------------------------------------------------------------------------------------------


  energy-cutoff  :      600.00
  volume of cell :      379.96
      direct lattice vectors                 reciprocal lattice vectors
     4.382356765  0.021911784  0.021911784     0.228199018 -0.001135375 -0.001124077
     0.021462389  4.292477857  0.021462389    -0.001159148  0.232977208 -0.001147614
     0.100000000  0.100000000 20.200000000    -0.000246305 -0.000246305  0.049507389

  length of vectors
     4.382466322  4.292585168 20.200495043     0.228204611  0.232982919  0.049508615


 
 k-points in units of 2pi/SCALE and weight: KMesh Grid                              
   0.00000000  0.00000000  0.00000000       0.004
   0.01521327 -0.00007569 -0.00007494       0.009
   0.03042654 -0.00015138 -0.00014988       0.009
   0.04563980 -0.00022707 -0.00022482       0.009
   0.06085307 -0.00030277 -0.00029975       0.009
   0.07606634 -0.00037846 -0.00037469       0.009
   0.09127961 -0.00045415 -0.00044963       0.009
   0.10649287 -0.00052984 -0.00052457       0.009
  -0.00007728  0.01553181 -0.00007651       0.009
   0.01513599  0.01545612 -0.00015145       0.009
   0.03034926  0.01538043 -0.00022638       0.009
   0.04556253  0.01530474 -0.00030132       0.009
   0.06077579  0.01522905 -0.00037626       0.009
   0.07598906  0.01515336 -0.00045120       0.009
   0.09120233  0.01507766 -0.00052614       0.009
   0.10641560  0.01500197 -0.00060108       0.009
  -0.10657015  0.01606166  0.00044806       0.009
  -0.09135688  0.01598596  0.00037312       0.009
  -0.07614362  0.01591027  0.00029818       0.009
  -0.06093035  0.01583458  0.00022325       0.009
  -0.04571708  0.01575889  0.00014831       0.009
  -0.03050381  0.01568320  0.00007337       0.009
  -0.01529054  0.01560751 -0.00000157       0.009
  -0.00015455  0.03106363 -0.00015302       0.009
   0.01505871  0.03098794 -0.00022795       0.009
   0.03027198  0.03091224 -0.00030289       0.009
   0.04548525  0.03083655 -0.00037783       0.009
   0.06069852  0.03076086 -0.00045277       0.009
   0.07591179  0.03068517 -0.00052771       0.009
   0.09112505  0.03060948 -0.00060265       0.009
   0.10633832  0.03053379 -0.00067758       0.009
  -0.10664743  0.03159347  0.00037155       0.009
  -0.09143416  0.03151778  0.00029662       0.009
  -0.07622089  0.03144209  0.00022168       0.009
  -0.06100762  0.03136639  0.00014674       0.009
  -0.04579436  0.03129070  0.00007180       0.009
  -0.03058109  0.03121501 -0.00000314       0.009
  -0.01536782  0.03113932 -0.00007808       0.009
  -0.00023183  0.04659544 -0.00022952       0.009
   0.01498144  0.04651975 -0.00030446       0.009
   0.03019471  0.04644406 -0.00037940       0.009
   0.04540797  0.04636837 -0.00045434       0.009
   0.06062124  0.04629268 -0.00052928       0.009
   0.07583451  0.04621698 -0.00060422       0.009
   0.09104778  0.04614129 -0.00067915       0.009
   0.10626105  0.04606560 -0.00075409       0.009
  -0.10672470  0.04712528  0.00029505       0.009
  -0.09151144  0.04704959  0.00022011       0.009
  -0.07629817  0.04697390  0.00014517       0.009
  -0.06108490  0.04689821  0.00007023       0.009
  -0.04587163  0.04682252 -0.00000471       0.009
  -0.03065837  0.04674682 -0.00007965       0.009
  -0.01544510  0.04667113 -0.00015458       0.009
  -0.00030911  0.06212726 -0.00030603       0.009
   0.01490416  0.06205156 -0.00038097       0.009
   0.03011743  0.06197587 -0.00045591       0.009
   0.04533070  0.06190018 -0.00053085       0.009
   0.06054397  0.06182449 -0.00060578       0.009
   0.07575723  0.06174880 -0.00068072       0.009
   0.09097050  0.06167311 -0.00075566       0.009
   0.10618377  0.06159741 -0.00083060       0.009
  -0.10680198  0.06265710  0.00021854       0.009
  -0.09158871  0.06258141  0.00014360       0.009
  -0.07637545  0.06250571  0.00006866       0.009
  -0.06116218  0.06243002 -0.00000628       0.009
  -0.04594891  0.06235433 -0.00008121       0.009
  -0.03073564  0.06227864 -0.00015615       0.009
  -0.01552237  0.06220295 -0.00023109       0.009
  -0.00038638  0.07765907 -0.00038254       0.009
   0.01482689  0.07758338 -0.00045748       0.009
   0.03004015  0.07750769 -0.00053242       0.009
   0.04525342  0.07743199 -0.00060735       0.009
   0.06046669  0.07735630 -0.00068229       0.009
   0.07567996  0.07728061 -0.00075723       0.009
   0.09089322  0.07720492 -0.00083217       0.009
   0.10610649  0.07712923 -0.00090711       0.009
  -0.10687926  0.07818891  0.00014203       0.009
  -0.09166599  0.07811322  0.00006709       0.009
  -0.07645272  0.07803753 -0.00000785       0.009
  -0.06123945  0.07796184 -0.00008278       0.009
  -0.04602619  0.07788614 -0.00015772       0.009
  -0.03081292  0.07781045 -0.00023266       0.009
  -0.01559965  0.07773476 -0.00030760       0.009
  -0.00046366  0.09319088 -0.00045905       0.009
   0.01474961  0.09311519 -0.00053398       0.009
   0.02996288  0.09303950 -0.00060892       0.009
   0.04517614  0.09296381 -0.00068386       0.009
   0.06038941  0.09288812 -0.00075880       0.009
   0.07560268  0.09281243 -0.00083374       0.009
   0.09081595  0.09273673 -0.00090868       0.009
   0.10602922  0.09266104 -0.00098362       0.009
  -0.10695653  0.09372072  0.00006552       0.009
  -0.09174327  0.09364503 -0.00000941       0.009
  -0.07653000  0.09356934 -0.00008435       0.009
  -0.06131673  0.09349365 -0.00015929       0.009
  -0.04610346  0.09341796 -0.00023423       0.009
  -0.03089019  0.09334227 -0.00030917       0.009
  -0.01567693  0.09326658 -0.00038411       0.009
  -0.00054094  0.10872270 -0.00053555       0.009
   0.01467233  0.10864701 -0.00061049       0.009
   0.02988560  0.10857131 -0.00068543       0.009
   0.04509887  0.10849562 -0.00076037       0.009
   0.06031214  0.10841993 -0.00083531       0.009
   0.07552540  0.10834424 -0.00091025       0.009
   0.09073867  0.10826855 -0.00098518       0.009
   0.10595194  0.10819286 -0.00106012       0.009
  -0.10703381  0.10925254 -0.00001098       0.009
  -0.09182054  0.10917685 -0.00008592       0.009
  -0.07660727  0.10910116 -0.00016086       0.009
  -0.06139401  0.10902546 -0.00023580       0.009
  -0.04618074  0.10894977 -0.00031074       0.009
  -0.03096747  0.10887408 -0.00038568       0.009
  -0.01575420  0.10879839 -0.00046061       0.009
 
 k-points in reciprocal lattice and weights: KMesh Grid                              
   0.00000000  0.00000000  0.00000000       0.004
   0.06666667 -0.00000000  0.00000000       0.009
   0.13333333  0.00000000 -0.00000000       0.009
   0.20000000  0.00000000 -0.00000000       0.009
   0.26666667  0.00000000 -0.00000000       0.009
   0.33333333  0.00000000 -0.00000000       0.009
   0.40000000  0.00000000 -0.00000000       0.009
   0.46666667 -0.00000000 -0.00000000       0.009
   0.00000000  0.06666667  0.00000000       0.009
   0.06666667  0.06666667  0.00000000       0.009
   0.13333333  0.06666667  0.00000000       0.009
   0.20000000  0.06666667 -0.00000000       0.009
   0.26666667  0.06666667  0.00000000       0.009
   0.33333333  0.06666667 -0.00000000       0.009
   0.40000000  0.06666667 -0.00000000       0.009
   0.46666667  0.06666667 -0.00000000       0.009
  -0.46666667  0.06666667 -0.00000000       0.009
  -0.40000000  0.06666667  0.00000000       0.009
  -0.33333333  0.06666667 -0.00000000       0.009
  -0.26666667  0.06666667  0.00000000       0.009
  -0.20000000  0.06666667  0.00000000       0.009
  -0.13333333  0.06666667  0.00000000       0.009
  -0.06666667  0.06666667  0.00000000       0.009
   0.00000000  0.13333333  0.00000000       0.009
   0.06666667  0.13333333  0.00000000       0.009
   0.13333333  0.13333333  0.00000000       0.009
   0.20000000  0.13333333  0.00000000       0.009
   0.26666667  0.13333333  0.00000000       0.009
   0.33333333  0.13333333  0.00000000       0.009
   0.40000000  0.13333333 -0.00000000       0.009
   0.46666667  0.13333333  0.00000000       0.009
  -0.46666667  0.13333333  0.00000000       0.009
  -0.40000000  0.13333333  0.00000000       0.009
  -0.33333333  0.13333333  0.00000000       0.009
  -0.26666667  0.13333333  0.00000000       0.009
  -0.20000000  0.13333333  0.00000000       0.009
  -0.13333333  0.13333333  0.00000000       0.009
  -0.06666667  0.13333333  0.00000000       0.009
  -0.00000000  0.20000000  0.00000000       0.009
   0.06666667  0.20000000  0.00000000       0.009
   0.13333333  0.20000000 -0.00000000       0.009
   0.20000000  0.20000000 -0.00000000       0.009
   0.26666667  0.20000000  0.00000000       0.009
   0.33333333  0.20000000 -0.00000000       0.009
   0.40000000  0.20000000  0.00000000       0.009
   0.46666667  0.20000000  0.00000000       0.009
  -0.46666667  0.20000000  0.00000000       0.009
  -0.40000000  0.20000000  0.00000000       0.009
  -0.33333333  0.20000000  0.00000000       0.009
  -0.26666667  0.20000000 -0.00000000       0.009
  -0.20000000  0.20000000  0.00000000       0.009
  -0.13333333  0.20000000  0.00000000       0.009
  -0.06666667  0.20000000 -0.00000000       0.009
  -0.00000000  0.26666667  0.00000000       0.009
   0.06666667  0.26666667  0.00000000       0.009
   0.13333333  0.26666667  0.00000000       0.009
   0.20000000  0.26666667  0.00000000       0.009
   0.26666667  0.26666667  0.00000000       0.009
   0.33333333  0.26666667  0.00000000       0.009
   0.40000000  0.26666667  0.00000000       0.009
   0.46666667  0.26666667  0.00000000       0.009
  -0.46666667  0.26666667  0.00000000       0.009
  -0.40000000  0.26666667  0.00000000       0.009
  -0.33333333  0.26666667  0.00000000       0.009
  -0.26666667  0.26666667  0.00000000       0.009
  -0.20000000  0.26666667  0.00000000       0.009
  -0.13333333  0.26666667  0.00000000       0.009
  -0.06666667  0.26666667  0.00000000       0.009
   0.00000000  0.33333333  0.00000000       0.009
   0.06666667  0.33333333  0.00000000       0.009
   0.13333333  0.33333333  0.00000000       0.009
   0.20000000  0.33333333  0.00000000       0.009
   0.26666667  0.33333333  0.00000000       0.009
   0.33333333  0.33333333  0.00000000       0.009
   0.40000000  0.33333333  0.00000000       0.009
   0.46666667  0.33333333  0.00000000       0.009
  -0.46666667  0.33333333  0.00000000       0.009
  -0.40000000  0.33333333  0.00000000       0.009
  -0.33333333  0.33333333  0.00000000       0.009
  -0.26666667  0.33333333  0.00000000       0.009
  -0.20000000  0.33333333  0.00000000       0.009
  -0.13333333  0.33333333  0.00000000       0.009
  -0.06666667  0.33333333  0.00000000       0.009
  -0.00000000  0.40000000  0.00000000       0.009
   0.06666667  0.40000000  0.00000000       0.009
   0.13333333  0.40000000  0.00000000       0.009
   0.20000000  0.40000000 -0.00000000       0.009
   0.26666667  0.40000000  0.00000000       0.009
   0.33333333  0.40000000  0.00000000       0.009
   0.40000000  0.40000000 -0.00000000       0.009
   0.46666667  0.40000000 -0.00000000       0.009
  -0.46666667  0.40000000  0.00000000       0.009
  -0.40000000  0.40000000  0.00000000       0.009
  -0.33333333  0.40000000  0.00000000       0.009
  -0.26666667  0.40000000  0.00000000       0.009
  -0.20000000  0.40000000  0.00000000       0.009
  -0.13333333  0.40000000  0.00000000       0.009
  -0.06666667  0.40000000  0.00000000       0.009
  -0.00000000  0.46666667  0.00000000       0.009
   0.06666667  0.46666667  0.00000000       0.009
   0.13333333  0.46666667  0.00000000       0.009
   0.20000000  0.46666667  0.00000000       0.009
   0.26666667  0.46666667  0.00000000       0.009
   0.33333333  0.46666667  0.00000000       0.009
   0.40000000  0.46666667 -0.00000000       0.009
   0.46666667  0.46666667 -0.00000000       0.009
  -0.46666667  0.46666667  0.00000000       0.009
  -0.40000000  0.46666667  0.00000000       0.009
  -0.33333333  0.46666667  0.00000000       0.009
  -0.26666667  0.46666667 -0.00000000       0.009
  -0.20000000  0.46666667  0.00000000       0.009
  -0.13333333  0.46666667  0.00000000       0.009
  -0.06666667  0.46666667  0.00000000       0.009
 
 position of ions in fractional coordinates (direct lattice) 
   0.58124336  0.75000000  0.56874314
   0.08124336  0.25000000  0.43125686
   0.03286064  0.25000000  0.56707387
   0.53286061  0.75000000  0.43292613
 
 position of ions in cartesian coordinates  (Angst):
   2.62018687  3.28896879 11.51744433
   0.40452866  1.11802534  8.71853433
   0.20608004  1.13054689 11.46097773
   2.39457473  3.27432693  8.77288062
 


--------------------------------------------------------------------------------------------------------


 k-point  1 :   0.0000 0.0000 0.0000  plane waves:   12723
 k-point  2 :   0.0667-0.0000 0.0000  plane waves:   12707
 k-point  3 :   0.1333 0.0000-0.0000  plane waves:   12709
 k-point  4 :   0.2000 0.0000-0.0000  plane waves:   12676
 k-point  5 :   0.2667 0.0000-0.0000  plane waves:   12678
 k-point  6 :   0.3333 0.0000-0.0000  plane waves:   12689
 k-point  7 :   0.4000 0.0000-0.0000  plane waves:   12708
 k-point  8 :   0.4667-0.0000-0.0000  plane waves:   12696
 k-point  9 :   0.0000 0.0667 0.0000  plane waves:   12712
 k-point 10 :   0.0667 0.0667 0.0000  plane waves:   12709
 k-point 11 :   0.1333 0.0667 0.0000  plane waves:   12685
 k-point 12 :   0.2000 0.0667-0.0000  plane waves:   12681
 k-point 13 :   0.2667 0.0667 0.0000  plane waves:   12662
 k-point 14 :   0.3333 0.0667-0.0000  plane waves:   12690
 k-point 15 :   0.4000 0.0667-0.0000  plane waves:   12700
 k-point 16 :   0.4667 0.0667-0.0000  plane waves:   12722
 k-point 17 :  -0.4667 0.0667-0.0000  plane waves:   12712
 k-point 18 :  -0.4000 0.0667 0.0000  plane waves:   12716
 k-point 19 :  -0.3333 0.0667-0.0000  plane waves:   12708
 k-point 20 :  -0.2667 0.0667 0.0000  plane waves:   12686
 k-point 21 :  -0.2000 0.0667 0.0000  plane waves:   12696
 k-point 22 :  -0.1333 0.0667 0.0000  plane waves:   12708
 k-point 23 :  -0.0667 0.0667 0.0000  plane waves:   12715
 k-point 24 :   0.0000 0.1333 0.0000  plane waves:   12709
 k-point 25 :   0.0667 0.1333 0.0000  plane waves:   12696
 k-point 26 :   0.1333 0.1333 0.0000  plane waves:   12696
 k-point 27 :   0.2000 0.1333 0.0000  plane waves:   12669
 k-point 28 :   0.2667 0.1333 0.0000  plane waves:   12676
 k-point 29 :   0.3333 0.1333 0.0000  plane waves:   12681
 k-point 30 :   0.4000 0.1333-0.0000  plane waves:   12696
 k-point 31 :   0.4667 0.1333 0.0000  plane waves:   12703
 k-point 32 :  -0.4667 0.1333 0.0000  plane waves:   12701
 k-point 33 :  -0.4000 0.1333 0.0000  plane waves:   12716
 k-point 34 :  -0.3333 0.1333 0.0000  plane waves:   12717
 k-point 35 :  -0.2667 0.1333 0.0000  plane waves:   12689
 k-point 36 :  -0.2000 0.1333 0.0000  plane waves:   12697
 k-point 37 :  -0.1333 0.1333 0.0000  plane waves:   12700
 k-point 38 :  -0.0667 0.1333 0.0000  plane waves:   12709
 k-point 39 :  -0.0000 0.2000 0.0000  plane waves:   12687
 k-point 40 :   0.0667 0.2000 0.0000  plane waves:   12688
 k-point 41 :   0.1333 0.2000-0.0000  plane waves:   12689
 k-point 42 :   0.2000 0.2000-0.0000  plane waves:   12681
 k-point 43 :   0.2667 0.2000 0.0000  plane waves:   12655
 k-point 44 :   0.3333 0.2000-0.0000  plane waves:   12669
 k-point 45 :   0.4000 0.2000 0.0000  plane waves:   12672
 k-point 46 :   0.4667 0.2000 0.0000  plane waves:   12698
 k-point 47 :  -0.4667 0.2000 0.0000  plane waves:   12705
 k-point 48 :  -0.4000 0.2000 0.0000  plane waves:   12693
 k-point 49 :  -0.3333 0.2000 0.0000  plane waves:   12700
 k-point 50 :  -0.2667 0.2000-0.0000  plane waves:   12699
 k-point 51 :  -0.2000 0.2000 0.0000  plane waves:   12698
 k-point 52 :  -0.1333 0.2000 0.0000  plane waves:   12700
 k-point 53 :  -0.0667 0.2000-0.0000  plane waves:   12702
 k-point 54 :  -0.0000 0.2667 0.0000  plane waves:   12686
 k-point 55 :   0.0667 0.2667 0.0000  plane waves:   12682
 k-point 56 :   0.1333 0.2667 0.0000  plane waves:   12683
 k-point 57 :   0.2000 0.2667 0.0000  plane waves:   12681
 k-point 58 :   0.2667 0.2667 0.0000  plane waves:   12683
 k-point 59 :   0.3333 0.2667 0.0000  plane waves:   12677
 k-point 60 :   0.4000 0.2667 0.0000  plane waves:   12669
 k-point 61 :   0.4667 0.2667 0.0000  plane waves:   12675
 k-point 62 :  -0.4667 0.2667 0.0000  plane waves:   12695
 k-point 63 :  -0.4000 0.2667 0.0000  plane waves:   12692
 k-point 64 :  -0.3333 0.2667 0.0000  plane waves:   12695
 k-point 65 :  -0.2667 0.2667 0.0000  plane waves:   12683
 k-point 66 :  -0.2000 0.2667 0.0000  plane waves:   12684
 k-point 67 :  -0.1333 0.2667 0.0000  plane waves:   12692
 k-point 68 :  -0.0667 0.2667 0.0000  plane waves:   12690
 k-point 69 :   0.0000 0.3333 0.0000  plane waves:   12664
 k-point 70 :   0.0667 0.3333 0.0000  plane waves:   12673
 k-point 71 :   0.1333 0.3333 0.0000  plane waves:   12672
 k-point 72 :   0.2000 0.3333 0.0000  plane waves:   12659
 k-point 73 :   0.2667 0.3333 0.0000  plane waves:   12660
 k-point 74 :   0.3333 0.3333 0.0000  plane waves:   12673
 k-point 75 :   0.4000 0.3333 0.0000  plane waves:   12669
 k-point 76 :   0.4667 0.3333 0.0000  plane waves:   12666
 k-point 77 :  -0.4667 0.3333 0.0000  plane waves:   12673
 k-point 78 :  -0.4000 0.3333 0.0000  plane waves:   12671
 k-point 79 :  -0.3333 0.3333 0.0000  plane waves:   12679
 k-point 80 :  -0.2667 0.3333 0.0000  plane waves:   12682
 k-point 81 :  -0.2000 0.3333 0.0000  plane waves:   12684
 k-point 82 :  -0.1333 0.3333 0.0000  plane waves:   12675
 k-point 83 :  -0.0667 0.3333 0.0000  plane waves:   12670
 k-point 84 :  -0.0000 0.4000 0.0000  plane waves:   12643
 k-point 85 :   0.0667 0.4000 0.0000  plane waves:   12667
 k-point 86 :   0.1333 0.4000 0.0000  plane waves:   12658
 k-point 87 :   0.2000 0.4000-0.0000  plane waves:   12647
 k-point 88 :   0.2667 0.4000 0.0000  plane waves:   12654
 k-point 89 :   0.3333 0.4000 0.0000  plane waves:   12648
 k-point 90 :   0.4000 0.4000-0.0000  plane waves:   12675
 k-point 91 :   0.4667 0.4000-0.0000  plane waves:   12665
 k-point 92 :  -0.4667 0.4000 0.0000  plane waves:   12653
 k-point 93 :  -0.4000 0.4000 0.0000  plane waves:   12642
 k-point 94 :  -0.3333 0.4000 0.0000  plane waves:   12673
 k-point 95 :  -0.2667 0.4000 0.0000  plane waves:   12675
 k-point 96 :  -0.2000 0.4000 0.0000  plane waves:   12674
 k-point 97 :  -0.1333 0.4000 0.0000  plane waves:   12658
 k-point 98 :  -0.0667 0.4000 0.0000  plane waves:   12660
 k-point 99 :  -0.0000 0.4667 0.0000  plane waves:   12660
 k-point ** :   0.0667 0.4667 0.0000  plane waves:   12657
 k-point ** :   0.1333 0.4667 0.0000  plane waves:   12652
 k-point ** :   0.2000 0.4667 0.0000  plane waves:   12666
 k-point ** :   0.2667 0.4667 0.0000  plane waves:   12651
 k-point ** :   0.3333 0.4667 0.0000  plane waves:   12655
 k-point ** :   0.4000 0.4667-0.0000  plane waves:   12651
 k-point ** :   0.4667 0.4667-0.0000  plane waves:   12671
 k-point ** :  -0.4667 0.4667 0.0000  plane waves:   12655
 k-point ** :  -0.4000 0.4667 0.0000  plane waves:   12644
 k-point ** :  -0.3333 0.4667 0.0000  plane waves:   12648
 k-point ** :  -0.2667 0.4667-0.0000  plane waves:   12644
 k-point ** :  -0.2000 0.4667 0.0000  plane waves:   12655
 k-point ** :  -0.1333 0.4667 0.0000  plane waves:   12662
 k-point ** :  -0.0667 0.4667 0.0000  plane waves:   12661

 maximum and minimum number of plane-waves per node :       556      508

 maximum number of plane-waves:     12723
 maximum index in each direction: 
   IXMAX=    9   IYMAX=    8   IZMAX=   40
   IXMIN=   -9   IYMIN=   -9   IZMIN=  -40


 parallel 3D FFT for wavefunctions:
    minimum data exchange during FFTs selected (reduces bandwidth)
 parallel 3D FFT for charge:
    minimum data exchange during FFTs selected (reduces bandwidth)


 total amount of memory used by VASP MPI-rank0    63751. kBytes
=======================================================================

   base      :      30000. kBytes
   nonl-proj :      12679. kBytes
   fftplans  :       2714. kBytes
   grid      :       4404. kBytes
   one-center:          8. kBytes
   wavefun   :      13946. kBytes
 
     INWAV:  cpu time    0.0000: real time    0.0000
 Broyden mixing: mesh for mixing (old mesh)
   NGX = 17   NGY = 17   NGZ = 81
  (NGX  = 72   NGY  = 72   NGZ  =324)
  gives a total of  23409 points

 initial charge density was supplied:
 charge density of overlapping atoms calculated
 number of electron      20.0000000 magnetization 
 keeping initial charge density in first step


--------------------------------------------------------------------------------------------------------


 Maximum index for augmentation-charges         2228 (set IRDMAX)


--------------------------------------------------------------------------------------------------------


 First call to EWALD:  gamma=   0.245
 Maximum number of real-space cells 4x 4x 1
 Maximum number of reciprocal cells 2x 2x 7

    FEWALD:  cpu time    0.0011: real time    0.0019


--------------------------------------- Iteration      1(   1)  ---------------------------------------


    POTLOK:  cpu time    0.0488: real time    0.3296
    SETDIJ:  cpu time    0.0048: real time    0.0063
     EDDAV:  cpu time    2.4110: real time    2.4198
       DOS:  cpu time    0.0044: real time    0.0045
    --------------------------------------------
      LOOP:  cpu time    2.4690: real time    2.7604

 eigenvalue-minimisations  :  3164
 total energy-change (2. order) : 0.1454577E+03  (-0.6290477E+03)
 number of electron      20.0000000 magnetization 
 augmentation part       20.0000000 magnetization 

 Free energy of the ion-electron system (eV)
  ---------------------------------------------------
  alpha Z        PSCENC =         9.41081520
  Ewald energy   TEWEN  =      1173.22068046
  -Hartree energ DENC   =     -1774.87259455
  -exchange      EXHF   =         0.00000000
  -V(xc)+E(xc)   XCENC  =      -238.62996294
  PAW double counting   =       799.43158084     -524.17639913
  entropy T*S    EENTRO =        -0.01161115
  eigenvalues    EBANDS =        -1.34272358
  atomic energy  EATOM  =       702.42789710
  Solvation  Ediel_sol  =         0.00000000
  ---------------------------------------------------
  free energy    TOTEN  =       145.45768226 eV

  energy without entropy =      145.46929341  energy(sigma->0) =      145.46348784


--------------------------------------------------------------------------------------------------------




--------------------------------------- Iteration      1(   2)  ---------------------------------------


     EDDAV:  cpu time    3.5342: real time    3.5438
       DOS:  cpu time    0.0043: real time    0.0043
    --------------------------------------------
      LOOP:  cpu time    3.5384: real time    3.5480

 eigenvalue-minimisations  :  5294
 total energy-change (2. order) :-0.1408367E+03  (-0.1365059E+03)
 number of electron      20.0000000 magnetization 
 augmentation part       20.0000000 magnetization 

 Free energy of the ion-electron system (eV)
  ---------------------------------------------------
  alpha Z        PSCENC =         9.41081520
  Ewald energy   TEWEN  =      1173.22068046
  -Hartree energ DENC   =     -1774.87259455
  -exchange      EXHF   =         0.00000000
  -V(xc)+E(xc)   XCENC  =      -238.62996294
  PAW double counting   =       799.43158084     -524.17639913
  entropy T*S    EENTRO =        -0.00015642
  eigenvalues    EBANDS =      -142.19084045
  atomic energy  EATOM  =       702.42789710
  Solvation  Ediel_sol  =         0.00000000
  ---------------------------------------------------
  free energy    TOTEN  =         4.62102012 eV

  energy without entropy =        4.62117655  energy(sigma->0) =        4.62109834


--------------------------------------------------------------------------------------------------------




--------------------------------------- Iteration      1(   3)  ---------------------------------------


     EDDAV:  cpu time    2.8329: real time    2.8404
       DOS:  cpu time    0.0030: real time    0.0030
    --------------------------------------------
      LOOP:  cpu time    2.8359: real time    2.8434

 eigenvalue-minimisations  :  4022
 total energy-change (2. order) :-0.2060731E+02  (-0.2043748E+02)
 number of electron      20.0000000 magnetization 
 augmentation part       20.0000000 magnetization 

 Free energy of the ion-electron system (eV)
  ---------------------------------------------------
  alpha Z        PSCENC =         9.41081520
  Ewald energy   TEWEN  =      1173.22068046
  -Hartree energ DENC   =     -1774.87259455
  -exchange      EXHF   =         0.00000000
  -V(xc)+E(xc)   XCENC  =      -238.62996294
  PAW double counting   =       799.43158084     -524.17639913
  entropy T*S    EENTRO =        -0.00000000
  eigenvalues    EBANDS =      -162.79830584
  atomic energy  EATOM  =       702.42789710
  Solvation  Ediel_sol  =         0.00000000
  ---------------------------------------------------
  free energy    TOTEN  =       -15.98628885 eV

  energy without entropy =      -15.98628885  energy(sigma->0) =      -15.98628885


--------------------------------------------------------------------------------------------------------




--------------------------------------- Iteration      1(   4)  ---------------------------------------


     EDDAV:  cpu time    3.0936: real time    3.1015
       DOS:  cpu time    0.0030: real time    0.0030
    --------------------------------------------
      LOOP:  cpu time    3.0966: real time    3.1044

 eigenvalue-minimisations  :  4544
 total energy-change (2. order) :-0.7993548E+00  (-0.7970996E+00)
 number of electron      20.0000000 magnetization 
 augmentation part       20.0000000 magnetization 

 Free energy of the ion-electron system (eV)
  ---------------------------------------------------
  alpha Z        PSCENC =         9.41081520
  Ewald energy   TEWEN  =      1173.22068046
  -Hartree energ DENC   =     -1774.87259455
  -exchange      EXHF   =         0.00000000
  -V(xc)+E(xc)   XCENC  =      -238.62996294
  PAW double counting   =       799.43158084     -524.17639913
  entropy T*S    EENTRO =        -0.00000000
  eigenvalues    EBANDS =      -163.59766060
  atomic energy  EATOM  =       702.42789710
  Solvation  Ediel_sol  =         0.00000000
  ---------------------------------------------------
  free energy    TOTEN  =       -16.78564361 eV

  energy without entropy =      -16.78564361  energy(sigma->0) =      -16.78564361


--------------------------------------------------------------------------------------------------------




--------------------------------------- Iteration      1(   5)  ---------------------------------------


     EDDAV:  cpu time    2.8689: real time    2.8763
       DOS:  cpu time    0.0030: real time    0.0030
    CHARGE:  cpu time    0.1795: real time    0.1804
    MIXING:  cpu time    0.0158: real time    0.0158
    --------------------------------------------
      LOOP:  cpu time    3.0672: real time    3.0755

 eigenvalue-minimisations  :  4094
 total energy-change (2. order) :-0.1683745E-01  (-0.1682613E-01)
 number of electron      19.9999999 magnetization 
 augmentation part       -4.5213019 magnetization 

 Broyden mixing:
  rms(total) = 0.44627E+00    rms(broyden)= 0.44627E+00
  rms(prec ) = 0.48751E+00
  weight for this iteration     100.00

 Free energy of the ion-electron system (eV)
  ---------------------------------------------------
  alpha Z        PSCENC =         9.41081520
  Ewald energy   TEWEN  =      1173.22068046
  -Hartree energ DENC   =     -1774.87259455
  -exchange      EXHF   =         0.00000000
  -V(xc)+E(xc)   XCENC  =      -238.62996294
  PAW double counting   =       799.43158084     -524.17639913
  entropy T*S    EENTRO =        -0.00000000
  eigenvalues    EBANDS =      -163.61449805
  atomic energy  EATOM  =       702.42789710
  Solvation  Ediel_sol  =         0.00000000
  ---------------------------------------------------
  free energy    TOTEN  =       -16.80248106 eV

  energy without entropy =      -16.80248106  energy(sigma->0) =      -16.80248106


--------------------------------------------------------------------------------------------------------




--------------------------------------- Iteration      1(   6)  ---------------------------------------


    POTLOK:  cpu time    0.0433: real time    0.0434
    SETDIJ:  cpu time    0.0039: real time    0.0039
     EDDAV:  cpu time    2.7687: real time    2.7756
       DOS:  cpu time    0.0031: real time    0.0031
    CHARGE:  cpu time    0.1801: real time    0.1806
    MIXING:  cpu time    0.0014: real time    0.0015
    --------------------------------------------
      LOOP:  cpu time    3.0006: real time    3.0082

 eigenvalue-minimisations  :  3904
 total energy-change (2. order) : 0.5034331E+00  (-0.1297569E+00)
 number of electron      19.9999999 magnetization 
 augmentation part       -4.4881353 magnetization 

 Broyden mixing:
  rms(total) = 0.27227E+00    rms(broyden)= 0.27227E+00
  rms(prec ) = 0.28147E+00
  weight for this iteration     100.00

 eigenvalues of (default mixing * dielectric matrix)
  average eigenvalue GAMMA=   1.7633
  1.7633

 Free energy of the ion-electron system (eV)
  ---------------------------------------------------
  alpha Z        PSCENC =         9.41081520
  Ewald energy   TEWEN  =      1173.22068046
  -Hartree energ DENC   =     -1782.85988158
  -exchange      EXHF   =         0.00000000
  -V(xc)+E(xc)   XCENC  =      -238.14687562
  PAW double counting   =       921.81603907     -646.73600605
  entropy T*S    EENTRO =        -0.00000000
  eigenvalues    EBANDS =      -155.43171656
  atomic energy  EATOM  =       702.42789710
  Solvation  Ediel_sol  =         0.00000000
  ---------------------------------------------------
  free energy    TOTEN  =       -16.29904798 eV

  energy without entropy =      -16.29904798  energy(sigma->0) =      -16.29904798


--------------------------------------------------------------------------------------------------------




--------------------------------------- Iteration      1(   7)  ---------------------------------------


    POTLOK:  cpu time    0.0433: real time    0.0434
    SETDIJ:  cpu time    0.0038: real time    0.0038
     EDDAV:  cpu time    2.9619: real time    2.9700
       DOS:  cpu time    0.0032: real time    0.0032
    CHARGE:  cpu time    0.1798: real time    0.1802
    MIXING:  cpu time    0.0014: real time    0.0016
    --------------------------------------------
      LOOP:  cpu time    3.1933: real time    3.2022

 eigenvalue-minimisations  :  4244
 total energy-change (2. order) : 0.2685401E-01  (-0.3123858E-01)
 number of electron      19.9999999 magnetization 
 augmentation part       -4.4808081 magnetization 

 Broyden mixing:
  rms(total) = 0.10627E+00    rms(broyden)= 0.10627E+00
  rms(prec ) = 0.11164E+00
  weight for this iteration     100.00

 eigenvalues of (default mixing * dielectric matrix)
  average eigenvalue GAMMA=   1.7326
  1.3667  2.0984

 Free energy of the ion-electron system (eV)
  ---------------------------------------------------
  alpha Z        PSCENC =         9.41081520
  Ewald energy   TEWEN  =      1173.22068046
  -Hartree energ DENC   =     -1787.81930448
  -exchange      EXHF   =         0.00000000
  -V(xc)+E(xc)   XCENC  =      -237.83325324
  PAW double counting   =      1057.47256111     -782.52138469
  entropy T*S    EENTRO =        -0.00000000
  eigenvalues    EBANDS =      -150.63020543
  atomic energy  EATOM  =       702.42789710
  Solvation  Ediel_sol  =         0.00000000
  ---------------------------------------------------
  free energy    TOTEN  =       -16.27219397 eV

  energy without entropy =      -16.27219397  energy(sigma->0) =      -16.27219397


--------------------------------------------------------------------------------------------------------




--------------------------------------- Iteration      1(   8)  ---------------------------------------


    POTLOK:  cpu time    0.0437: real time    0.0439
    SETDIJ:  cpu time    0.0038: real time    0.0038
     EDDAV:  cpu time    3.0661: real time    3.0746
       DOS:  cpu time    0.0032: real time    0.0031
    CHARGE:  cpu time    0.1793: real time    0.1798
    MIXING:  cpu time    0.0016: real time    0.0015
    --------------------------------------------
      LOOP:  cpu time    3.2977: real time    3.3068

 eigenvalue-minimisations  :  4452
 total energy-change (2. order) : 0.9687075E-02  (-0.3794654E-02)
 number of electron      19.9999999 magnetization 
 augmentation part       -4.4850610 magnetization 

 Broyden mixing:
  rms(total) = 0.19939E-01    rms(broyden)= 0.19939E-01
  rms(prec ) = 0.27552E-01
  weight for this iteration     100.00

 eigenvalues of (default mixing * dielectric matrix)
  average eigenvalue GAMMA=   1.6853
  2.4944  1.2807  1.2807

 Free energy of the ion-electron system (eV)
  ---------------------------------------------------
  alpha Z        PSCENC =         9.41081520
  Ewald energy   TEWEN  =      1173.22068046
  -Hartree energ DENC   =     -1789.62083562
  -exchange      EXHF   =         0.00000000
  -V(xc)+E(xc)   XCENC  =      -237.75186008
  PAW double counting   =      1124.40787394     -849.49450384
  entropy T*S    EENTRO =        -0.00000000
  eigenvalues    EBANDS =      -148.86257407
  atomic energy  EATOM  =       702.42789710
  Solvation  Ediel_sol  =         0.00000000
  ---------------------------------------------------
  free energy    TOTEN  =       -16.26250690 eV

  energy without entropy =      -16.26250690  energy(sigma->0) =      -16.26250690


--------------------------------------------------------------------------------------------------------




--------------------------------------- Iteration      1(   9)  ---------------------------------------


    POTLOK:  cpu time    0.0436: real time    0.0438
    SETDIJ:  cpu time    0.0038: real time    0.0038
     EDDAV:  cpu time    3.0052: real time    3.0140
       DOS:  cpu time    0.0032: real time    0.0032
    CHARGE:  cpu time    0.1821: real time    0.1831
    MIXING:  cpu time    0.0015: real time    0.0016
    --------------------------------------------
      LOOP:  cpu time    3.2395: real time    3.2495

 eigenvalue-minimisations  :  4334
 total energy-change (2. order) : 0.3739473E-02  (-0.6596115E-03)
 number of electron      19.9999999 magnetization 
 augmentation part       -4.4831921 magnetization 

 Broyden mixing:
  rms(total) = 0.98929E-02    rms(broyden)= 0.98929E-02
  rms(prec ) = 0.15720E-01
  weight for this iteration     100.00

 eigenvalues of (default mixing * dielectric matrix)
  average eigenvalue GAMMA=   1.7185
  2.2483  2.2483  1.1887  1.1887

 Free energy of the ion-electron system (eV)
  ---------------------------------------------------
  alpha Z        PSCENC =         9.41081520
  Ewald energy   TEWEN  =      1173.22068046
  -Hartree energ DENC   =     -1791.55014105
  -exchange      EXHF   =         0.00000000
  -V(xc)+E(xc)   XCENC  =      -237.68186192
  PAW double counting   =      1140.62946544     -865.72655569
  entropy T*S    EENTRO =        -0.00000000
  eigenvalues    EBANDS =      -146.98906696
  atomic energy  EATOM  =       702.42789710
  Solvation  Ediel_sol  =         0.00000000
  ---------------------------------------------------
  free energy    TOTEN  =       -16.25876742 eV

  energy without entropy =      -16.25876742  energy(sigma->0) =      -16.25876742


--------------------------------------------------------------------------------------------------------




--------------------------------------- Iteration      1(  10)  ---------------------------------------


    POTLOK:  cpu time    0.0440: real time    0.0442
    SETDIJ:  cpu time    0.0039: real time    0.0039
     EDDAV:  cpu time    2.9978: real time    3.0065
       DOS:  cpu time    0.0032: real time    0.0031
    CHARGE:  cpu time    0.1847: real time    0.1852
    MIXING:  cpu time    0.0016: real time    0.0016
    --------------------------------------------
      LOOP:  cpu time    3.2352: real time    3.2445

 eigenvalue-minimisations  :  4364
 total energy-change (2. order) : 0.1440741E-02  (-0.1339270E-03)
 number of electron      19.9999999 magnetization 
 augmentation part       -4.4818647 magnetization 

 Broyden mixing:
  rms(total) = 0.47968E-02    rms(broyden)= 0.47968E-02
  rms(prec ) = 0.92241E-02
  weight for this iteration     100.00

 eigenvalues of (default mixing * dielectric matrix)
  average eigenvalue GAMMA=   1.8489
  3.2986  2.5831  1.2245  1.2245  0.9136

 Free energy of the ion-electron system (eV)
  ---------------------------------------------------
  alpha Z        PSCENC =         9.41081520
  Ewald energy   TEWEN  =      1173.22068046
  -Hartree energ DENC   =     -1792.91705946
  -exchange      EXHF   =         0.00000000
  -V(xc)+E(xc)   XCENC  =      -237.66742440
  PAW double counting   =      1131.34293436     -856.43088358
  entropy T*S    EENTRO =        -0.00000000
  eigenvalues    EBANDS =      -145.64428637
  atomic energy  EATOM  =       702.42789710
  Solvation  Ediel_sol  =         0.00000000
  ---------------------------------------------------
  free energy    TOTEN  =       -16.25732668 eV

  energy without entropy =      -16.25732668  energy(sigma->0) =      -16.25732668


--------------------------------------------------------------------------------------------------------




--------------------------------------- Iteration      1(  11)  ---------------------------------------


    POTLOK:  cpu time    0.0459: real time    0.0461
    SETDIJ:  cpu time    0.0057: real time    0.0057
     EDDAV:  cpu time    2.9923: real time    3.0007
       DOS:  cpu time    0.0032: real time    0.0033
    CHARGE:  cpu time    0.1896: real time    0.1901
    MIXING:  cpu time    0.0017: real time    0.0017
    --------------------------------------------
      LOOP:  cpu time    3.2384: real time    3.2474

 eigenvalue-minimisations  :  4286
 total energy-change (2. order) : 0.7286302E-03  (-0.1229138E-03)
 number of electron      19.9999999 magnetization 
 augmentation part       -4.4805026 magnetization 

 Broyden mixing:
  rms(total) = 0.31789E-02    rms(broyden)= 0.31789E-02
  rms(prec ) = 0.50000E-02
  weight for this iteration     100.00

 eigenvalues of (default mixing * dielectric matrix)
  average eigenvalue GAMMA=   1.8463
  3.4044  2.3871  2.0114  1.1862  1.1862  0.9026

 Free energy of the ion-electron system (eV)
  ---------------------------------------------------
  alpha Z        PSCENC =         9.41081520
  Ewald energy   TEWEN  =      1173.22068046
  -Hartree energ DENC   =     -1794.50581089
  -exchange      EXHF   =         0.00000000
  -V(xc)+E(xc)   XCENC  =      -237.63656721
  PAW double counting   =      1132.59429844     -857.68110549
  entropy T*S    EENTRO =        -0.00000000
  eigenvalues    EBANDS =      -144.08680567
  atomic energy  EATOM  =       702.42789710
  Solvation  Ediel_sol  =         0.00000000
  ---------------------------------------------------
  free energy    TOTEN  =       -16.25659805 eV

  energy without entropy =      -16.25659805  energy(sigma->0) =      -16.25659805


--------------------------------------------------------------------------------------------------------




--------------------------------------- Iteration      1(  12)  ---------------------------------------


    POTLOK:  cpu time    0.0506: real time    0.0509
    SETDIJ:  cpu time    0.0038: real time    0.0038
     EDDAV:  cpu time    2.6471: real time    2.6549
       DOS:  cpu time    0.0032: real time    0.0032
    CHARGE:  cpu time    0.1811: real time    0.1816
    MIXING:  cpu time    0.0018: real time    0.0018
    --------------------------------------------
      LOOP:  cpu time    2.8876: real time    2.8961

 eigenvalue-minimisations  :  3578
 total energy-change (2. order) :-0.8805355E-03  (-0.2833683E-04)
 number of electron      19.9999999 magnetization 
 augmentation part       -4.4798275 magnetization 

 Broyden mixing:
  rms(total) = 0.16184E-02    rms(broyden)= 0.16184E-02
  rms(prec ) = 0.26044E-02
  weight for this iteration     100.00

 eigenvalues of (default mixing * dielectric matrix)
  average eigenvalue GAMMA=   2.0663
  4.6260  3.0739  2.5022  1.1950  1.1950  1.0193  0.8526

 Free energy of the ion-electron system (eV)
  ---------------------------------------------------
  alpha Z        PSCENC =         9.41081520
  Ewald energy   TEWEN  =      1173.22068046
  -Hartree energ DENC   =     -1795.20850784
  -exchange      EXHF   =         0.00000000
  -V(xc)+E(xc)   XCENC  =      -237.62704074
  PAW double counting   =      1133.79996537     -858.88876383
  entropy T*S    EENTRO =        -0.00000000
  eigenvalues    EBANDS =      -143.39252431
  atomic energy  EATOM  =       702.42789710
  Solvation  Ediel_sol  =         0.00000000
  ---------------------------------------------------
  free energy    TOTEN  =       -16.25747859 eV

  energy without entropy =      -16.25747859  energy(sigma->0) =      -16.25747859


--------------------------------------------------------------------------------------------------------




--------------------------------------- Iteration      1(  13)  ---------------------------------------


    POTLOK:  cpu time    0.0445: real time    0.0447
    SETDIJ:  cpu time    0.0040: real time    0.0040
     EDDAV:  cpu time    2.7481: real time    2.7559
       DOS:  cpu time    0.0033: real time    0.0033
    CHARGE:  cpu time    0.1793: real time    0.1797
    MIXING:  cpu time    0.0017: real time    0.0017
    --------------------------------------------
      LOOP:  cpu time    2.9809: real time    2.9893

 eigenvalue-minimisations  :  3764
 total energy-change (2. order) :-0.4271737E-03  (-0.7111986E-05)
 number of electron      19.9999999 magnetization 
 augmentation part       -4.4796397 magnetization 

 Broyden mixing:
  rms(total) = 0.10703E-02    rms(broyden)= 0.10703E-02
  rms(prec ) = 0.14556E-02
  weight for this iteration     100.00

 eigenvalues of (default mixing * dielectric matrix)
  average eigenvalue GAMMA=   2.2716
  5.8710  3.2384  2.4360  2.3360  1.1587  1.1587  1.0564  0.9175

 Free energy of the ion-electron system (eV)
  ---------------------------------------------------
  alpha Z        PSCENC =         9.41081520
  Ewald energy   TEWEN  =      1173.22068046
  -Hartree energ DENC   =     -1795.59823377
  -exchange      EXHF   =         0.00000000
  -V(xc)+E(xc)   XCENC  =      -237.62551055
  PAW double counting   =      1133.00944188     -858.09736006
  entropy T*S    EENTRO =        -0.00000000
  eigenvalues    EBANDS =      -143.00563603
  atomic energy  EATOM  =       702.42789710
  Solvation  Ediel_sol  =         0.00000000
  ---------------------------------------------------
  free energy    TOTEN  =       -16.25790576 eV

  energy without entropy =      -16.25790576  energy(sigma->0) =      -16.25790576


--------------------------------------------------------------------------------------------------------




--------------------------------------- Iteration      1(  14)  ---------------------------------------


    POTLOK:  cpu time    0.0474: real time    0.0477
    SETDIJ:  cpu time    0.0038: real time    0.0038
     EDDAV:  cpu time    2.8212: real time    2.8293
       DOS:  cpu time    0.0032: real time    0.0033
    CHARGE:  cpu time    0.1794: real time    0.1799
    MIXING:  cpu time    0.0018: real time    0.0018
    --------------------------------------------
      LOOP:  cpu time    3.0568: real time    3.0656

 eigenvalue-minimisations  :  3914
 total energy-change (2. order) :-0.3024821E-03  (-0.4200435E-05)
 number of electron      19.9999999 magnetization 
 augmentation part       -4.4796124 magnetization 

 Broyden mixing:
  rms(total) = 0.39998E-03    rms(broyden)= 0.39998E-03
  rms(prec ) = 0.60450E-03
  weight for this iteration     100.00

 eigenvalues of (default mixing * dielectric matrix)
  average eigenvalue GAMMA=   2.2603
  6.8067  3.0867  2.5446  2.5446  1.1768  1.1768  0.9479  1.0295  1.0295

 Free energy of the ion-electron system (eV)
  ---------------------------------------------------
  alpha Z        PSCENC =         9.41081520
  Ewald energy   TEWEN  =      1173.22068046
  -Hartree energ DENC   =     -1795.81173124
  -exchange      EXHF   =         0.00000000
  -V(xc)+E(xc)   XCENC  =      -237.62550034
  PAW double counting   =      1133.16023056     -858.24756936
  entropy T*S    EENTRO =        -0.00000000
  eigenvalues    EBANDS =      -142.79303063
  atomic energy  EATOM  =       702.42789710
  Solvation  Ediel_sol  =         0.00000000
  ---------------------------------------------------
  free energy    TOTEN  =       -16.25820824 eV

  energy without entropy =      -16.25820824  energy(sigma->0) =      -16.25820824


--------------------------------------------------------------------------------------------------------




--------------------------------------- Iteration      1(  15)  ---------------------------------------


    POTLOK:  cpu time    0.0454: real time    0.0456
    SETDIJ:  cpu time    0.0039: real time    0.0038
     EDDAV:  cpu time    2.8168: real time    2.8251
       DOS:  cpu time    0.0033: real time    0.0034
    CHARGE:  cpu time    0.1797: real time    0.1802
    MIXING:  cpu time    0.0018: real time    0.0018
    --------------------------------------------
      LOOP:  cpu time    3.0509: real time    3.0598

 eigenvalue-minimisations  :  3938
 total energy-change (2. order) :-0.5499885E-04  (-0.2233204E-06)
 number of electron      19.9999999 magnetization 
 augmentation part       -4.4796301 magnetization 

 Broyden mixing:
  rms(total) = 0.30091E-03    rms(broyden)= 0.30091E-03
  rms(prec ) = 0.46466E-03
  weight for this iteration     100.00

 eigenvalues of (default mixing * dielectric matrix)
  average eigenvalue GAMMA=   2.3692
  6.6477  4.2921  2.6927  2.6927  2.0005  1.1399  1.1399  1.2012  0.9426  0.9426

 Free energy of the ion-electron system (eV)
  ---------------------------------------------------
  alpha Z        PSCENC =         9.41081520
  Ewald energy   TEWEN  =      1173.22068046
  -Hartree energ DENC   =     -1795.82073004
  -exchange      EXHF   =         0.00000000
  -V(xc)+E(xc)   XCENC  =      -237.62586300
  PAW double counting   =      1132.99350989     -858.08077237
  entropy T*S    EENTRO =        -0.00000000
  eigenvalues    EBANDS =      -142.78380049
  atomic energy  EATOM  =       702.42789710
  Solvation  Ediel_sol  =         0.00000000
  ---------------------------------------------------
  free energy    TOTEN  =       -16.25826324 eV

  energy without entropy =      -16.25826324  energy(sigma->0) =      -16.25826324


--------------------------------------------------------------------------------------------------------




--------------------------------------- Iteration      1(  16)  ---------------------------------------


    POTLOK:  cpu time    0.0444: real time    0.0446
    SETDIJ:  cpu time    0.0038: real time    0.0038
     EDDAV:  cpu time    2.5851: real time    2.5926
       DOS:  cpu time    0.0032: real time    0.0032
    CHARGE:  cpu time    0.1838: real time    0.1842
    MIXING:  cpu time    0.0019: real time    0.0019
    --------------------------------------------
      LOOP:  cpu time    2.8222: real time    2.8303

 eigenvalue-minimisations  :  3510
 total energy-change (2. order) :-0.4368454E-04  (-0.8508483E-06)
 number of electron      19.9999999 magnetization 
 augmentation part       -4.4796395 magnetization 

 Broyden mixing:
  rms(total) = 0.10539E-03    rms(broyden)= 0.10539E-03
  rms(prec ) = 0.20623E-03
  weight for this iteration     100.00

 eigenvalues of (default mixing * dielectric matrix)
  average eigenvalue GAMMA=   2.2888
  6.8573  4.5107  2.6526  2.6526  2.2419  1.1495  1.1495  1.2068  0.9463  0.9463
  0.8633

 Free energy of the ion-electron system (eV)
  ---------------------------------------------------
  alpha Z        PSCENC =         9.41081520
  Ewald energy   TEWEN  =      1173.22068046
  -Hartree energ DENC   =     -1795.87050452
  -exchange      EXHF   =         0.00000000
  -V(xc)+E(xc)   XCENC  =      -237.62587447
  PAW double counting   =      1132.89718332     -857.98447916
  entropy T*S    EENTRO =        -0.00000000
  eigenvalues    EBANDS =      -142.73402486
  atomic energy  EATOM  =       702.42789710
  Solvation  Ediel_sol  =         0.00000000
  ---------------------------------------------------
  free energy    TOTEN  =       -16.25830693 eV

  energy without entropy =      -16.25830693  energy(sigma->0) =      -16.25830693


--------------------------------------------------------------------------------------------------------




--------------------------------------- Iteration      1(  17)  ---------------------------------------


    POTLOK:  cpu time    0.0442: real time    0.0444
    SETDIJ:  cpu time    0.0038: real time    0.0039
     EDDAV:  cpu time    2.3447: real time    2.3517
       DOS:  cpu time    0.0033: real time    0.0033
    CHARGE:  cpu time    0.1811: real time    0.1815
    MIXING:  cpu time    0.0020: real time    0.0020
    --------------------------------------------
[...]
      3      -8.7049      2.00000
      4      -8.5353      2.00000
      5      -6.3913      2.00000
      6      -5.5540      2.00000
      7      -5.0978      2.00000
      8      -4.3477      2.00000
      9      -3.9400      2.00000
     10      -3.4207      2.00000
     11       0.5024      0.00000
     12       1.3025      0.00000
     13       1.5696      0.00000
     14       2.2002      0.00000

 k-point    95 :      -0.2667    0.4000    0.0000
  band No.  band energies     occupation 
      1     -14.5767      2.00000
      2     -14.3370      2.00000
      3      -8.8780      2.00000
      4      -8.6429      2.00000
      5      -6.0889      2.00000
      6      -5.1379      2.00000
      7      -4.8759      2.00000
      8      -4.1003      2.00000
      9      -3.8439      2.00000
     10      -3.1103      2.00000
     11       0.1083      0.00000
     12       1.0525      0.00000
     13       1.1306      0.00000
     14       1.5529      0.00000

 k-point    96 :      -0.2000    0.4000    0.0000
  band No.  band energies     occupation 
      1     -14.6477      2.00000
      2     -14.3582      2.00000
      3      -9.0354      2.00000
      4      -8.7453      2.00000
      5      -5.6644      2.00000
      6      -4.8406      2.00000
      7      -4.6085      2.00000
      8      -3.9773      2.00000
      9      -3.4858      2.00000
     10      -2.7084      2.00000
     11      -0.3660      0.00000
     12       0.5239      0.00000
     13       0.6827      0.00000
     14       1.1859      0.00000

 k-point    97 :      -0.1333    0.4000    0.0000
  band No.  band energies     occupation 
      1     -14.7052      2.00000
      2     -14.3792      2.00000
      3      -9.1568      2.00000
      4      -8.8275      2.00000
      5      -5.1579      2.00000
      6      -4.7898      2.00000
      7      -4.1787      2.00000
      8      -3.9366      2.00000
      9      -2.9336      2.00000
     10      -2.4680      2.00000
     11      -0.6464      0.00000
     12      -0.2034      0.00000
     13       0.4619      0.00000
     14       0.7446      0.00000

 k-point    98 :      -0.0667    0.4000    0.0000
  band No.  band energies     occupation 
      1     -14.7430      2.00000
      2     -14.3938      2.00000
      3      -9.2313      2.00000
      4      -8.8791      2.00000
      5      -4.7979      2.00000
      6      -4.6315      2.00000
      7      -3.9603      2.00000
      8      -3.7677      2.00000
      9      -2.6491      2.00000
     10      -2.3744      2.00000
     11      -0.7939      0.00000
     12      -0.3872      0.00000
     13       0.1895      0.00000
     14       0.3428      0.00000

 k-point    99 :      -0.0000    0.4667    0.0000
  band No.  band energies     occupation 
      1     -14.6135      2.00000
      2     -14.4898      2.00000
      3      -9.2382      2.00000
      4      -9.1148      2.00000
      5      -4.5617      2.00000
      6      -4.3433      2.00000
      7      -3.8861      2.00000
      8      -3.6928      2.00000
      9      -2.5888      2.00000
     10      -2.2480      2.00000
     11      -0.9253      0.00000
     12      -0.4891      0.00000
     13      -0.0940      0.00000
     14       0.1048      0.00000

 k-point   100 :       0.0667    0.4667    0.0000
  band No.  band energies     occupation 
      1     -14.6055      2.00000
      2     -14.4799      2.00000
      3      -9.2089      2.00000
      4      -9.0888      2.00000
      5      -4.5819      2.00000
      6      -4.4390      2.00000
      7      -4.0370      2.00000
      8      -3.9120      2.00000
      9      -2.5399      2.00000
     10      -2.3831      2.00000
     11      -0.8310      0.00000
     12      -0.7273      0.00000
     13       0.2596      0.00000
     14       0.5749      0.00000

 k-point   101 :       0.1333    0.4667    0.0000
  band No.  band energies     occupation 
      1     -14.5784      2.00000
      2     -14.4556      2.00000
      3      -9.1250      2.00000
      4      -9.0150      2.00000
      5      -4.8490      2.00000
      6      -4.7054      2.00000
      7      -4.2674      2.00000
      8      -4.1581      2.00000
      9      -2.8590      2.00000
     10      -2.6958      2.00000
     11      -0.5902      0.00000
     12      -0.3333      0.00000
     13       0.7562      0.00000
     14       0.8578      0.00000

 k-point   102 :       0.2000    0.4667    0.0000
  band No.  band energies     occupation 
      1     -14.5359      2.00000
      2     -14.4208      2.00000
      3      -8.9897      2.00000
      4      -8.8982      2.00000
      5      -5.3716      2.00000
      6      -5.0803      2.00000
      7      -4.4415      2.00000
      8      -4.2405      2.00000
      9      -3.3922      2.00000
     10      -3.0957      2.00000
     11      -0.0721      0.00000
     12       0.3244      0.00000
     13       0.9766      0.00000
     14       1.2164      0.00000

 k-point   103 :       0.2667    0.4667    0.0000
  band No.  band energies     occupation 
      1     -14.4838      2.00000
      2     -14.3815      2.00000
      3      -8.8108      2.00000
      4      -8.7483      2.00000
      5      -5.8590      2.00000
      6      -5.5235      2.00000
      7      -4.6296      2.00000
      8      -4.4200      2.00000
      9      -3.7551      2.00000
     10      -3.4354      2.00000
     11       0.4458      0.00000
     12       0.8318      0.00000
     13       1.3698      0.00000
     14       1.6510      0.00000

 k-point   104 :       0.3333    0.4667    0.0000
  band No.  band energies     occupation 
      1     -14.4298      2.00000
      2     -14.3455      2.00000
      3      -8.6044      2.00000
      4      -8.5823      2.00000
      5      -6.2628      2.00000
      6      -5.9200      2.00000
      7      -4.9365      2.00000
      8      -4.7228      2.00000
      9      -3.8714      2.00000
     10      -3.6023      2.00000
     11       0.8037      0.00000
     12       1.0822      0.00000
     13       1.9162      0.00000
     14       2.2470      0.00000

 k-point   105 :       0.4000    0.4667   -0.0000
  band No.  band energies     occupation 
      1     -14.3823      2.00000
      2     -14.3208      2.00000
      3      -8.4290      2.00000
      4      -8.4043      2.00000
      5      -6.5482      2.00000
      6      -6.2446      2.00000
      7      -5.2059      2.00000
      8      -5.0359      2.00000
      9      -3.8665      2.00000
     10      -3.6692      2.00000
     11       1.0515      0.00000
     12       1.2033      0.00000
     13       2.4079      0.00000
     14       2.7054      0.00000

 k-point   106 :       0.4667    0.4667   -0.0000
  band No.  band energies     occupation 
      1     -14.3489      2.00000
      2     -14.3138      2.00000
      3      -8.3323      2.00000
      4      -8.2737      2.00000
      5      -6.6668      2.00000
      6      -6.4742      2.00000
      7      -5.3177      2.00000
      8      -5.2543      2.00000
      9      -3.8291      2.00000
     10      -3.7095      2.00000
     11       1.2143      0.00000
     12       1.2351      0.00000
     13       2.6507      0.00000
     14       2.7747      0.00000

 k-point   107 :      -0.4667    0.4667    0.0000
  band No.  band energies     occupation 
      1     -14.3345      2.00000
      2     -14.3280      2.00000
      3      -8.3395      2.00000
      4      -8.2754      2.00000
      5      -6.5784      2.00000
      6      -6.5614      2.00000
      7      -5.3216      2.00000
      8      -5.2402      2.00000
      9      -3.7883      2.00000
     10      -3.7494      2.00000
     11       1.1777      0.00000
     12       1.2729      0.00000
     13       2.6908      0.00000
     14       2.7468      0.00000

 k-point   108 :      -0.4000    0.4667    0.0000
  band No.  band energies     occupation 
      1     -14.3622      2.00000
      2     -14.3403      2.00000
      3      -8.4579      2.00000
      4      -8.3948      2.00000
      5      -6.4735      2.00000
      6      -6.3158      2.00000
      7      -5.2187      2.00000
      8      -5.0007      2.00000
      9      -3.7870      2.00000
     10      -3.7450      2.00000
     11       1.0340      0.00000
     12       1.2232      0.00000
     13       2.4625      0.00000
     14       2.6176      0.00000

 k-point   109 :      -0.3333    0.4667    0.0000
  band No.  band energies     occupation 
      1     -14.4114      2.00000
      2     -14.3629      2.00000
      3      -8.6402      2.00000
      4      -8.5676      2.00000
      5      -6.2269      2.00000
      6      -5.9470      2.00000
      7      -4.9726      2.00000
      8      -4.6683      2.00000
      9      -3.7940      2.00000
     10      -3.6682      2.00000
     11       0.8096      0.00000
     12       1.0784      0.00000
     13       1.9716      0.00000
     14       2.1777      0.00000

 k-point   110 :      -0.2667    0.4667   -0.0000
  band No.  band energies     occupation 
      1     -14.4680      2.00000
      2     -14.3961      2.00000
      3      -8.8331      2.00000
      4      -8.7451      2.00000
      5      -5.8561      2.00000
      6      -5.5116      2.00000
      7      -4.6810      2.00000
      8      -4.3678      2.00000
      9      -3.6926      2.00000
     10      -3.4685      2.00000
     11       0.4735      0.00000
     12       0.8038      0.00000
     13       1.4054      0.00000
     14       1.6109      0.00000

 k-point   111 :      -0.2000    0.4667    0.0000
  band No.  band energies     occupation 
      1     -14.5235      2.00000
      2     -14.4321      2.00000
      3      -9.0030      2.00000
      4      -8.9002      2.00000
      5      -5.3945      2.00000
      6      -5.0400      2.00000
      7      -4.4801      2.00000
      8      -4.2114      2.00000
      9      -3.3716      2.00000
     10      -3.0738      2.00000
     11      -0.0370      0.00000
     12       0.2831      0.00000
     13       0.9940      0.00000
     14       1.2016      0.00000

 k-point   112 :      -0.1333    0.4667    0.0000
  band No.  band energies     occupation 
      1     -14.5699      2.00000
      2     -14.4634      2.00000
      3      -9.1323      2.00000
      4      -9.0181      2.00000
      5      -4.8901      2.00000
      6      -4.6654      2.00000
      7      -4.2769      2.00000
      8      -4.1419      2.00000
      9      -2.8775      2.00000
     10      -2.6292      2.00000
     11      -0.5700      0.00000
     12      -0.3624      0.00000
     13       0.7679      0.00000
     14       0.8646      0.00000

 k-point   113 :      -0.0667    0.4667    0.0000
  band No.  band energies     occupation 
      1     -14.6011      2.00000
      2     -14.4839      2.00000
      3      -9.2122      2.00000
      4      -9.0909      2.00000
      5      -4.5694      2.00000
      6      -4.4741      2.00000
      7      -4.0337      2.00000
      8      -3.8919      2.00000
      9      -2.4695      2.00000
     10      -2.4224      2.00000
     11      -0.8337      0.00000
     12      -0.7148      0.00000
     13       0.2701      0.00000
     14       0.5514      0.00000


--------------------------------------------------------------------------------------------------------


 soft charge-density along one line, spin component           1
         0         1         2         3         4         5         6         7         8         9
 total charge-density along one line
 
 pseudopotential strength for first ion, spin component:           1
 30.096 -23.442   0.006  -0.089   0.035   0.009  -0.141   0.055
-23.442  28.122  -0.003   0.050  -0.019  -0.005   0.082  -0.031
  0.006  -0.003   6.334   0.000   0.000   9.799   0.000   0.000
 -0.089   0.050   0.000   6.331   0.002   0.000   9.795   0.003
  0.035  -0.019   0.000   0.002   6.333   0.000   0.003   9.798
  0.009  -0.005   9.799   0.000   0.000  15.230   0.001   0.000
 -0.141   0.082   0.000   9.795   0.003   0.001  15.223   0.004
  0.055  -0.031   0.000   0.003   9.798   0.000   0.004  15.229
  0.000   0.000   0.007   0.000   0.001   0.011   0.000   0.002
  0.000  -0.000  -0.020   0.001   0.000  -0.031   0.002   0.000
 -0.002   0.003  -0.001  -0.023  -0.004  -0.001  -0.035  -0.006
  0.003  -0.002   0.000   0.008  -0.020   0.000   0.013  -0.031
 -0.000   0.000  -0.001  -0.000   0.008  -0.002  -0.000   0.013
 total augmentation occupancy for first ion, spin component:           1
  2.025  -0.015  -0.015   0.238  -0.088   0.003  -0.042   0.016   0.002   0.000   0.023   0.002  -0.000
 -0.015   0.009   0.004  -0.073   0.027  -0.001   0.018  -0.006  -0.000   0.000  -0.002   0.001  -0.000
 -0.015   0.004   1.509   0.001   0.002  -0.406  -0.003  -0.000   0.122  -0.042  -0.012   0.000   0.002
  0.238  -0.073   0.001   1.840  -0.001  -0.003  -0.486  -0.014   0.000  -0.002  -0.268  -0.016  -0.000
 -0.088   0.027   0.002  -0.001   1.494  -0.000  -0.014  -0.396   0.021   0.000  -0.077  -0.044  -0.006
  0.003  -0.001  -0.406  -0.003  -0.000   0.118   0.001   0.000  -0.033   0.012   0.003  -0.000  -0.001
 -0.042   0.018  -0.003  -0.486  -0.014   0.001   0.140   0.007  -0.000   0.001   0.074   0.004   0.000
  0.016  -0.006  -0.000  -0.014  -0.396   0.000   0.007   0.114  -0.006  -0.000   0.020   0.012   0.002
  0.002  -0.000   0.122   0.000   0.021  -0.033  -0.000  -0.006   0.076   0.001   0.001   0.000   0.000
  0.000   0.000  -0.042  -0.002   0.000   0.012   0.001  -0.000   0.001   0.021   0.001  -0.000  -0.000
  0.023  -0.002  -0.012  -0.268  -0.077   0.003   0.074   0.020   0.001   0.001   0.078   0.005   0.002
  0.002   0.001   0.000  -0.016  -0.044  -0.000   0.004   0.012   0.000  -0.000   0.005   0.022   0.001
 -0.000  -0.000   0.002  -0.000  -0.006  -0.001   0.000   0.002   0.000  -0.000   0.002   0.001   0.017


------------------------ aborting loop because EDIFF is reached ----------------------------------------


    CHARGE:  cpu time    0.1845: real time    0.1848
    FORLOC:  cpu time    0.0017: real time    0.0018
    FORNL :  cpu time    0.3329: real time    0.3335
    STRESS:  cpu time    0.7427: real time    0.7446
    FORCOR:  cpu time    0.0452: real time    0.0453
    FORHAR:  cpu time    0.0113: real time    0.0113
    MIXING:  cpu time    0.0030: real time    0.0030
    OFIELD:  cpu time    0.0000: real time    0.0000

  FORCE on cell =-STRESS in cart. coord.  units (eV):
  Direction    XX          YY          ZZ          XY          YZ          ZX
  --------------------------------------------------------------------------------------
  Alpha Z     9.41082     9.41082     9.41082
  Ewald    1636.46396  1640.55947 -2094.07984    -1.75445    18.57435    18.55294
  Hartree  1756.71445  1758.28486 -1709.88562    -0.66959    17.25189    17.24464
  E(xc)     -77.66753   -77.68134   -78.88861    -0.02197     0.00588     0.00600
  Local   -3645.79866 -3650.93657  3549.21942     2.46715   -35.81243   -35.78669
  n-local   162.53696   162.70978   167.20915     0.06051    -0.02190    -0.02300
  augment   -31.87456   -31.82267   -32.80183    -0.00684     0.00487     0.00460
  Kinetic   190.21538   189.50200   189.81508    -0.28484    -0.00388     0.00032
  Fock        0.00000     0.00000     0.00000     0.00000     0.00000     0.00000
  -------------------------------------------------------------------------------------
  Total       0.00081     0.02635    -0.00143    -0.21004    -0.00122    -0.00120
  in kB       0.00341     0.11112    -0.00603    -0.88568    -0.00515    -0.00505
  external pressure =        0.04 kB  Pullay stress =        0.00 kB


 VOLUME and BASIS-vectors are now :
 -----------------------------------------------------------------------------
  energy-cutoff  :      600.00
  volume of cell :      379.96
      direct lattice vectors                 reciprocal lattice vectors
     4.382356765  0.021911784  0.021911784     0.228199018 -0.001135375 -0.001124077
     0.021462389  4.292477857  0.021462389    -0.001159148  0.232977208 -0.001147614
     0.100000000  0.100000000 20.200000000    -0.000246305 -0.000246305  0.049507389

  length of vectors
     4.382466322  4.292585168 20.200495043     0.228204611  0.232982919  0.049508615


 FORCES acting on ions
    electron-ion (+dipol)            ewald-force                    non-local-force                 convergence-correction
 -----------------------------------------------------------------------------------------------
   0.491E+01 0.137E+01 -.145E+03   -.640E+01 -.163E+01 0.149E+03   0.149E+01 0.256E+00 -.380E+01   -.191E-03 0.168E-03 -.732E-03
   0.346E+01 -.691E-01 0.145E+03   -.492E+01 -.149E+00 -.149E+03   0.145E+01 0.218E+00 0.382E+01   0.139E-03 -.128E-03 -.254E-03
   -.419E+01 0.206E+00 -.207E+03   0.462E+01 -.153E+00 0.209E+03   -.428E+00 -.531E-01 -.204E+01   0.937E-03 -.823E-03 -.210E-02
   -.624E+01 -.185E+01 0.207E+03   0.669E+01 0.193E+01 -.209E+03   -.449E+00 -.723E-01 0.203E+01   -.682E-03 0.374E-03 -.450E-03
 -----------------------------------------------------------------------------------------------
   -.206E+01 -.348E+00 -.770E-02   -.266E-14 -.133E-14 -.284E-13   0.206E+01 0.349E+00 0.111E-01   0.203E-03 -.409E-03 -.353E-02
 
 
 POSITION                                       TOTAL-FORCE (eV/Angst)
 -----------------------------------------------------------------------------------
      2.60588      3.29577     11.50426        -0.000100     -0.000039      0.000132
      0.41761      1.15217      8.73191        -0.000053     -0.000023     -0.000124
      0.19331      1.09674     11.44682         0.000107     -0.000126     -0.000022
      2.40856      3.26718      8.78684         0.000046      0.000188      0.000014
 -----------------------------------------------------------------------------------
    total drift:                                0.000028     -0.000026     -0.000085


--------------------------------------------------------------------------------------------------------



  FREE ENERGIE OF THE ION-ELECTRON SYSTEM (eV)
  ---------------------------------------------------
  free  energy   TOTEN  =       -16.26336315 eV

  energy  without entropy=      -16.26336315  energy(sigma->0) =      -16.26336315
 
 d Force = 0.2353660E-06[-0.110E-07, 0.482E-06]  d Energy = 0.3048381E-06-0.695E-07
 d Force = 0.4983742E-01[ 0.498E-01, 0.498E-01]  d Ewald  = 0.4983742E-01-0.387E-11


--------------------------------------------------------------------------------------------------------


    POTLOK:  cpu time    0.0472: real time    0.0473


--------------------------------------------------------------------------------------------------------




--------------------------------------------------------------------------------------------------------


  
 reached required accuracy - stopping structural energy minimisation
 writing wavefunctions
     LOOP+:  cpu time    7.9320: real time    8.3495
    4ORBIT:  cpu time    0.0000: real time    0.0000

 total amount of memory used by VASP MPI-rank0    63751. kBytes
=======================================================================

   base      :      30000. kBytes
   nonl-proj :      12679. kBytes
   fftplans  :       2714. kBytes
   grid      :       4404. kBytes
   one-center:          8. kBytes
   wavefun   :      13946. kBytes
 
  
  
 General timing and accounting informations for this job:
 ========================================================
  
                  Total CPU time used (sec):      293.810
                            User time (sec):      291.370
                          System time (sec):        2.440
                         Elapsed time (sec):      304.746
  
                   Maximum memory used (kb):      210328.
                   Average memory used (kb):           0.
  
                          Minor page faults:      1561414
                          Major page faults:          138
                 Voluntary context switches:         9012
