 vasp.5.4.4.18Apr17-6-g9f103f2a35 (build Sep 16 2021 13:51:27) complex          
  
 executed on             LinuxIFC date 2023.03.16  12:57:39
 running on   24 total cores
 distrk:  each k-point on   24 cores,    1 groups
 distr:  one band on NCORES_PER_BAND=  24 cores,    1 groups


--------------------------------------------------------------------------------------------------------


 INCAR:
 POTCAR:    PAW_PBE Sn 08Apr2002                  
 POTCAR:    PAW_PBE Se 06Sep2000                  

 ----------------------------------------------------------------------------- 
|                                                                             |
|           W    W    AA    RRRRR   N    N  II  N    N   GGGG   !!!           |
|           W    W   A  A   R    R  NN   N  II  NN   N  G    G  !!!           |
|           W    W  A    A  R    R  N N  N  II  N N  N  G       !!!           |
|           W WW W  AAAAAA  RRRRR   N  N N  II  N  N N  G  GGG   !            |
|           WW  WW  A    A  R   R   N   NN  II  N   NN  G    G                |
|           W    W  A    A  R    R  N    N  II  N    N   GGGG   !!!           |
|                                                                             |
|      For optimal performance we recommend to set                            |
|        NCORE= 4 - approx SQRT( number of cores)                             |
|      NCORE specifies how many cores store one orbital (NPAR=cpu/NCORE).     |
|      This setting can  greatly improve the performance of VASP for DFT.     |
|      The default,   NCORE=1            might be grossly inefficient         |
|      on modern multi-core architectures or massively parallel machines.     |
|      Do your own testing !!!!                                               |
|      Unfortunately you need to use the default for GW and RPA calculations. |
|      (for HF NCORE is supported but not extensively tested yet)             |
|                                                                             |
 ----------------------------------------------------------------------------- 

 POTCAR:    PAW_PBE Sn 08Apr2002                  
   VRHFIN =Sn: s2p2                                                             
   LEXCH  = PE                                                                  
   EATOM  =    94.0860 eV,    6.9151 Ry                                         
                                                                                
   TITEL  = PAW_PBE Sn 08Apr2002                                                
   LULTRA =        F    use ultrasoft PP ?                                      
   IUNSCR =        1    unscreen: 0-lin 1-nonlin 2-no                           
   RPACOR =    2.000    partial core radius                                     
   POMASS =  118.710; ZVAL   =    4.000    mass and valenz                      
   RCORE  =    3.000    outmost cutoff radius                                   
   RWIGS  =    2.960; RWIGS  =    1.566    wigner-seitz radius (au A)           
   ENMAX  =  103.236; ENMIN  =   77.427 eV                                      
   ICORE  =        3    local potential                                         
   LCOR   =        T    correct aug charges                                     
   LPAW   =        T    paw PP                                                  
   EAUG   =  263.585                                                            
   DEXC   =    0.000                                                            
   RMAX   =    3.078    core radius for proj-oper                               
   RAUG   =    1.300    factor for augmentation sphere                          
   RDEP   =    3.022    radius for radial grids                                 
   RDEPT  =    2.655    core radius for aug-charge                              
                                                                                
   Atomic configuration                                                         
   13 entries                                                                   
     n  l   j            E        occ.                                          
     1  0  0.50    -29007.2859   2.0000                                         
     2  0  0.50     -4378.8056   2.0000                                         
     2  1  1.50     -3930.4293   6.0000                                         
     3  0  0.50      -845.0264   2.0000                                         
     3  1  1.50      -698.5725   6.0000                                         
     3  2  2.50      -473.2839  10.0000                                         
     4  0  0.50      -133.9036   2.0000                                         
     4  1  1.50       -89.6752   6.0000                                         
     4  2  2.50       -25.8375  10.0000                                         
     5  0  0.50       -10.5484   2.0000                                         
     5  1  0.50        -3.6940   2.0000                                         
     5  2  1.50        -1.3606   0.0000                                         
     4  3  2.50        -4.0817   0.0000                                         
   Description                                                                  
     l       E           TYP  RCUT    TYP  RCUT                                 
     0    -10.5483727     23  3.000                                             
     0     27.2116520     23  3.000                                             
     1     -3.6939829     23  3.000                                             
     1      1.9821976     23  3.000                                             
     2     -1.3605826     23  3.000                                             
     3     -2.7211652     23  3.000                                             
  local pseudopotential read in
  partial core-charges read in
  partial kinetic energy density read in
  atomic valenz-charges read in
  non local Contribution for L=           0  read in
    real space projection operators read in
  non local Contribution for L=           0  read in
    real space projection operators read in
  non local Contribution for L=           1  read in
    real space projection operators read in
  non local Contribution for L=           1  read in
    real space projection operators read in
  non local Contribution for L=           2  read in
    real space projection operators read in
    PAW grid and wavefunctions read in
 
   number of l-projection  operators is LMAX  =           5
   number of lm-projection operators is LMMAX =          13
 
 POTCAR:    PAW_PBE Se 06Sep2000                  
   VRHFIN =Se: s2p4                                                             
   LEXCH  = PE                                                                  
   EATOM  =   257.1286 eV,   18.8984 Ry                                         
                                                                                
   TITEL  = PAW_PBE Se 06Sep2000                                                
   LULTRA =        F    use ultrasoft PP ?                                      
   IUNSCR =        1    unscreen: 0-lin 1-nonlin 2-no                           
   RPACOR =    1.900    partial core radius                                     
   POMASS =   78.960; ZVAL   =    6.000    mass and valenz                      
   RCORE  =    2.100    outmost cutoff radius                                   
   RWIGS  =    2.200; RWIGS  =    1.164    wigner-seitz radius (au A)           
   ENMAX  =  211.555; ENMIN  =  158.666 eV                                      
   ICORE  =        3    local potential                                         
   LCOR   =        T    correct aug charges                                     
   LPAW   =        T    paw PP                                                  
   EAUG   =  446.842                                                            
   DEXC   =    0.000                                                            
   RMAX   =    2.147    core radius for proj-oper                               
   RAUG   =    1.300    factor for augmentation sphere                          
   RDEP   =    2.177    radius for radial grids                                 
   RDEPT  =    1.928    core radius for aug-charge                              
                                                                                
   Atomic configuration                                                         
   10 entries                                                                   
     n  l   j            E        occ.                                          
     1  0  0.50    -12503.4787   2.0000                                         
     2  0  0.50     -1606.9547   2.0000                                         
     2  1  1.50     -1413.3140   6.0000                                         
     3  0  0.50      -213.4885   2.0000                                         
     3  1  1.50      -152.9538   6.0000                                         
     3  2  2.50       -53.1221  10.0000                                         
     4  0  0.50       -17.2865   2.0000                                         
     4  1  0.50        -6.5110   4.0000                                         
     4  2  2.50        -6.8029   0.0000                                         
     4  3  2.50        -6.8029   0.0000                                         
   Description                                                                  
     l       E           TYP  RCUT    TYP  RCUT                                 
     0    -17.2865377     23  2.100                                             
     0    -15.3094411     23  2.100                                             
     1     -6.5110275     23  2.100                                             
     1     -0.0695192     23  2.100                                             
     2     -6.8029130     23  2.100                                             
     3     -1.3605826      7  2.100                                             
  local pseudopotential read in
  partial core-charges read in
  partial kinetic energy density read in
  atomic valenz-charges read in
  non local Contribution for L=           0  read in
    real space projection operators read in
  non local Contribution for L=           0  read in
    real space projection operators read in
  non local Contribution for L=           1  read in
    real space projection operators read in
  non local Contribution for L=           1  read in
    real space projection operators read in
  non local Contribution for L=           2  read in
    real space projection operators read in
    PAW grid and wavefunctions read in
 
   number of l-projection  operators is LMAX  =           5
   number of lm-projection operators is LMMAX =          13
 
 WARNING: PSMAXN for non-local potential too small
          PSMAXN should be >   12.5490833729506       NTYP=           1
  PAW_PBE Sn 08Apr2002                  :
 energy of atom  1       EATOM=  -94.0860
 kinetic energy error for atom=    0.0000 (will be added to EATOM!!)
  PAW_PBE Se 06Sep2000                  :
 energy of atom  2       EATOM= -257.1286
 kinetic energy error for atom=    0.0006 (will be added to EATOM!!)
 
 
 POSCAR:  POSCAR with strain of -0.007           
  positions in direct lattice
  No initial velocities read in
 exchange correlation table for  LEXCH =        8
   RHO(1)=    0.500       N(1)  =     2000
   RHO(2)=  100.500       N(2)  =     4000
 


--------------------------------------------------------------------------------------------------------


 ion  position               nearest neighbor table
   1  0.581  0.750  0.569-   4 2.72   3 2.91   3 2.91   3 3.21   3 3.21
   2  0.081  0.250  0.431-   3 2.72   4 2.91   4 2.91   4 3.21   4 3.21
   3  0.033  0.250  0.567-   2 2.72   1 2.91   1 2.91   1 3.21   1 3.21
   4  0.533  0.750  0.433-   1 2.72   2 2.91   2 2.91   2 3.21   2 3.21
 

IMPORTANT INFORMATION: All symmetrisations will be switched off!
NOSYMM: (Re-)initialisation of all symmetry stuff for point group C_1.

 
 
 KPOINTS: KMesh Grid                              

Automatic generation of k-mesh.
Space group operators:
 irot       det(A)        alpha          n_x          n_y          n_z        tau_x        tau_y        tau_z
    1     1.000000     0.000000     1.000000     0.000000     0.000000     0.000000     0.000000     0.000000
 
 Subroutine IBZKPT returns following result:
 ===========================================
 
 Found    113 irreducible k-points:
 
 Following reciprocal coordinates:
            Coordinates               Weight
  0.000000  0.000000  0.000000      1.000000
  0.066667  0.000000  0.000000      2.000000
  0.133333  0.000000  0.000000      2.000000
  0.200000  0.000000  0.000000      2.000000
  0.266667  0.000000  0.000000      2.000000
  0.333333  0.000000  0.000000      2.000000
  0.400000  0.000000  0.000000      2.000000
  0.466667  0.000000  0.000000      2.000000
  0.000000  0.066667  0.000000      2.000000
  0.066667  0.066667  0.000000      2.000000
  0.133333  0.066667  0.000000      2.000000
  0.200000  0.066667  0.000000      2.000000
  0.266667  0.066667  0.000000      2.000000
  0.333333  0.066667  0.000000      2.000000
  0.400000  0.066667  0.000000      2.000000
  0.466667  0.066667  0.000000      2.000000
 -0.466667  0.066667  0.000000      2.000000
 -0.400000  0.066667  0.000000      2.000000
 -0.333333  0.066667  0.000000      2.000000
 -0.266667  0.066667  0.000000      2.000000
 -0.200000  0.066667  0.000000      2.000000
 -0.133333  0.066667  0.000000      2.000000
 -0.066667  0.066667  0.000000      2.000000
  0.000000  0.133333  0.000000      2.000000
  0.066667  0.133333  0.000000      2.000000
  0.133333  0.133333  0.000000      2.000000
  0.200000  0.133333  0.000000      2.000000
  0.266667  0.133333  0.000000      2.000000
  0.333333  0.133333  0.000000      2.000000
  0.400000  0.133333  0.000000      2.000000
  0.466667  0.133333  0.000000      2.000000
 -0.466667  0.133333  0.000000      2.000000
 -0.400000  0.133333  0.000000      2.000000
 -0.333333  0.133333  0.000000      2.000000
 -0.266667  0.133333  0.000000      2.000000
 -0.200000  0.133333  0.000000      2.000000
 -0.133333  0.133333  0.000000      2.000000
 -0.066667  0.133333  0.000000      2.000000
  0.000000  0.200000  0.000000      2.000000
  0.066667  0.200000  0.000000      2.000000
  0.133333  0.200000  0.000000      2.000000
  0.200000  0.200000  0.000000      2.000000
  0.266667  0.200000  0.000000      2.000000
  0.333333  0.200000  0.000000      2.000000
  0.400000  0.200000  0.000000      2.000000
  0.466667  0.200000  0.000000      2.000000
 -0.466667  0.200000  0.000000      2.000000
 -0.400000  0.200000  0.000000      2.000000
 -0.333333  0.200000  0.000000      2.000000
 -0.266667  0.200000  0.000000      2.000000
 -0.200000  0.200000  0.000000      2.000000
 -0.133333  0.200000  0.000000      2.000000
 -0.066667  0.200000  0.000000      2.000000
  0.000000  0.266667  0.000000      2.000000
  0.066667  0.266667  0.000000      2.000000
  0.133333  0.266667  0.000000      2.000000
  0.200000  0.266667  0.000000      2.000000
  0.266667  0.266667  0.000000      2.000000
  0.333333  0.266667  0.000000      2.000000
  0.400000  0.266667  0.000000      2.000000
  0.466667  0.266667  0.000000      2.000000
 -0.466667  0.266667  0.000000      2.000000
 -0.400000  0.266667  0.000000      2.000000
 -0.333333  0.266667  0.000000      2.000000
 -0.266667  0.266667  0.000000      2.000000
 -0.200000  0.266667  0.000000      2.000000
 -0.133333  0.266667  0.000000      2.000000
 -0.066667  0.266667  0.000000      2.000000
  0.000000  0.333333  0.000000      2.000000
  0.066667  0.333333  0.000000      2.000000
  0.133333  0.333333  0.000000      2.000000
  0.200000  0.333333  0.000000      2.000000
  0.266667  0.333333  0.000000      2.000000
  0.333333  0.333333  0.000000      2.000000
  0.400000  0.333333  0.000000      2.000000
  0.466667  0.333333  0.000000      2.000000
 -0.466667  0.333333  0.000000      2.000000
 -0.400000  0.333333  0.000000      2.000000
 -0.333333  0.333333  0.000000      2.000000
 -0.266667  0.333333  0.000000      2.000000
 -0.200000  0.333333  0.000000      2.000000
 -0.133333  0.333333  0.000000      2.000000
 -0.066667  0.333333  0.000000      2.000000
  0.000000  0.400000  0.000000      2.000000
  0.066667  0.400000  0.000000      2.000000
  0.133333  0.400000  0.000000      2.000000
  0.200000  0.400000  0.000000      2.000000
  0.266667  0.400000  0.000000      2.000000
  0.333333  0.400000  0.000000      2.000000
  0.400000  0.400000  0.000000      2.000000
  0.466667  0.400000  0.000000      2.000000
 -0.466667  0.400000  0.000000      2.000000
 -0.400000  0.400000  0.000000      2.000000
 -0.333333  0.400000  0.000000      2.000000
 -0.266667  0.400000  0.000000      2.000000
 -0.200000  0.400000  0.000000      2.000000
 -0.133333  0.400000  0.000000      2.000000
 -0.066667  0.400000  0.000000      2.000000
  0.000000  0.466667  0.000000      2.000000
  0.066667  0.466667  0.000000      2.000000
  0.133333  0.466667  0.000000      2.000000
  0.200000  0.466667  0.000000      2.000000
  0.266667  0.466667  0.000000      2.000000
  0.333333  0.466667  0.000000      2.000000
  0.400000  0.466667  0.000000      2.000000
  0.466667  0.466667  0.000000      2.000000
 -0.466667  0.466667  0.000000      2.000000
 -0.400000  0.466667  0.000000      2.000000
 -0.333333  0.466667  0.000000      2.000000
 -0.266667  0.466667  0.000000      2.000000
 -0.200000  0.466667  0.000000      2.000000
 -0.133333  0.466667  0.000000      2.000000
 -0.066667  0.466667  0.000000      2.000000
 
 Following cartesian coordinates:
            Coordinates               Weight
  0.000000  0.000000  0.000000      1.000000
  0.015327  0.000000  0.000000      2.000000
  0.030655  0.000000  0.000000      2.000000
  0.045982  0.000000  0.000000      2.000000
  0.061310  0.000000  0.000000      2.000000
  0.076637  0.000000  0.000000      2.000000
  0.091965  0.000000  0.000000      2.000000
  0.107292  0.000000  0.000000      2.000000
  0.000000  0.015531  0.000000      2.000000
  0.015327  0.015531  0.000000      2.000000
  0.030655  0.015531  0.000000      2.000000
  0.045982  0.015531  0.000000      2.000000
  0.061310  0.015531  0.000000      2.000000
  0.076637  0.015531  0.000000      2.000000
  0.091965  0.015531  0.000000      2.000000
  0.107292  0.015531  0.000000      2.000000
 -0.107292  0.015531  0.000000      2.000000
 -0.091965  0.015531  0.000000      2.000000
 -0.076637  0.015531  0.000000      2.000000
 -0.061310  0.015531  0.000000      2.000000
 -0.045982  0.015531  0.000000      2.000000
 -0.030655  0.015531  0.000000      2.000000
 -0.015327  0.015531  0.000000      2.000000
  0.000000  0.031062  0.000000      2.000000
  0.015327  0.031062  0.000000      2.000000
  0.030655  0.031062  0.000000      2.000000
  0.045982  0.031062  0.000000      2.000000
  0.061310  0.031062  0.000000      2.000000
  0.076637  0.031062  0.000000      2.000000
  0.091965  0.031062  0.000000      2.000000
  0.107292  0.031062  0.000000      2.000000
 -0.107292  0.031062  0.000000      2.000000
 -0.091965  0.031062  0.000000      2.000000
 -0.076637  0.031062  0.000000      2.000000
 -0.061310  0.031062  0.000000      2.000000
 -0.045982  0.031062  0.000000      2.000000
 -0.030655  0.031062  0.000000      2.000000
 -0.015327  0.031062  0.000000      2.000000
  0.000000  0.046593  0.000000      2.000000
  0.015327  0.046593  0.000000      2.000000
  0.030655  0.046593  0.000000      2.000000
  0.045982  0.046593  0.000000      2.000000
  0.061310  0.046593  0.000000      2.000000
  0.076637  0.046593  0.000000      2.000000
  0.091965  0.046593  0.000000      2.000000
  0.107292  0.046593  0.000000      2.000000
 -0.107292  0.046593  0.000000      2.000000
 -0.091965  0.046593  0.000000      2.000000
 -0.076637  0.046593  0.000000      2.000000
 -0.061310  0.046593  0.000000      2.000000
 -0.045982  0.046593  0.000000      2.000000
 -0.030655  0.046593  0.000000      2.000000
 -0.015327  0.046593  0.000000      2.000000
  0.000000  0.062124  0.000000      2.000000
  0.015327  0.062124  0.000000      2.000000
  0.030655  0.062124  0.000000      2.000000
  0.045982  0.062124  0.000000      2.000000
  0.061310  0.062124  0.000000      2.000000
  0.076637  0.062124  0.000000      2.000000
  0.091965  0.062124  0.000000      2.000000
  0.107292  0.062124  0.000000      2.000000
 -0.107292  0.062124  0.000000      2.000000
 -0.091965  0.062124  0.000000      2.000000
 -0.076637  0.062124  0.000000      2.000000
 -0.061310  0.062124  0.000000      2.000000
 -0.045982  0.062124  0.000000      2.000000
 -0.030655  0.062124  0.000000      2.000000
 -0.015327  0.062124  0.000000      2.000000
  0.000000  0.077655  0.000000      2.000000
  0.015327  0.077655  0.000000      2.000000
  0.030655  0.077655  0.000000      2.000000
  0.045982  0.077655  0.000000      2.000000
  0.061310  0.077655  0.000000      2.000000
  0.076637  0.077655  0.000000      2.000000
  0.091965  0.077655  0.000000      2.000000
  0.107292  0.077655  0.000000      2.000000
 -0.107292  0.077655  0.000000      2.000000
 -0.091965  0.077655  0.000000      2.000000
 -0.076637  0.077655  0.000000      2.000000
 -0.061310  0.077655  0.000000      2.000000
 -0.045982  0.077655  0.000000      2.000000
 -0.030655  0.077655  0.000000      2.000000
 -0.015327  0.077655  0.000000      2.000000
  0.000000  0.093186  0.000000      2.000000
  0.015327  0.093186  0.000000      2.000000
  0.030655  0.093186  0.000000      2.000000
  0.045982  0.093186  0.000000      2.000000
  0.061310  0.093186  0.000000      2.000000
  0.076637  0.093186  0.000000      2.000000
  0.091965  0.093186  0.000000      2.000000
  0.107292  0.093186  0.000000      2.000000
 -0.107292  0.093186  0.000000      2.000000
 -0.091965  0.093186  0.000000      2.000000
 -0.076637  0.093186  0.000000      2.000000
 -0.061310  0.093186  0.000000      2.000000
 -0.045982  0.093186  0.000000      2.000000
 -0.030655  0.093186  0.000000      2.000000
 -0.015327  0.093186  0.000000      2.000000
  0.000000  0.108717  0.000000      2.000000
  0.015327  0.108717  0.000000      2.000000
  0.030655  0.108717  0.000000      2.000000
  0.045982  0.108717  0.000000      2.000000
  0.061310  0.108717  0.000000      2.000000
  0.076637  0.108717  0.000000      2.000000
  0.091965  0.108717  0.000000      2.000000
  0.107292  0.108717  0.000000      2.000000
 -0.107292  0.108717  0.000000      2.000000
 -0.091965  0.108717  0.000000      2.000000
 -0.076637  0.108717  0.000000      2.000000
 -0.061310  0.108717  0.000000      2.000000
 -0.045982  0.108717  0.000000      2.000000
 -0.030655  0.108717  0.000000      2.000000
 -0.015327  0.108717  0.000000      2.000000
 


--------------------------------------------------------------------------------------------------------




 Dimension of arrays:
   k-points           NKPTS =    113   k-points in BZ     NKDIM =    113   number of bands    NBANDS=     14
   number of dos      NEDOS =    301   number of ions     NIONS =      4
   non local maximal  LDIM  =      5   non local SUM 2l+1 LMDIM =     13
   total plane-waves  NPLWV = 207360
   max r-space proj   IRMAX =      1   max aug-charges    IRDMAX=  53648
   dimension x,y,z NGX =    36 NGY =   36 NGZ =  160
   dimension x,y,z NGXF=    72 NGYF=   72 NGZF=  320
   support grid    NGXF=    72 NGYF=   72 NGZF=  320
   ions per type =               2   2
   NGX,Y,Z   is equivalent  to a cutoff of  13.76, 13.94, 13.30 a.u.
   NGXF,Y,Z  is equivalent  to a cutoff of  27.52, 27.89, 26.60 a.u.

 SYSTEM =  SnSe                                    
 POSCAR =   POSCAR with strain of -0.007           

 Startparameter for this run:
   NWRITE =      2    write-flag & timer
   PREC   = accura    normal or accurate (medium, high low for compatibility)
   ISTART =      0    job   : 0-new  1-cont  2-samecut
   ICHARG =      2    charge: 1-file 2-atom 10-const
   ISPIN  =      1    spin polarized calculation?
   LNONCOLLINEAR =      F non collinear calculations
   LSORBIT =      F    spin-orbit coupling
   INIWAV =      1    electr: 0-lowe 1-rand  2-diag
   LASPH  =      F    aspherical Exc in radial PAW
   METAGGA=      F    non-selfconsistent MetaGGA calc.

 Electronic Relaxation 1
   ENCUT  =  600.0 eV  44.10 Ry    6.64 a.u.   8.69  8.57 39.94*2*pi/ulx,y,z
   ENINI  =  600.0     initial cutoff
   ENAUG  =  446.8 eV  augmentation charge cutoff
   NELM   =     60;   NELMIN=  2; NELMDL= -5     # of ELM steps 
   EDIFF  = 0.1E-05   stopping-criterion for ELM
   LREAL  =      F    real-space projection
   NLSPLINE    = F    spline interpolate recip. space projectors
   LCOMPAT=      F    compatible to vasp.4.4
   GGA_COMPAT  = T    GGA compatible to vasp.4.4-vasp.4.6
   LMAXPAW     = -100 max onsite density
   LMAXMIX     =    2 max onsite mixed and CHGCAR
   VOSKOWN=      0    Vosko Wilk Nusair interpolation
   ROPT   =    0.00000   0.00000
 Ionic relaxation
   EDIFFG = -.1E-02   stopping-criterion for IOM
   NSW    =    100    number of steps for IOM
   NBLOCK =      1;   KBLOCK =    100    inner block; outer block 
   IBRION =      2    ionic relax: 0-MD 1-quasi-New 2-CG
   NFREE  =      1    steps in history (QN), initial steepest desc. (CG)
   ISIF   =      2    stress and relaxation
   IWAVPR =     11    prediction:  0-non 1-charg 2-wave 3-comb
   ISYM   =      0    0-nonsym 1-usesym 2-fastsym
   LCORR  =      T    Harris-Foulkes like correction to forces

   POTIM  = 0.5000    time-step for ionic-motion
   TEIN   =    0.0    initial temperature
   TEBEG  =    0.0;   TEEND  =   0.0 temperature during run
   SMASS  =  -3.00    Nose mass-parameter (am)
   estimated Nose-frequenzy (Omega)   =  0.10E-29 period in steps =****** mass=  -0.432E-27a.u.
   SCALEE = 1.0000    scale energy and forces
   NPACO  =    256;   APACO  = 16.0  distance and # of slots for P.C.
   PSTRESS=    0.0 pullay stress

  Mass of Ions in am
   POMASS = 118.71 78.96
  Ionic Valenz
   ZVAL   =   4.00  6.00
  Atomic Wigner-Seitz radii
   RWIGS  =  -1.00 -1.00
  virtual crystal weights 
   VCA    =   1.00  1.00
   NELECT =      20.0000    total number of electrons
   NUPDOWN=      -1.0000    fix difference up-down

 DOS related values:
   EMIN   =  10.00;   EMAX   =-10.00  energy-range for DOS
   EFERMI =   0.00
   ISMEAR =     0;   SIGMA  =   0.10  broadening in eV -4-tet -1-fermi 0-gaus

 Electronic relaxation 2 (details)
   IALGO  =     38    algorithm
   LDIAG  =      T    sub-space diagonalisation (order eigenvalues)
   LSUBROT=      F    optimize rotation matrix (better conditioning)
   TURBO    =      0    0=normal 1=particle mesh
   IRESTART =      0    0=no restart 2=restart with 2 vectors
   NREBOOT  =      0    no. of reboots
   NMIN     =      0    reboot dimension
   EREF     =   0.00    reference energy to select bands
   IMIX   =      4    mixing-type and parameters
     AMIX     =   0.40;   BMIX     =  1.00
     AMIX_MAG =   1.60;   BMIX_MAG =  1.00
     AMIN     =   0.10
     WC   =   100.;   INIMIX=   1;  MIXPRE=   1;  MAXMIX= -45

 Intra band minimization:
   WEIMIN = 0.0010     energy-eigenvalue tresh-hold
   EBREAK =  0.18E-07  absolut break condition
   DEPER  =   0.30     relativ break condition  

   TIME   =   0.40     timestep for ELM

  volume/ion in A,a.u.               =      93.35       629.96
  Fermi-wavevector in a.u.,A,eV,Ry     =   0.617105  1.166160  5.181359  0.380819
  Thomas-Fermi vector in A             =   1.675072
 
 Write flags
   LWAVE        =      T    write WAVECAR
   LDOWNSAMPLE  =      F    k-point downsampling of WAVECAR
   LCHARG       =      T    write CHGCAR
   LVTOT        =      F    write LOCPOT, total local potential
   LVHAR        =      F    write LOCPOT, Hartree potential only
   LELF         =      F    write electronic localiz. function (ELF)
   LORBIT       =      0    0 simple, 1 ext, 2 COOP (PROOUT), +10 PAW based schemes


 Dipole corrections
   LMONO  =      F    monopole corrections only (constant potential shift)
   LDIPOL =      F    correct potential (dipole corrections)
   IDIPOL =      0    1-x, 2-y, 3-z, 4-all directions 
   EPSILON=  1.0000000 bulk dielectric constant

 Exchange correlation treatment:
   GGA     =    PE    GGA type
   LEXCH   =     8    internal setting for exchange type
   VOSKOWN=      0    Vosko Wilk Nusair interpolation
   LHFCALC =     F    Hartree Fock is set to
   LHFONE  =     F    Hartree Fock one center treatment
   AEXX    =    0.0000 exact exchange contribution

 Linear response parameters
   LEPSILON=     F    determine dielectric tensor
   LRPA    =     F    only Hartree local field effects (RPA)
   LNABLA  =     F    use nabla operator in PAW spheres
   LVEL    =     F    velocity operator in full k-point grid
   LINTERFAST=   F  fast interpolation
   KINTER  =     0    interpolate to denser k-point grid
   CSHIFT  =0.1000    complex shift for real part using Kramers Kronig
   OMEGAMAX=  -1.0    maximum frequency
   DEG_THRESHOLD= 0.2000000E-02 threshold for treating states as degnerate
   RTIME   =   -0.100 relaxation time in fs
  (WPLASMAI=    0.000 imaginary part of plasma frequency in eV, 0.658/RTIME)
   DFIELD  = 0.0000000 0.0000000 0.0000000 field for delta impulse in time
 
 Orbital magnetization related:
   ORBITALMAG=     F  switch on orbital magnetization
   LCHIMAG   =     F  perturbation theory with respect to B field
   DQ        =  0.001000  dq finite difference perturbation B field
   LLRAUG    =     F  two centre corrections for induced B field



--------------------------------------------------------------------------------------------------------


 conjugate gradient relaxation of ions
 charge density and potential will be updated during run
 non-spin polarized calculation
 Variant of blocked Davidson
 Davidson routine will perform the subspace rotation
 perform sub-space diagonalisation
    after iterative eigenvector-optimisation
 modified Broyden-mixing scheme, WC =      100.0
 initial mixing is a Kerker type mixing with AMIX =  0.4000 and BMIX =      1.0000
 Hartree-type preconditioning will be used
 using additional bands            4
 reciprocal scheme for non local part
 use partial core corrections
 calculate Harris-corrections to forces 
   (improved forces if not selfconsistent)
 use gradient corrections 
 use of overlap-Matrix (Vanderbilt PP)
 Gauss-broadening in eV      SIGMA  =   0.10


--------------------------------------------------------------------------------------------------------


  energy-cutoff  :      600.00
  volume of cell :      373.40
      direct lattice vectors                 reciprocal lattice vectors
     4.349489089  0.000000000  0.000000000     0.229912061  0.000000000  0.000000000
     0.000000000  4.292477857  0.000000000     0.000000000  0.232965675  0.000000000
     0.000000000  0.000000000 20.000000000     0.000000000  0.000000000  0.050000000

  length of vectors
     4.349489089  4.292477857 20.000000000     0.229912061  0.232965675  0.050000000


 
 k-points in units of 2pi/SCALE and weight: KMesh Grid                              
   0.00000000  0.00000000  0.00000000       0.004
   0.01532747  0.00000000  0.00000000       0.009
   0.03065494  0.00000000  0.00000000       0.009
   0.04598241  0.00000000  0.00000000       0.009
   0.06130988  0.00000000  0.00000000       0.009
   0.07663735  0.00000000  0.00000000       0.009
   0.09196482  0.00000000  0.00000000       0.009
   0.10729230  0.00000000  0.00000000       0.009
   0.00000000  0.01553104  0.00000000       0.009
   0.01532747  0.01553104  0.00000000       0.009
   0.03065494  0.01553104  0.00000000       0.009
   0.04598241  0.01553104  0.00000000       0.009
   0.06130988  0.01553104  0.00000000       0.009
   0.07663735  0.01553104  0.00000000       0.009
   0.09196482  0.01553104  0.00000000       0.009
   0.10729230  0.01553104  0.00000000       0.009
  -0.10729230  0.01553104  0.00000000       0.009
  -0.09196482  0.01553104  0.00000000       0.009
  -0.07663735  0.01553104  0.00000000       0.009
  -0.06130988  0.01553104  0.00000000       0.009
  -0.04598241  0.01553104  0.00000000       0.009
  -0.03065494  0.01553104  0.00000000       0.009
  -0.01532747  0.01553104  0.00000000       0.009
   0.00000000  0.03106209  0.00000000       0.009
   0.01532747  0.03106209  0.00000000       0.009
   0.03065494  0.03106209  0.00000000       0.009
   0.04598241  0.03106209  0.00000000       0.009
   0.06130988  0.03106209  0.00000000       0.009
   0.07663735  0.03106209  0.00000000       0.009
   0.09196482  0.03106209  0.00000000       0.009
   0.10729230  0.03106209  0.00000000       0.009
  -0.10729230  0.03106209  0.00000000       0.009
  -0.09196482  0.03106209  0.00000000       0.009
  -0.07663735  0.03106209  0.00000000       0.009
  -0.06130988  0.03106209  0.00000000       0.009
  -0.04598241  0.03106209  0.00000000       0.009
  -0.03065494  0.03106209  0.00000000       0.009
  -0.01532747  0.03106209  0.00000000       0.009
   0.00000000  0.04659313  0.00000000       0.009
   0.01532747  0.04659313  0.00000000       0.009
   0.03065494  0.04659313  0.00000000       0.009
   0.04598241  0.04659313  0.00000000       0.009
   0.06130988  0.04659313  0.00000000       0.009
   0.07663735  0.04659313  0.00000000       0.009
   0.09196482  0.04659313  0.00000000       0.009
   0.10729230  0.04659313  0.00000000       0.009
  -0.10729230  0.04659313  0.00000000       0.009
  -0.09196482  0.04659313  0.00000000       0.009
  -0.07663735  0.04659313  0.00000000       0.009
  -0.06130988  0.04659313  0.00000000       0.009
  -0.04598241  0.04659313  0.00000000       0.009
  -0.03065494  0.04659313  0.00000000       0.009
  -0.01532747  0.04659313  0.00000000       0.009
   0.00000000  0.06212418  0.00000000       0.009
   0.01532747  0.06212418  0.00000000       0.009
   0.03065494  0.06212418  0.00000000       0.009
   0.04598241  0.06212418  0.00000000       0.009
   0.06130988  0.06212418  0.00000000       0.009
   0.07663735  0.06212418  0.00000000       0.009
   0.09196482  0.06212418  0.00000000       0.009
   0.10729230  0.06212418  0.00000000       0.009
  -0.10729230  0.06212418  0.00000000       0.009
  -0.09196482  0.06212418  0.00000000       0.009
  -0.07663735  0.06212418  0.00000000       0.009
  -0.06130988  0.06212418  0.00000000       0.009
  -0.04598241  0.06212418  0.00000000       0.009
  -0.03065494  0.06212418  0.00000000       0.009
  -0.01532747  0.06212418  0.00000000       0.009
   0.00000000  0.07765522  0.00000000       0.009
   0.01532747  0.07765522  0.00000000       0.009
   0.03065494  0.07765522  0.00000000       0.009
   0.04598241  0.07765522  0.00000000       0.009
   0.06130988  0.07765522  0.00000000       0.009
   0.07663735  0.07765522  0.00000000       0.009
   0.09196482  0.07765522  0.00000000       0.009
   0.10729230  0.07765522  0.00000000       0.009
  -0.10729230  0.07765522  0.00000000       0.009
  -0.09196482  0.07765522  0.00000000       0.009
  -0.07663735  0.07765522  0.00000000       0.009
  -0.06130988  0.07765522  0.00000000       0.009
  -0.04598241  0.07765522  0.00000000       0.009
  -0.03065494  0.07765522  0.00000000       0.009
  -0.01532747  0.07765522  0.00000000       0.009
   0.00000000  0.09318627  0.00000000       0.009
   0.01532747  0.09318627  0.00000000       0.009
   0.03065494  0.09318627  0.00000000       0.009
   0.04598241  0.09318627  0.00000000       0.009
   0.06130988  0.09318627  0.00000000       0.009
   0.07663735  0.09318627  0.00000000       0.009
   0.09196482  0.09318627  0.00000000       0.009
   0.10729230  0.09318627  0.00000000       0.009
  -0.10729230  0.09318627  0.00000000       0.009
  -0.09196482  0.09318627  0.00000000       0.009
  -0.07663735  0.09318627  0.00000000       0.009
  -0.06130988  0.09318627  0.00000000       0.009
  -0.04598241  0.09318627  0.00000000       0.009
  -0.03065494  0.09318627  0.00000000       0.009
  -0.01532747  0.09318627  0.00000000       0.009
   0.00000000  0.10871731  0.00000000       0.009
   0.01532747  0.10871731  0.00000000       0.009
   0.03065494  0.10871731  0.00000000       0.009
   0.04598241  0.10871731  0.00000000       0.009
   0.06130988  0.10871731  0.00000000       0.009
   0.07663735  0.10871731  0.00000000       0.009
   0.09196482  0.10871731  0.00000000       0.009
   0.10729230  0.10871731  0.00000000       0.009
  -0.10729230  0.10871731  0.00000000       0.009
  -0.09196482  0.10871731  0.00000000       0.009
  -0.07663735  0.10871731  0.00000000       0.009
  -0.06130988  0.10871731  0.00000000       0.009
  -0.04598241  0.10871731  0.00000000       0.009
  -0.03065494  0.10871731  0.00000000       0.009
  -0.01532747  0.10871731  0.00000000       0.009
 
 k-points in reciprocal lattice and weights: KMesh Grid                              
   0.00000000  0.00000000  0.00000000       0.004
   0.06666667  0.00000000  0.00000000       0.009
   0.13333333  0.00000000  0.00000000       0.009
   0.20000000  0.00000000  0.00000000       0.009
   0.26666667  0.00000000  0.00000000       0.009
   0.33333333  0.00000000  0.00000000       0.009
   0.40000000  0.00000000  0.00000000       0.009
   0.46666667  0.00000000  0.00000000       0.009
   0.00000000  0.06666667  0.00000000       0.009
   0.06666667  0.06666667  0.00000000       0.009
   0.13333333  0.06666667  0.00000000       0.009
   0.20000000  0.06666667  0.00000000       0.009
   0.26666667  0.06666667  0.00000000       0.009
   0.33333333  0.06666667  0.00000000       0.009
   0.40000000  0.06666667  0.00000000       0.009
   0.46666667  0.06666667  0.00000000       0.009
  -0.46666667  0.06666667  0.00000000       0.009
  -0.40000000  0.06666667  0.00000000       0.009
  -0.33333333  0.06666667  0.00000000       0.009
  -0.26666667  0.06666667  0.00000000       0.009
  -0.20000000  0.06666667  0.00000000       0.009
  -0.13333333  0.06666667  0.00000000       0.009
  -0.06666667  0.06666667  0.00000000       0.009
   0.00000000  0.13333333  0.00000000       0.009
   0.06666667  0.13333333  0.00000000       0.009
   0.13333333  0.13333333  0.00000000       0.009
   0.20000000  0.13333333  0.00000000       0.009
   0.26666667  0.13333333  0.00000000       0.009
   0.33333333  0.13333333  0.00000000       0.009
   0.40000000  0.13333333  0.00000000       0.009
   0.46666667  0.13333333  0.00000000       0.009
  -0.46666667  0.13333333  0.00000000       0.009
  -0.40000000  0.13333333  0.00000000       0.009
  -0.33333333  0.13333333  0.00000000       0.009
  -0.26666667  0.13333333  0.00000000       0.009
  -0.20000000  0.13333333  0.00000000       0.009
  -0.13333333  0.13333333  0.00000000       0.009
  -0.06666667  0.13333333  0.00000000       0.009
   0.00000000  0.20000000  0.00000000       0.009
   0.06666667  0.20000000  0.00000000       0.009
   0.13333333  0.20000000  0.00000000       0.009
   0.20000000  0.20000000  0.00000000       0.009
   0.26666667  0.20000000  0.00000000       0.009
   0.33333333  0.20000000  0.00000000       0.009
   0.40000000  0.20000000  0.00000000       0.009
   0.46666667  0.20000000  0.00000000       0.009
  -0.46666667  0.20000000  0.00000000       0.009
  -0.40000000  0.20000000  0.00000000       0.009
  -0.33333333  0.20000000  0.00000000       0.009
  -0.26666667  0.20000000  0.00000000       0.009
  -0.20000000  0.20000000  0.00000000       0.009
  -0.13333333  0.20000000  0.00000000       0.009
  -0.06666667  0.20000000  0.00000000       0.009
   0.00000000  0.26666667  0.00000000       0.009
   0.06666667  0.26666667  0.00000000       0.009
   0.13333333  0.26666667  0.00000000       0.009
   0.20000000  0.26666667  0.00000000       0.009
   0.26666667  0.26666667  0.00000000       0.009
   0.33333333  0.26666667  0.00000000       0.009
   0.40000000  0.26666667  0.00000000       0.009
   0.46666667  0.26666667  0.00000000       0.009
  -0.46666667  0.26666667  0.00000000       0.009
  -0.40000000  0.26666667  0.00000000       0.009
  -0.33333333  0.26666667  0.00000000       0.009
  -0.26666667  0.26666667  0.00000000       0.009
  -0.20000000  0.26666667  0.00000000       0.009
  -0.13333333  0.26666667  0.00000000       0.009
  -0.06666667  0.26666667  0.00000000       0.009
   0.00000000  0.33333333  0.00000000       0.009
   0.06666667  0.33333333  0.00000000       0.009
   0.13333333  0.33333333  0.00000000       0.009
   0.20000000  0.33333333  0.00000000       0.009
   0.26666667  0.33333333  0.00000000       0.009
   0.33333333  0.33333333  0.00000000       0.009
   0.40000000  0.33333333  0.00000000       0.009
   0.46666667  0.33333333  0.00000000       0.009
  -0.46666667  0.33333333  0.00000000       0.009
  -0.40000000  0.33333333  0.00000000       0.009
  -0.33333333  0.33333333  0.00000000       0.009
  -0.26666667  0.33333333  0.00000000       0.009
  -0.20000000  0.33333333  0.00000000       0.009
  -0.13333333  0.33333333  0.00000000       0.009
  -0.06666667  0.33333333  0.00000000       0.009
   0.00000000  0.40000000  0.00000000       0.009
   0.06666667  0.40000000  0.00000000       0.009
   0.13333333  0.40000000  0.00000000       0.009
   0.20000000  0.40000000  0.00000000       0.009
   0.26666667  0.40000000  0.00000000       0.009
   0.33333333  0.40000000  0.00000000       0.009
   0.40000000  0.40000000  0.00000000       0.009
   0.46666667  0.40000000  0.00000000       0.009
  -0.46666667  0.40000000  0.00000000       0.009
  -0.40000000  0.40000000  0.00000000       0.009
  -0.33333333  0.40000000  0.00000000       0.009
  -0.26666667  0.40000000  0.00000000       0.009
  -0.20000000  0.40000000  0.00000000       0.009
  -0.13333333  0.40000000  0.00000000       0.009
  -0.06666667  0.40000000  0.00000000       0.009
   0.00000000  0.46666667  0.00000000       0.009
   0.06666667  0.46666667  0.00000000       0.009
   0.13333333  0.46666667  0.00000000       0.009
   0.20000000  0.46666667  0.00000000       0.009
   0.26666667  0.46666667  0.00000000       0.009
   0.33333333  0.46666667  0.00000000       0.009
   0.40000000  0.46666667  0.00000000       0.009
   0.46666667  0.46666667  0.00000000       0.009
  -0.46666667  0.46666667  0.00000000       0.009
  -0.40000000  0.46666667  0.00000000       0.009
  -0.33333333  0.46666667  0.00000000       0.009
  -0.26666667  0.46666667  0.00000000       0.009
  -0.20000000  0.46666667  0.00000000       0.009
  -0.13333333  0.46666667  0.00000000       0.009
  -0.06666667  0.46666667  0.00000000       0.009
 
 position of ions in fractional coordinates (direct lattice) 
   0.58124336  0.75000000  0.56874314
   0.08124336  0.25000000  0.43125686
   0.03286064  0.25000000  0.56707387
   0.53286061  0.75000000  0.43292613
 
 position of ions in cartesian coordinates  (Angst):
   2.52811164  3.21935839 11.37486283
   0.35336710  1.07311946  8.62513717
   0.14292701  1.07311946 11.34147733
   2.31767143  3.21935839  8.65852267
 


--------------------------------------------------------------------------------------------------------


 k-point  1 :   0.0000 0.0000 0.0000  plane waves:   12523
 k-point  2 :   0.0667 0.0000 0.0000  plane waves:   12511
 k-point  3 :   0.1333 0.0000 0.0000  plane waves:   12491
 k-point  4 :   0.2000 0.0000 0.0000  plane waves:   12463
 k-point  5 :   0.2667 0.0000 0.0000  plane waves:   12445
 k-point  6 :   0.3333 0.0000 0.0000  plane waves:   12482
 k-point  7 :   0.4000 0.0000 0.0000  plane waves:   12500
 k-point  8 :   0.4667 0.0000 0.0000  plane waves:   12484
 k-point  9 :   0.0000 0.0667 0.0000  plane waves:   12497
 k-point 10 :   0.0667 0.0667 0.0000  plane waves:   12487
 k-point 11 :   0.1333 0.0667 0.0000  plane waves:   12471
 k-point 12 :   0.2000 0.0667 0.0000  plane waves:   12475
 k-point 13 :   0.2667 0.0667 0.0000  plane waves:   12467
 k-point 14 :   0.3333 0.0667 0.0000  plane waves:   12469
 k-point 15 :   0.4000 0.0667 0.0000  plane waves:   12498
 k-point 16 :   0.4667 0.0667 0.0000  plane waves:   12484
 k-point 17 :  -0.4667 0.0667 0.0000  plane waves:   12484
 k-point 18 :  -0.4000 0.0667 0.0000  plane waves:   12498
 k-point 19 :  -0.3333 0.0667 0.0000  plane waves:   12469
 k-point 20 :  -0.2667 0.0667 0.0000  plane waves:   12467
 k-point 21 :  -0.2000 0.0667 0.0000  plane waves:   12475
 k-point 22 :  -0.1333 0.0667 0.0000  plane waves:   12471
 k-point 23 :  -0.0667 0.0667 0.0000  plane waves:   12487
 k-point 24 :   0.0000 0.1333 0.0000  plane waves:   12481
 k-point 25 :   0.0667 0.1333 0.0000  plane waves:   12476
 k-point 26 :   0.1333 0.1333 0.0000  plane waves:   12458
 k-point 27 :   0.2000 0.1333 0.0000  plane waves:   12449
 k-point 28 :   0.2667 0.1333 0.0000  plane waves:   12470
 k-point 29 :   0.3333 0.1333 0.0000  plane waves:   12473
 k-point 30 :   0.4000 0.1333 0.0000  plane waves:   12473
 k-point 31 :   0.4667 0.1333 0.0000  plane waves:   12479
 k-point 32 :  -0.4667 0.1333 0.0000  plane waves:   12479
 k-point 33 :  -0.4000 0.1333 0.0000  plane waves:   12473
 k-point 34 :  -0.3333 0.1333 0.0000  plane waves:   12473
 k-point 35 :  -0.2667 0.1333 0.0000  plane waves:   12470
 k-point 36 :  -0.2000 0.1333 0.0000  plane waves:   12449
 k-point 37 :  -0.1333 0.1333 0.0000  plane waves:   12458
 k-point 38 :  -0.0667 0.1333 0.0000  plane waves:   12476
 k-point 39 :   0.0000 0.2000 0.0000  plane waves:   12471
 k-point 40 :   0.0667 0.2000 0.0000  plane waves:   12467
 k-point 41 :   0.1333 0.2000 0.0000  plane waves:   12490
 k-point 42 :   0.2000 0.2000 0.0000  plane waves:   12457
 k-point 43 :   0.2667 0.2000 0.0000  plane waves:   12459
 k-point 44 :   0.3333 0.2000 0.0000  plane waves:   12470
 k-point 45 :   0.4000 0.2000 0.0000  plane waves:   12457
 k-point 46 :   0.4667 0.2000 0.0000  plane waves:   12485
 k-point 47 :  -0.4667 0.2000 0.0000  plane waves:   12485
 k-point 48 :  -0.4000 0.2000 0.0000  plane waves:   12457
 k-point 49 :  -0.3333 0.2000 0.0000  plane waves:   12470
 k-point 50 :  -0.2667 0.2000 0.0000  plane waves:   12459
 k-point 51 :  -0.2000 0.2000 0.0000  plane waves:   12457
 k-point 52 :  -0.1333 0.2000 0.0000  plane waves:   12490
 k-point 53 :  -0.0667 0.2000 0.0000  plane waves:   12467
 k-point 54 :   0.0000 0.2667 0.0000  plane waves:   12473
 k-point 55 :   0.0667 0.2667 0.0000  plane waves:   12470
 k-point 56 :   0.1333 0.2667 0.0000  plane waves:   12475
 k-point 57 :   0.2000 0.2667 0.0000  plane waves:   12455
 k-point 58 :   0.2667 0.2667 0.0000  plane waves:   12452
 k-point 59 :   0.3333 0.2667 0.0000  plane waves:   12458
 k-point 60 :   0.4000 0.2667 0.0000  plane waves:   12454
 k-point 61 :   0.4667 0.2667 0.0000  plane waves:   12449
 k-point 62 :  -0.4667 0.2667 0.0000  plane waves:   12449
 k-point 63 :  -0.4000 0.2667 0.0000  plane waves:   12454
 k-point 64 :  -0.3333 0.2667 0.0000  plane waves:   12458
 k-point 65 :  -0.2667 0.2667 0.0000  plane waves:   12452
 k-point 66 :  -0.2000 0.2667 0.0000  plane waves:   12455
 k-point 67 :  -0.1333 0.2667 0.0000  plane waves:   12475
 k-point 68 :  -0.0667 0.2667 0.0000  plane waves:   12470
 k-point 69 :   0.0000 0.3333 0.0000  plane waves:   12467
 k-point 70 :   0.0667 0.3333 0.0000  plane waves:   12451
 k-point 71 :   0.1333 0.3333 0.0000  plane waves:   12454
 k-point 72 :   0.2000 0.3333 0.0000  plane waves:   12469
 k-point 73 :   0.2667 0.3333 0.0000  plane waves:   12434
 k-point 74 :   0.3333 0.3333 0.0000  plane waves:   12438
 k-point 75 :   0.4000 0.3333 0.0000  plane waves:   12438
 k-point 76 :   0.4667 0.3333 0.0000  plane waves:   12448
 k-point 77 :  -0.4667 0.3333 0.0000  plane waves:   12448
 k-point 78 :  -0.4000 0.3333 0.0000  plane waves:   12438
 k-point 79 :  -0.3333 0.3333 0.0000  plane waves:   12438
 k-point 80 :  -0.2667 0.3333 0.0000  plane waves:   12434
 k-point 81 :  -0.2000 0.3333 0.0000  plane waves:   12469
 k-point 82 :  -0.1333 0.3333 0.0000  plane waves:   12454
 k-point 83 :  -0.0667 0.3333 0.0000  plane waves:   12451
 k-point 84 :   0.0000 0.4000 0.0000  plane waves:   12431
 k-point 85 :   0.0667 0.4000 0.0000  plane waves:   12437
 k-point 86 :   0.1333 0.4000 0.0000  plane waves:   12458
 k-point 87 :   0.2000 0.4000 0.0000  plane waves:   12456
 k-point 88 :   0.2667 0.4000 0.0000  plane waves:   12435
 k-point 89 :   0.3333 0.4000 0.0000  plane waves:   12448
 k-point 90 :   0.4000 0.4000 0.0000  plane waves:   12417
 k-point 91 :   0.4667 0.4000 0.0000  plane waves:   12432
 k-point 92 :  -0.4667 0.4000 0.0000  plane waves:   12432
 k-point 93 :  -0.4000 0.4000 0.0000  plane waves:   12417
 k-point 94 :  -0.3333 0.4000 0.0000  plane waves:   12448
 k-point 95 :  -0.2667 0.4000 0.0000  plane waves:   12435
 k-point 96 :  -0.2000 0.4000 0.0000  plane waves:   12456
 k-point 97 :  -0.1333 0.4000 0.0000  plane waves:   12458
 k-point 98 :  -0.0667 0.4000 0.0000  plane waves:   12437
 k-point 99 :   0.0000 0.4667 0.0000  plane waves:   12446
 k-point ** :   0.0667 0.4667 0.0000  plane waves:   12457
 k-point ** :   0.1333 0.4667 0.0000  plane waves:   12460
 k-point ** :   0.2000 0.4667 0.0000  plane waves:   12448
 k-point ** :   0.2667 0.4667 0.0000  plane waves:   12432
 k-point ** :   0.3333 0.4667 0.0000  plane waves:   12421
 k-point ** :   0.4000 0.4667 0.0000  plane waves:   12425
 k-point ** :   0.4667 0.4667 0.0000  plane waves:   12434
 k-point ** :  -0.4667 0.4667 0.0000  plane waves:   12434
 k-point ** :  -0.4000 0.4667 0.0000  plane waves:   12425
 k-point ** :  -0.3333 0.4667 0.0000  plane waves:   12421
 k-point ** :  -0.2667 0.4667 0.0000  plane waves:   12432
 k-point ** :  -0.2000 0.4667 0.0000  plane waves:   12448
 k-point ** :  -0.1333 0.4667 0.0000  plane waves:   12460
 k-point ** :  -0.0667 0.4667 0.0000  plane waves:   12457

 maximum and minimum number of plane-waves per node :       538      496

 maximum number of plane-waves:     12523
 maximum index in each direction: 
   IXMAX=    9   IYMAX=    8   IZMAX=   39
   IXMIN=   -9   IYMIN=   -9   IZMIN=  -39


 parallel 3D FFT for wavefunctions:
    minimum data exchange during FFTs selected (reduces bandwidth)
 parallel 3D FFT for charge:
    minimum data exchange during FFTs selected (reduces bandwidth)


 total amount of memory used by VASP MPI-rank0    63513. kBytes
=======================================================================

   base      :      30000. kBytes
   nonl-proj :      12608. kBytes
   fftplans  :       2678. kBytes
   grid      :       4349. kBytes
   one-center:          8. kBytes
   wavefun   :      13870. kBytes
 
     INWAV:  cpu time    0.0000: real time    0.0001
 Broyden mixing: mesh for mixing (old mesh)
   NGX = 17   NGY = 17   NGZ = 79
  (NGX  = 72   NGY  = 72   NGZ  =320)
  gives a total of  22831 points

 initial charge density was supplied:
 charge density of overlapping atoms calculated
 number of electron      20.0000000 magnetization 
 keeping initial charge density in first step


--------------------------------------------------------------------------------------------------------


 Maximum index for augmentation-charges         2238 (set IRDMAX)


--------------------------------------------------------------------------------------------------------


 First call to EWALD:  gamma=   0.246
 Maximum number of real-space cells 4x 4x 1
 Maximum number of reciprocal cells 2x 2x 7

    FEWALD:  cpu time    0.0010: real time    0.0031


--------------------------------------- Iteration      1(   1)  ---------------------------------------


    POTLOK:  cpu time    0.0609: real time    0.2769
    SETDIJ:  cpu time    0.0996: real time    0.1003
     EDDAV:  cpu time    2.0490: real time    2.0593
       DOS:  cpu time    0.0045: real time    0.0046
    --------------------------------------------
      LOOP:  cpu time    2.2139: real time    2.4411

 eigenvalue-minimisations  :  3164
 total energy-change (2. order) : 0.1441609E+03  (-0.6310788E+03)
 number of electron      20.0000000 magnetization 
 augmentation part       20.0000000 magnetization 

 Free energy of the ion-electron system (eV)
  ---------------------------------------------------
  alpha Z        PSCENC =         9.57603783
  Ewald energy   TEWEN  =      1164.86137187
  -Hartree energ DENC   =     -1766.90422435
  -exchange      EXHF   =         0.00000000
  -V(xc)+E(xc)   XCENC  =      -238.53590923
  PAW double counting   =       799.43158084     -524.17639913
  entropy T*S    EENTRO =        -0.01386404
  eigenvalues    EBANDS =        -2.50561657
  atomic energy  EATOM  =       702.42789710
  Solvation  Ediel_sol  =         0.00000000
  ---------------------------------------------------
  free energy    TOTEN  =       144.16087432 eV

  energy without entropy =      144.17473836  energy(sigma->0) =      144.16780634


--------------------------------------------------------------------------------------------------------




--------------------------------------- Iteration      1(   2)  ---------------------------------------


     EDDAV:  cpu time    6.5484: real time    6.7915
       DOS:  cpu time    0.0043: real time    0.0043
    --------------------------------------------
      LOOP:  cpu time    6.5527: real time    6.7958

 eigenvalue-minimisations  :  5226
 total energy-change (2. order) :-0.1396570E+03  (-0.1351348E+03)
 number of electron      20.0000000 magnetization 
 augmentation part       20.0000000 magnetization 

 Free energy of the ion-electron system (eV)
  ---------------------------------------------------
  alpha Z        PSCENC =         9.57603783
  Ewald energy   TEWEN  =      1164.86137187
  -Hartree energ DENC   =     -1766.90422435
  -exchange      EXHF   =         0.00000000
  -V(xc)+E(xc)   XCENC  =      -238.53590923
  PAW double counting   =       799.43158084     -524.17639913
  entropy T*S    EENTRO =        -0.00111894
  eigenvalues    EBANDS =      -142.17532780
  atomic energy  EATOM  =       702.42789710
  Solvation  Ediel_sol  =         0.00000000
  ---------------------------------------------------
  free energy    TOTEN  =         4.50390819 eV

  energy without entropy =        4.50502713  energy(sigma->0) =        4.50446766


--------------------------------------------------------------------------------------------------------




--------------------------------------- Iteration      1(   3)  ---------------------------------------


     EDDAV:  cpu time    5.0910: real time    6.7502
       DOS:  cpu time    0.0029: real time    0.0029
    --------------------------------------------
      LOOP:  cpu time    5.0939: real time    6.7531

 eigenvalue-minimisations  :  3994
 total energy-change (2. order) :-0.2049518E+02  (-0.2034496E+02)
 number of electron      20.0000000 magnetization 
 augmentation part       20.0000000 magnetization 

 Free energy of the ion-electron system (eV)
  ---------------------------------------------------
  alpha Z        PSCENC =         9.57603783
  Ewald energy   TEWEN  =      1164.86137187
  -Hartree energ DENC   =     -1766.90422435
  -exchange      EXHF   =         0.00000000
  -V(xc)+E(xc)   XCENC  =      -238.53590923
  PAW double counting   =       799.43158084     -524.17639913
  entropy T*S    EENTRO =        -0.00000000
  eigenvalues    EBANDS =      -162.67162604
  atomic energy  EATOM  =       702.42789710
  Solvation  Ediel_sol  =         0.00000000
  ---------------------------------------------------
  free energy    TOTEN  =       -15.99127111 eV

  energy without entropy =      -15.99127111  energy(sigma->0) =      -15.99127111


--------------------------------------------------------------------------------------------------------




--------------------------------------- Iteration      1(   4)  ---------------------------------------


     EDDAV:  cpu time    6.9841: real time    7.7606
       DOS:  cpu time    0.0030: real time    0.0030
    --------------------------------------------
      LOOP:  cpu time    6.9870: real time    7.7636

 eigenvalue-minimisations  :  4572
 total energy-change (2. order) :-0.7800308E+00  (-0.7776519E+00)
 number of electron      20.0000000 magnetization 
 augmentation part       20.0000000 magnetization 

 Free energy of the ion-electron system (eV)
  ---------------------------------------------------
  alpha Z        PSCENC =         9.57603783
  Ewald energy   TEWEN  =      1164.86137187
  -Hartree energ DENC   =     -1766.90422435
  -exchange      EXHF   =         0.00000000
  -V(xc)+E(xc)   XCENC  =      -238.53590923
  PAW double counting   =       799.43158084     -524.17639913
  entropy T*S    EENTRO =        -0.00000000
  eigenvalues    EBANDS =      -163.45165684
  atomic energy  EATOM  =       702.42789710
  Solvation  Ediel_sol  =         0.00000000
  ---------------------------------------------------
  free energy    TOTEN  =       -16.77130191 eV

  energy without entropy =      -16.77130191  energy(sigma->0) =      -16.77130191


--------------------------------------------------------------------------------------------------------




--------------------------------------- Iteration      1(   5)  ---------------------------------------


     EDDAV:  cpu time    8.7553: real time    8.7666
       DOS:  cpu time    0.0031: real time    0.0031
    CHARGE:  cpu time    0.1690: real time    0.1698
    MIXING:  cpu time    0.0052: real time    0.0052
    --------------------------------------------
      LOOP:  cpu time    8.9326: real time    8.9446

 eigenvalue-minimisations  :  4096
 total energy-change (2. order) :-0.1671613E-01  (-0.1670498E-01)
 number of electron      20.0000000 magnetization 
 augmentation part       -4.5249840 magnetization 

 Broyden mixing:
  rms(total) = 0.45485E+00    rms(broyden)= 0.45485E+00
  rms(prec ) = 0.49451E+00
  weight for this iteration     100.00

 Free energy of the ion-electron system (eV)
  ---------------------------------------------------
  alpha Z        PSCENC =         9.57603783
  Ewald energy   TEWEN  =      1164.86137187
  -Hartree energ DENC   =     -1766.90422435
  -exchange      EXHF   =         0.00000000
  -V(xc)+E(xc)   XCENC  =      -238.53590923
  PAW double counting   =       799.43158084     -524.17639913
  entropy T*S    EENTRO =        -0.00000000
  eigenvalues    EBANDS =      -163.46837297
  atomic energy  EATOM  =       702.42789710
  Solvation  Ediel_sol  =         0.00000000
  ---------------------------------------------------
  free energy    TOTEN  =       -16.78801804 eV

  energy without entropy =      -16.78801804  energy(sigma->0) =      -16.78801804


--------------------------------------------------------------------------------------------------------




--------------------------------------- Iteration      1(   6)  ---------------------------------------


    POTLOK:  cpu time    0.0356: real time    0.0358
    SETDIJ:  cpu time    0.0032: real time    0.0040
     EDDAV:  cpu time    5.7006: real time    5.7102
       DOS:  cpu time    0.0031: real time    0.0031
    CHARGE:  cpu time    0.1718: real time    0.1720
    MIXING:  cpu time    0.0011: real time    0.0014
    --------------------------------------------
      LOOP:  cpu time    5.9154: real time    5.9265

 eigenvalue-minimisations  :  3946
 total energy-change (2. order) : 0.4826550E+00  (-0.1218525E+00)
 number of electron      20.0000000 magnetization 
 augmentation part       -4.4927055 magnetization 

 Broyden mixing:
  rms(total) = 0.27952E+00    rms(broyden)= 0.27952E+00
  rms(prec ) = 0.28862E+00
  weight for this iteration     100.00

 eigenvalues of (default mixing * dielectric matrix)
  average eigenvalue GAMMA=   1.8269
  1.8269

 Free energy of the ion-electron system (eV)
  ---------------------------------------------------
  alpha Z        PSCENC =         9.57603783
  Ewald energy   TEWEN  =      1164.86137187
  -Hartree energ DENC   =     -1774.76701461
  -exchange      EXHF   =         0.00000000
  -V(xc)+E(xc)   XCENC  =      -238.05475667
  PAW double counting   =       926.00953731     -650.94030649
  entropy T*S    EENTRO =        -0.00000000
  eigenvalues    EBANDS =      -155.41812940
  atomic energy  EATOM  =       702.42789710
  Solvation  Ediel_sol  =         0.00000000
  ---------------------------------------------------
  free energy    TOTEN  =       -16.30536305 eV

  energy without entropy =      -16.30536305  energy(sigma->0) =      -16.30536305


--------------------------------------------------------------------------------------------------------




--------------------------------------- Iteration      1(   7)  ---------------------------------------


    POTLOK:  cpu time    0.0353: real time    0.0354
    SETDIJ:  cpu time    0.0031: real time    0.0031
     EDDAV:  cpu time   60.5825: real time   65.0276
       DOS:  cpu time    0.0031: real time    0.0031
    CHARGE:  cpu time    0.1692: real time    0.1699
    MIXING:  cpu time    0.0011: real time    0.0014
    --------------------------------------------
      LOOP:  cpu time   60.7943: real time   65.2404

 eigenvalue-minimisations  :  4082
 total energy-change (2. order) : 0.2850224E-01  (-0.3171086E-01)
 number of electron      20.0000000 magnetization 
 augmentation part       -4.4837180 magnetization 

 Broyden mixing:
  rms(total) = 0.10387E+00    rms(broyden)= 0.10387E+00
  rms(prec ) = 0.10932E+00
  weight for this iteration     100.00

 eigenvalues of (default mixing * dielectric matrix)
  average eigenvalue GAMMA=   1.7376
  1.3757  2.0995

 Free energy of the ion-electron system (eV)
  ---------------------------------------------------
  alpha Z        PSCENC =         9.57603783
  Ewald energy   TEWEN  =      1164.86137187
  -Hartree energ DENC   =     -1779.92277783
  -exchange      EXHF   =         0.00000000
  -V(xc)+E(xc)   XCENC  =      -237.72390799
  PAW double counting   =      1071.50947691     -796.58568650
  entropy T*S    EENTRO =        -0.00000000
  eigenvalues    EBANDS =      -150.41927221
  atomic energy  EATOM  =       702.42789710
  Solvation  Ediel_sol  =         0.00000000
  ---------------------------------------------------
  free energy    TOTEN  =       -16.27686082 eV

  energy without entropy =      -16.27686082  energy(sigma->0) =      -16.27686082


--------------------------------------------------------------------------------------------------------




--------------------------------------- Iteration      1(   8)  ---------------------------------------


    POTLOK:  cpu time    0.0355: real time    0.0356
    SETDIJ:  cpu time    0.0031: real time    0.0031
     EDDAV:  cpu time   40.6578: real time   44.4364
       DOS:  cpu time    0.0031: real time    0.0031
    CHARGE:  cpu time    0.1677: real time    0.1680
    MIXING:  cpu time    0.0012: real time    0.0012
    --------------------------------------------
      LOOP:  cpu time   40.8684: real time   44.6474

 eigenvalue-minimisations  :  4436
 total energy-change (2. order) : 0.9930955E-02  (-0.3908444E-02)
 number of electron      20.0000000 magnetization 
 augmentation part       -4.4878723 magnetization 

 Broyden mixing:
  rms(total) = 0.20375E-01    rms(broyden)= 0.20375E-01
  rms(prec ) = 0.27817E-01
  weight for this iteration     100.00

 eigenvalues of (default mixing * dielectric matrix)
  average eigenvalue GAMMA=   1.7178
  2.5392  1.3071  1.3071

 Free energy of the ion-electron system (eV)
  ---------------------------------------------------
  alpha Z        PSCENC =         9.57603783
  Ewald energy   TEWEN  =      1164.86137187
  -Hartree energ DENC   =     -1781.62132284
  -exchange      EXHF   =         0.00000000
  -V(xc)+E(xc)   XCENC  =      -237.64669988
  PAW double counting   =      1137.13960227     -862.25520370
  entropy T*S    EENTRO =        -0.00000000
  eigenvalues    EBANDS =      -148.74861251
  atomic energy  EATOM  =       702.42789710
  Solvation  Ediel_sol  =         0.00000000
  ---------------------------------------------------
  free energy    TOTEN  =       -16.26692986 eV

  energy without entropy =      -16.26692986  energy(sigma->0) =      -16.26692986


--------------------------------------------------------------------------------------------------------




--------------------------------------- Iteration      1(   9)  ---------------------------------------


    POTLOK:  cpu time    0.0353: real time    0.0355
    SETDIJ:  cpu time    0.0030: real time    0.0030
     EDDAV:  cpu time    7.0957: real time    7.1088
       DOS:  cpu time    0.0032: real time    0.0032
    CHARGE:  cpu time    0.1677: real time    0.1679
    MIXING:  cpu time    0.0013: real time    0.0013
    --------------------------------------------
      LOOP:  cpu time    7.3063: real time    7.3198

 eigenvalue-minimisations  :  4352
 total energy-change (2. order) : 0.3778697E-02  (-0.6615538E-03)
 number of electron      20.0000000 magnetization 
 augmentation part       -4.4859381 magnetization 

 Broyden mixing:
  rms(total) = 0.10089E-01    rms(broyden)= 0.10089E-01
  rms(prec ) = 0.15649E-01
  weight for this iteration     100.00

 eigenvalues of (default mixing * dielectric matrix)
  average eigenvalue GAMMA=   1.6909
  2.1895  2.1895  1.1922  1.1922

 Free energy of the ion-electron system (eV)
  ---------------------------------------------------
  alpha Z        PSCENC =         9.57603783
  Ewald energy   TEWEN  =      1164.86137187
  -Hartree energ DENC   =     -1783.63284856
  -exchange      EXHF   =         0.00000000
  -V(xc)+E(xc)   XCENC  =      -237.57290761
  PAW double counting   =      1155.59737149     -880.72525258
  entropy T*S    EENTRO =        -0.00000000
  eigenvalues    EBANDS =      -146.79482071
  atomic energy  EATOM  =       702.42789710
  Solvation  Ediel_sol  =         0.00000000
  ---------------------------------------------------
  free energy    TOTEN  =       -16.26315117 eV

  energy without entropy =      -16.26315117  energy(sigma->0) =      -16.26315117


--------------------------------------------------------------------------------------------------------




--------------------------------------- Iteration      1(  10)  ---------------------------------------


    POTLOK:  cpu time    0.0356: real time    0.0357
    SETDIJ:  cpu time    0.0030: real time    0.0030
     EDDAV:  cpu time    6.3842: real time    7.7652
       DOS:  cpu time    0.0031: real time    0.0031
    CHARGE:  cpu time    0.1681: real time    0.1684
    MIXING:  cpu time    0.0014: real time    0.0014
    --------------------------------------------
      LOOP:  cpu time    6.5954: real time    7.9768

 eigenvalue-minimisations  :  4340
 total energy-change (2. order) : 0.1203969E-02  (-0.1102225E-03)
 number of electron      20.0000000 magnetization 
 augmentation part       -4.4847295 magnetization 

 Broyden mixing:
  rms(total) = 0.50876E-02    rms(broyden)= 0.50876E-02
  rms(prec ) = 0.95088E-02
  weight for this iteration     100.00

 eigenvalues of (default mixing * dielectric matrix)
  average eigenvalue GAMMA=   1.8770
  3.3782  2.5998  1.2490  1.2490  0.9091

 Free energy of the ion-electron system (eV)
  ---------------------------------------------------
  alpha Z        PSCENC =         9.57603783
  Ewald energy   TEWEN  =      1164.86137187
  -Hartree energ DENC   =     -1784.84591749
  -exchange      EXHF   =         0.00000000
  -V(xc)+E(xc)   XCENC  =      -237.56282123
  PAW double counting   =      1145.22006785     -870.33779639
  entropy T*S    EENTRO =        -0.00000000
  eigenvalues    EBANDS =      -145.60078673
  atomic energy  EATOM  =       702.42789710
  Solvation  Ediel_sol  =         0.00000000
  ---------------------------------------------------
  free energy    TOTEN  =       -16.26194720 eV

  energy without entropy =      -16.26194720  energy(sigma->0) =      -16.26194720


--------------------------------------------------------------------------------------------------------




--------------------------------------- Iteration      1(  11)  ---------------------------------------


    POTLOK:  cpu time    0.0357: real time    0.0358
    SETDIJ:  cpu time    0.0031: real time    0.0031
     EDDAV:  cpu time    9.2697: real time    9.2802
       DOS:  cpu time    0.0031: real time    0.0031
    CHARGE:  cpu time    0.1676: real time    0.1680
    MIXING:  cpu time    0.0014: real time    0.0014
    --------------------------------------------
      LOOP:  cpu time    9.4806: real time    9.4916

 eigenvalue-minimisations  :  4316
 total energy-change (2. order) : 0.7747589E-03  (-0.1389101E-03)
 number of electron      20.0000000 magnetization 
 augmentation part       -4.4832655 magnetization 

 Broyden mixing:
  rms(total) = 0.33747E-02    rms(broyden)= 0.33747E-02
  rms(prec ) = 0.50426E-02
  weight for this iteration     100.00

 eigenvalues of (default mixing * dielectric matrix)
  average eigenvalue GAMMA=   1.8356
  3.4035  2.2359  2.1018  1.1989  1.1989  0.8748

 Free energy of the ion-electron system (eV)
  ---------------------------------------------------
  alpha Z        PSCENC =         9.57603783
  Ewald energy   TEWEN  =      1164.86137187
  -Hartree energ DENC   =     -1786.53321754
  -exchange      EXHF   =         0.00000000
  -V(xc)+E(xc)   XCENC  =      -237.53041780
  PAW double counting   =      1146.31289952     -871.42920383
  entropy T*S    EENTRO =        -0.00000000
  eigenvalues    EBANDS =      -143.94653959
  atomic energy  EATOM  =       702.42789710
  Solvation  Ediel_sol  =         0.00000000
  ---------------------------------------------------
  free energy    TOTEN  =       -16.26117244 eV

  energy without entropy =      -16.26117244  energy(sigma->0) =      -16.26117244


--------------------------------------------------------------------------------------------------------




--------------------------------------- Iteration      1(  12)  ---------------------------------------


    POTLOK:  cpu time    0.0360: real time    0.0362
    SETDIJ:  cpu time    0.0031: real time    0.0031
     EDDAV:  cpu time    5.2375: real time    5.8737
       DOS:  cpu time    0.0031: real time    0.0031
    CHARGE:  cpu time    0.1679: real time    0.1681
    MIXING:  cpu time    0.0013: real time    0.0013
    --------------------------------------------
      LOOP:  cpu time    5.4489: real time    6.0855

 eigenvalue-minimisations  :  3614
 total energy-change (2. order) :-0.8170666E-03  (-0.3060910E-04)
 number of electron      20.0000000 magnetization 
 augmentation part       -4.4826469 magnetization 

 Broyden mixing:
  rms(total) = 0.19398E-02    rms(broyden)= 0.19398E-02
  rms(prec ) = 0.29191E-02
  weight for this iteration     100.00

 eigenvalues of (default mixing * dielectric matrix)
  average eigenvalue GAMMA=   2.0719
  4.6073  3.0928  2.5022  1.2152  1.2152  1.0289  0.8414

 Free energy of the ion-electron system (eV)
  ---------------------------------------------------
  alpha Z        PSCENC =         9.57603783
  Ewald energy   TEWEN  =      1164.86137187
  -Hartree energ DENC   =     -1787.14074329
  -exchange      EXHF   =         0.00000000
  -V(xc)+E(xc)   XCENC  =      -237.52100236
  PAW double counting   =      1148.34722507     -873.46656151
  entropy T*S    EENTRO =        -0.00000000
  eigenvalues    EBANDS =      -143.34621421
  atomic energy  EATOM  =       702.42789710
  Solvation  Ediel_sol  =         0.00000000
  ---------------------------------------------------
  free energy    TOTEN  =       -16.26198951 eV

  energy without entropy =      -16.26198951  energy(sigma->0) =      -16.26198951


--------------------------------------------------------------------------------------------------------




--------------------------------------- Iteration      1(  13)  ---------------------------------------


    POTLOK:  cpu time    0.0360: real time    0.0365
    SETDIJ:  cpu time    0.0031: real time    0.0032
     EDDAV:  cpu time    9.0661: real time    9.0763
       DOS:  cpu time    0.0032: real time    0.0033
    CHARGE:  cpu time    0.1758: real time    0.1760
    MIXING:  cpu time    0.0014: real time    0.0014
    --------------------------------------------
      LOOP:  cpu time    9.2857: real time    9.2966

 eigenvalue-minimisations  :  3704
 total energy-change (2. order) :-0.4453848E-03  (-0.8480745E-05)
 number of electron      20.0000000 magnetization 
 augmentation part       -4.4824387 magnetization 

 Broyden mixing:
  rms(total) = 0.12060E-02    rms(broyden)= 0.12060E-02
  rms(prec ) = 0.15695E-02
  weight for this iteration     100.00

 eigenvalues of (default mixing * dielectric matrix)
  average eigenvalue GAMMA=   2.2249
  5.5250  3.3341  2.4995  2.1396  1.1646  1.1646  1.0639  0.9080

 Free energy of the ion-electron system (eV)
  ---------------------------------------------------
  alpha Z        PSCENC =         9.57603783
  Ewald energy   TEWEN  =      1164.86137187
  -Hartree energ DENC   =     -1787.56600509
  -exchange      EXHF   =         0.00000000
  -V(xc)+E(xc)   XCENC  =      -237.51979139
  PAW double counting   =      1147.03068516     -872.14871288
  entropy T*S    EENTRO =        -0.00000000
  eigenvalues    EBANDS =      -142.92391748
  atomic energy  EATOM  =       702.42789710
  Solvation  Ediel_sol  =         0.00000000
  ---------------------------------------------------
  free energy    TOTEN  =       -16.26243489 eV

  energy without entropy =      -16.26243489  energy(sigma->0) =      -16.26243489


--------------------------------------------------------------------------------------------------------




--------------------------------------- Iteration      1(  14)  ---------------------------------------


    POTLOK:  cpu time    0.0438: real time    0.0443
    SETDIJ:  cpu time    0.0031: real time    0.0031
     EDDAV:  cpu time    9.6261: real time    9.6371
       DOS:  cpu time    0.0031: real time    0.0031
    CHARGE:  cpu time    0.1706: real time    0.1708
    MIXING:  cpu time    0.0014: real time    0.0014
    --------------------------------------------
      LOOP:  cpu time    9.8481: real time    9.8599

 eigenvalue-minimisations  :  3962
 total energy-change (2. order) :-0.2636963E-03  (-0.4281255E-05)
 number of electron      20.0000000 magnetization 
 augmentation part       -4.4824167 magnetization 

 Broyden mixing:
  rms(total) = 0.41081E-03    rms(broyden)= 0.41081E-03
  rms(prec ) = 0.62781E-03
  weight for this iteration     100.00

 eigenvalues of (default mixing * dielectric matrix)
  average eigenvalue GAMMA=   2.2412
  6.7293  3.0779  2.5297  2.5297  1.1909  1.1909  1.0629  0.9299  0.9299

 Free energy of the ion-electron system (eV)
  ---------------------------------------------------
  alpha Z        PSCENC =         9.57603783
  Ewald energy   TEWEN  =      1164.86137187
  -Hartree energ DENC   =     -1787.77400510
  -exchange      EXHF   =         0.00000000
  -V(xc)+E(xc)   XCENC  =      -237.51965071
  PAW double counting   =      1147.33317667     -872.45063421
  entropy T*S    EENTRO =        -0.00000000
  eigenvalues    EBANDS =      -142.71689204
  atomic energy  EATOM  =       702.42789710
  Solvation  Ediel_sol  =         0.00000000
  ---------------------------------------------------
  free energy    TOTEN  =       -16.26269859 eV

  energy without entropy =      -16.26269859  energy(sigma->0) =      -16.26269859


--------------------------------------------------------------------------------------------------------




--------------------------------------- Iteration      1(  15)  ---------------------------------------


    POTLOK:  cpu time    0.0366: real time    0.0372
    SETDIJ:  cpu time    0.0030: real time    0.0030
     EDDAV:  cpu time    5.7034: real time    5.7118
       DOS:  cpu time    0.0031: real time    0.0031
    CHARGE:  cpu time    0.1692: real time    0.1695
    MIXING:  cpu time    0.0015: real time    0.0015
    --------------------------------------------
      LOOP:  cpu time    5.9168: real time    5.9261

 eigenvalue-minimisations  :  3768
 total energy-change (2. order) :-0.5502781E-04  (-0.2016033E-06)
 number of electron      20.0000000 magnetization 
 augmentation part       -4.4824342 magnetization 

 Broyden mixing:
  rms(total) = 0.34866E-03    rms(broyden)= 0.34866E-03
  rms(prec ) = 0.51860E-03
  weight for this iteration     100.00

 eigenvalues of (default mixing * dielectric matrix)
  average eigenvalue GAMMA=   2.3522
  6.5311  4.2476  2.7063  2.7063  1.9644  1.1445  1.1445  1.2082  0.9345  0.9345

 Free energy of the ion-electron system (eV)
  ---------------------------------------------------
  alpha Z        PSCENC =         9.57603783
  Ewald energy   TEWEN  =      1164.86137187
  -Hartree energ DENC   =     -1787.78982103
  -exchange      EXHF   =         0.00000000
  -V(xc)+E(xc)   XCENC  =      -237.51998751
  PAW double counting   =      1147.15314762     -872.27046482
  entropy T*S    EENTRO =        -0.00000000
  eigenvalues    EBANDS =      -142.70093469
  atomic energy  EATOM  =       702.42789710
  Solvation  Ediel_sol  =         0.00000000
  ---------------------------------------------------
  free energy    TOTEN  =       -16.26275362 eV

  energy without entropy =      -16.26275362  energy(sigma->0) =      -16.26275362


--------------------------------------------------------------------------------------------------------




--------------------------------------- Iteration      1(  16)  ---------------------------------------


    POTLOK:  cpu time    0.0355: real time    0.0361
    SETDIJ:  cpu time    0.0033: real time    0.0036
     EDDAV:  cpu time    2.3329: real time    2.3391
       DOS:  cpu time    0.0031: real time    0.0031
    CHARGE:  cpu time    0.1681: real time    0.1703
    MIXING:  cpu time    0.0016: real time    0.0016
    --------------------------------------------
      LOOP:  cpu time    2.5446: real time    2.5538

 eigenvalue-minimisations  :  3480
 total energy-change (2. order) :-0.4797429E-04  (-0.8369471E-06)
 number of electron      20.0000000 magnetization 
 augmentation part       -4.4824467 magnetization 

 Broyden mixing:
  rms(total) = 0.13496E-03    rms(broyden)= 0.13496E-03
  rms(prec ) = 0.23393E-03
  weight for this iteration     100.00

 eigenvalues of (default mixing * dielectric matrix)
  average eigenvalue GAMMA=   2.2828
  6.7990  4.5026  2.6412  2.6412  2.2836  1.1617  1.1617  1.1834  0.9316  0.9316
  0.8734

 Free energy of the ion-electron system (eV)
  ---------------------------------------------------
  alpha Z        PSCENC =         9.57603783
  Ewald energy   TEWEN  =      1164.86137187
  -Hartree energ DENC   =     -1787.84215002
  -exchange      EXHF   =         0.00000000
  -V(xc)+E(xc)   XCENC  =      -237.52011096
  PAW double counting   =      1146.97437120     -872.09167107
  entropy T*S    EENTRO =        -0.00000000
  eigenvalues    EBANDS =      -142.64854755
  atomic energy  EATOM  =       702.42789710
  Solvation  Ediel_sol  =         0.00000000
  ---------------------------------------------------
  free energy    TOTEN  =       -16.26280159 eV

  energy without entropy =      -16.26280159  energy(sigma->0) =      -16.26280159


--------------------------------------------------------------------------------------------------------




--------------------------------------- Iteration      1(  17)  ---------------------------------------


    POTLOK:  cpu time    0.0357: real time    0.0361
    SETDIJ:  cpu time    0.0031: real time    0.0031
     EDDAV:  cpu time    2.2723: real time    2.3522
       DOS:  cpu time    0.0031: real time    0.0031
    CHARGE:  cpu time    0.1721: real time    0.1725
    MIXING:  cpu time    0.0018: real time    0.0018
    --------------------------------------------
[...]
      3      -8.6237      2.00000
      4      -8.4825      2.00000
      5      -6.4078      2.00000
      6      -5.5134      2.00000
      7      -5.0579      2.00000
      8      -4.3306      2.00000
      9      -3.9737      2.00000
     10      -3.3783      2.00000
     11       0.5645      0.00000
     12       1.3660      0.00000
     13       1.6448      0.00000
     14       2.3217      0.00000

 k-point    95 :      -0.2667    0.4000    0.0000
  band No.  band energies     occupation 
      1     -14.5420      2.00000
      2     -14.2848      2.00000
      3      -8.8142      2.00000
      4      -8.5952      2.00000
      5      -6.0782      2.00000
      6      -5.1112      2.00000
      7      -4.8036      2.00000
      8      -4.0674      2.00000
      9      -3.8764      2.00000
     10      -3.0815      2.00000
     11       0.1690      0.00000
     12       1.1114      0.00000
     13       1.2161      0.00000
     14       1.6327      0.00000

 k-point    96 :      -0.2000    0.4000    0.0000
  band No.  band energies     occupation 
      1     -14.6143      2.00000
      2     -14.3101      2.00000
      3      -8.9864      2.00000
      4      -8.7047      2.00000
      5      -5.6261      2.00000
      6      -4.8087      2.00000
      7      -4.5446      2.00000
      8      -3.9363      2.00000
      9      -3.4849      2.00000
     10      -2.6794      2.00000
     11      -0.3088      0.00000
     12       0.6258      0.00000
     13       0.7233      0.00000
     14       1.2459      0.00000

 k-point    97 :      -0.1333    0.4000    0.0000
  band No.  band energies     occupation 
      1     -14.6721      2.00000
      2     -14.3349      2.00000
      3      -9.1192      2.00000
      4      -8.7941      2.00000
      5      -5.0931      2.00000
      6      -4.7525      2.00000
      7      -4.1206      2.00000
      8      -3.8944      2.00000
      9      -2.8911      2.00000
     10      -2.4208      2.00000
     11      -0.6078      0.00000
     12      -0.1181      0.00000
     13       0.4920      0.00000
     14       0.8250      0.00000

 k-point    98 :      -0.0667    0.4000    0.0000
  band No.  band energies     occupation 
      1     -14.7093      2.00000
      2     -14.3526      2.00000
      3      -9.2021      2.00000
      4      -8.8521      2.00000
      5      -4.7625      2.00000
      6      -4.5439      2.00000
      7      -3.9167      2.00000
      8      -3.6937      2.00000
      9      -2.5889      2.00000
     10      -2.2893      2.00000
     11      -0.7308      0.00000
     12      -0.3578      0.00000
     13       0.2556      0.00000
     14       0.3692      0.00000

 k-point    99 :       0.0000    0.4667    0.0000
  band No.  band energies     occupation 
      1     -14.5766      2.00000
      2     -14.4517      2.00000
      3      -9.2170      2.00000
      4      -9.0938      2.00000
      5      -4.5202      2.00000
      6      -4.2907      2.00000
      7      -3.8026      2.00000
      8      -3.6014      2.00000
      9      -2.4944      2.00000
     10      -2.1325      2.00000
     11      -0.8692      0.00000
     12      -0.4154      0.00000
     13      -0.0667      0.00000
     14       0.1348      0.00000

 k-point   100 :       0.0667    0.4667    0.0000
  band No.  band energies     occupation 
      1     -14.5660      2.00000
      2     -14.4433      2.00000
      3      -9.1881      2.00000
      4      -9.0677      2.00000
      5      -4.5311      2.00000
      6      -4.3939      2.00000
      7      -3.9748      2.00000
      8      -3.8240      2.00000
      9      -2.4039      2.00000
     10      -2.3008      2.00000
     11      -0.7759      0.00000
     12      -0.6724      0.00000
     13       0.3124      0.00000
     14       0.6133      0.00000

 k-point   101 :       0.1333    0.4667    0.0000
  band No.  band energies     occupation 
      1     -14.5353      2.00000
      2     -14.4194      2.00000
      3      -9.1025      2.00000
      4      -8.9908      2.00000
      5      -4.8097      2.00000
      6      -4.6307      2.00000
      7      -4.2193      2.00000
      8      -4.1037      2.00000
      9      -2.8007      2.00000
     10      -2.5844      2.00000
     11      -0.5174      0.00000
     12      -0.2693      0.00000
     13       0.7934      0.00000
     14       0.9127      0.00000

 k-point   102 :       0.2000    0.4667    0.0000
  band No.  band energies     occupation 
      1     -14.4886      2.00000
      2     -14.3841      2.00000
      3      -8.9638      2.00000
      4      -8.8672      2.00000
      5      -5.3400      2.00000
      6      -5.0121      2.00000
      7      -4.4115      2.00000
      8      -4.1753      2.00000
      9      -3.3462      2.00000
     10      -3.0405      2.00000
     11       0.0248      0.00000
     12       0.3927      0.00000
     13       1.0330      0.00000
     14       1.2617      0.00000

 k-point   103 :       0.2667    0.4667    0.0000
  band No.  band energies     occupation 
      1     -14.4321      2.00000
      2     -14.3439      2.00000
      3      -8.7796      2.00000
      4      -8.7054      2.00000
      5      -5.8321      2.00000
      6      -5.4860      2.00000
      7      -4.6042      2.00000
      8      -4.3406      2.00000
      9      -3.7084      2.00000
     10      -3.4304      2.00000
     11       0.5327      0.00000
     12       0.8898      0.00000
     13       1.4694      0.00000
     14       1.7254      0.00000

 k-point   104 :       0.3333    0.4667    0.0000
  band No.  band energies     occupation 
      1     -14.3740      2.00000
      2     -14.3066      2.00000
      3      -8.5664      2.00000
      4      -8.5211      2.00000
      5      -6.2374      2.00000
      6      -5.9190      2.00000
      7      -4.9164      2.00000
      8      -4.6533      2.00000
      9      -3.8178      2.00000
     10      -3.6175      2.00000
     11       0.8733      0.00000
     12       1.1447      0.00000
     13       2.0553      0.00000
     14       2.3370      0.00000

 k-point   105 :       0.4000    0.4667    0.0000
  band No.  band energies     occupation 
      1     -14.3232      2.00000
      2     -14.2809      2.00000
      3      -8.3587      2.00000
      4      -8.3427      2.00000
      5      -6.5212      2.00000
      6      -6.2837      2.00000
      7      -5.1873      2.00000
      8      -4.9899      2.00000
      9      -3.8076      2.00000
     10      -3.6865      2.00000
     11       1.1146      0.00000
     12       1.2846      0.00000
     13       2.5536      0.00000
     14       2.7876      0.00000

 k-point   106 :       0.4667    0.4667    0.0000
  band No.  band energies     occupation 
      1     -14.2879      2.00000
      2     -14.2735      2.00000
      3      -8.2216      2.00000
      4      -8.2209      2.00000
      5      -6.6368      2.00000
      6      -6.5456      2.00000
      7      -5.3010      2.00000
      8      -5.2273      2.00000
      9      -3.7673      2.00000
     10      -3.7265      2.00000
     11       1.2751      0.00000
     12       1.3331      0.00000
     13       2.7007      0.00000
     14       2.7780      0.00000

 k-point   107 :      -0.4667    0.4667    0.0000
  band No.  band energies     occupation 
      1     -14.2879      2.00000
      2     -14.2735      2.00000
      3      -8.2216      2.00000
      4      -8.2209      2.00000
      5      -6.6368      2.00000
      6      -6.5456      2.00000
      7      -5.3010      2.00000
      8      -5.2273      2.00000
      9      -3.7673      2.00000
     10      -3.7265      2.00000
     11       1.2751      0.00000
     12       1.3331      0.00000
     13       2.7007      0.00000
     14       2.7780      0.00000

 k-point   108 :      -0.4000    0.4667    0.0000
  band No.  band energies     occupation 
      1     -14.3232      2.00000
      2     -14.2809      2.00000
      3      -8.3587      2.00000
      4      -8.3427      2.00000
      5      -6.5212      2.00000
      6      -6.2837      2.00000
      7      -5.1873      2.00000
      8      -4.9899      2.00000
      9      -3.8076      2.00000
     10      -3.6865      2.00000
     11       1.1146      0.00000
     12       1.2846      0.00000
     13       2.5536      0.00000
     14       2.7876      0.00000

 k-point   109 :      -0.3333    0.4667    0.0000
  band No.  band energies     occupation 
      1     -14.3740      2.00000
      2     -14.3066      2.00000
      3      -8.5664      2.00000
      4      -8.5211      2.00000
      5      -6.2374      2.00000
      6      -5.9190      2.00000
      7      -4.9164      2.00000
      8      -4.6533      2.00000
      9      -3.8178      2.00000
     10      -3.6175      2.00000
     11       0.8733      0.00000
     12       1.1447      0.00000
     13       2.0553      0.00000
     14       2.3370      0.00000

 k-point   110 :      -0.2667    0.4667    0.0000
  band No.  band energies     occupation 
      1     -14.4321      2.00000
      2     -14.3439      2.00000
      3      -8.7796      2.00000
      4      -8.7054      2.00000
      5      -5.8321      2.00000
      6      -5.4860      2.00000
      7      -4.6042      2.00000
      8      -4.3406      2.00000
      9      -3.7084      2.00000
     10      -3.4304      2.00000
     11       0.5327      0.00000
     12       0.8898      0.00000
     13       1.4694      0.00000
     14       1.7254      0.00000

 k-point   111 :      -0.2000    0.4667    0.0000
  band No.  band energies     occupation 
      1     -14.4886      2.00000
      2     -14.3841      2.00000
      3      -8.9638      2.00000
      4      -8.8672      2.00000
      5      -5.3400      2.00000
      6      -5.0121      2.00000
      7      -4.4115      2.00000
      8      -4.1753      2.00000
      9      -3.3462      2.00000
     10      -3.0405      2.00000
     11       0.0248      0.00000
     12       0.3927      0.00000
     13       1.0330      0.00000
     14       1.2617      0.00000

 k-point   112 :      -0.1333    0.4667    0.0000
  band No.  band energies     occupation 
      1     -14.5353      2.00000
      2     -14.4194      2.00000
      3      -9.1025      2.00000
      4      -8.9908      2.00000
      5      -4.8097      2.00000
      6      -4.6307      2.00000
      7      -4.2193      2.00000
      8      -4.1037      2.00000
      9      -2.8007      2.00000
     10      -2.5844      2.00000
     11      -0.5174      0.00000
     12      -0.2693      0.00000
     13       0.7934      0.00000
     14       0.9127      0.00000

 k-point   113 :      -0.0667    0.4667    0.0000
  band No.  band energies     occupation 
      1     -14.5660      2.00000
      2     -14.4433      2.00000
      3      -9.1881      2.00000
      4      -9.0677      2.00000
      5      -4.5311      2.00000
      6      -4.3939      2.00000
      7      -3.9748      2.00000
      8      -3.8240      2.00000
      9      -2.4039      2.00000
     10      -2.3008      2.00000
     11      -0.7759      0.00000
     12      -0.6724      0.00000
     13       0.3124      0.00000
     14       0.6133      0.00000


--------------------------------------------------------------------------------------------------------


 soft charge-density along one line, spin component           1
         0         1         2         3         4         5         6         7         8         9
 total charge-density along one line
 
 pseudopotential strength for first ion, spin component:           1
 30.073 -23.427   0.000  -0.089   0.030   0.000  -0.140   0.047
-23.427  28.112  -0.000   0.050  -0.016  -0.000   0.082  -0.027
  0.000  -0.000   6.329   0.000  -0.000   9.792   0.000  -0.000
 -0.089   0.050   0.000   6.327   0.001   0.000   9.788   0.002
  0.030  -0.016  -0.000   0.001   6.329  -0.000   0.002   9.791
  0.000  -0.000   9.792   0.000  -0.000  15.219   0.000  -0.000
 -0.140   0.082   0.000   9.788   0.002   0.000  15.213   0.003
  0.047  -0.027  -0.000   0.002   9.791  -0.000   0.003  15.218
 -0.000   0.000   0.006   0.000   0.000   0.010   0.000   0.000
  0.000  -0.000  -0.020   0.000   0.000  -0.031   0.000   0.000
 -0.002   0.003  -0.000  -0.023  -0.004  -0.000  -0.035  -0.006
  0.003  -0.001   0.000   0.007  -0.020   0.000   0.011  -0.031
 -0.000   0.000  -0.000  -0.000   0.007  -0.000  -0.000   0.011
 total augmentation occupancy for first ion, spin component:           1
  2.026  -0.015  -0.000   0.237  -0.075   0.000  -0.042   0.014   0.000  -0.000   0.024   0.002   0.000
 -0.015   0.009   0.000  -0.073   0.023  -0.000   0.018  -0.005   0.000   0.000  -0.002   0.001  -0.000
 -0.000   0.000   1.508  -0.000   0.000  -0.406   0.000  -0.000   0.105  -0.042  -0.000   0.000   0.000
  0.237  -0.073  -0.000   1.839  -0.000   0.000  -0.487  -0.012  -0.000  -0.000  -0.268  -0.015  -0.000
 -0.075   0.023   0.000  -0.000   1.495  -0.000  -0.012  -0.398   0.000   0.000  -0.067  -0.044  -0.005
  0.000  -0.000  -0.406   0.000  -0.000   0.118   0.000   0.000  -0.028   0.012   0.000  -0.000  -0.000
 -0.042   0.018   0.000  -0.487  -0.012   0.000   0.141   0.006   0.000   0.000   0.074   0.004   0.000
  0.014  -0.005  -0.000  -0.012  -0.398   0.000   0.006   0.115  -0.000  -0.000   0.018   0.012   0.002
  0.000   0.000   0.105  -0.000   0.000  -0.028   0.000  -0.000   0.078   0.000  -0.000   0.000   0.000
 -0.000   0.000  -0.042  -0.000   0.000   0.012   0.000  -0.000   0.000   0.021   0.000   0.000  -0.000
  0.024  -0.002  -0.000  -0.268  -0.067   0.000   0.074   0.018  -0.000   0.000   0.078   0.005   0.001
  0.002   0.001   0.000  -0.015  -0.044  -0.000   0.004   0.012   0.000   0.000   0.005   0.022   0.000
  0.000  -0.000   0.000  -0.000  -0.005  -0.000   0.000   0.002   0.000  -0.000   0.001   0.000   0.017


------------------------ aborting loop because EDIFF is reached ----------------------------------------


    CHARGE:  cpu time    0.1634: real time    0.1635
    FORLOC:  cpu time    0.0018: real time    0.0018
    FORNL :  cpu time    0.3058: real time    0.3061
    STRESS:  cpu time    0.5896: real time    0.5910
    FORCOR:  cpu time    0.0370: real time    0.0371
    FORHAR:  cpu time    0.0095: real time    0.0095
    MIXING:  cpu time    0.0008: real time    0.0008
    OFIELD:  cpu time    0.0000: real time    0.0000

  FORCE on cell =-STRESS in cart. coord.  units (eV):
  Direction    XX          YY          ZZ          XY          YZ          ZX
  --------------------------------------------------------------------------------------
  Alpha Z     9.57604     9.57604     9.57604
  Ewald    1619.06153  1622.37024 -2078.17797     0.00000    -0.00000    -0.00003
  Hartree  1739.00448  1740.14514 -1692.67250     0.00000     0.00000    -0.00001
  E(xc)     -77.69036   -77.69807   -78.92591    -0.00000     0.00000     0.00000
  Local   -3610.82294 -3614.84632  3515.97486    -0.00000    -0.00000     0.00004
  n-local   162.58506   162.72383   167.26220     0.00000    -0.00000    -0.00000
  augment   -31.87575   -31.83029   -32.80349    -0.00000     0.00000     0.00000
  Kinetic   190.34868   189.71702   189.76551    -0.00000     0.00000     0.00001
  Fock        0.00000     0.00000     0.00000     0.00000     0.00000     0.00000
  -------------------------------------------------------------------------------------
  Total       0.18674     0.15759    -0.00127     0.00000     0.00000    -0.00000
  in kB       0.80126     0.67618    -0.00546     0.00000     0.00000    -0.00000
  external pressure =        0.49 kB  Pullay stress =        0.00 kB


 VOLUME and BASIS-vectors are now :
 -----------------------------------------------------------------------------
  energy-cutoff  :      600.00
  volume of cell :      373.40
      direct lattice vectors                 reciprocal lattice vectors
     4.349489089  0.000000000  0.000000000     0.229912061  0.000000000  0.000000000
     0.000000000  4.292477857  0.000000000     0.000000000  0.232965675  0.000000000
     0.000000000  0.000000000 20.000000000     0.000000000  0.000000000  0.050000000

  length of vectors
     4.349489089  4.292477857 20.000000000     0.229912061  0.232965675  0.050000000


 FORCES acting on ions
    electron-ion (+dipol)            ewald-force                    non-local-force                 convergence-correction
 -----------------------------------------------------------------------------------------------
   0.353E+01 0.671E-06 -.145E+03   -.479E+01 -.841E-06 0.149E+03   0.127E+01 0.161E-06 -.379E+01   0.628E-04 0.827E-09 -.767E-04
   0.353E+01 0.125E-06 0.145E+03   -.479E+01 -.201E-06 -.149E+03   0.127E+01 0.839E-07 0.379E+01   0.619E-04 -.100E-07 0.566E-04
   -.442E+01 -.740E-06 -.208E+03   0.479E+01 0.823E-06 0.210E+03   -.374E+00 -.475E-07 -.204E+01   -.109E-02 -.145E-07 -.295E-03
   -.442E+01 -.234E-06 0.208E+03   0.479E+01 0.219E-06 -.210E+03   -.374E+00 -.168E-07 0.204E+01   -.109E-02 0.240E-07 0.247E-03
 -----------------------------------------------------------------------------------------------
   -.179E+01 -.178E-06 0.778E-04   0.000E+00 0.962E-15 -.284E-13   0.179E+01 0.180E-06 -.131E-04   -.205E-02 0.301E-09 -.677E-04
 
 
 POSITION                                       TOTAL-FORCE (eV/Angst)
 -----------------------------------------------------------------------------------
      2.51120      3.21936     11.37309         0.000508     -0.000000      0.000732
      0.33646      1.07312      8.62691         0.000507     -0.000000     -0.000753
      0.15984      1.07312     11.34572        -0.000508      0.000000     -0.000368
      2.33458      3.21936      8.65428        -0.000507     -0.000000      0.000389
 -----------------------------------------------------------------------------------
    total drift:                               -0.000548      0.000000     -0.000003


--------------------------------------------------------------------------------------------------------



  FREE ENERGIE OF THE ION-ELECTRON SYSTEM (eV)
  ---------------------------------------------------
  free  energy   TOTEN  =       -16.26369033 eV

  energy  without entropy=      -16.26369033  energy(sigma->0) =      -16.26369033
 
 d Force = 0.1907991E-06[ 0.114E-07, 0.370E-06]  d Energy = 0.4439718E-06-0.253E-06
 d Force = 0.4872009E-01[ 0.487E-01, 0.487E-01]  d Ewald  = 0.4872009E-01-0.778E-10


--------------------------------------------------------------------------------------------------------


    POTLOK:  cpu time    0.0388: real time    0.0389


--------------------------------------------------------------------------------------------------------




--------------------------------------------------------------------------------------------------------


  
 reached required accuracy - stopping structural energy minimisation
 writing wavefunctions
     LOOP+:  cpu time    6.5906: real time    6.9221
    4ORBIT:  cpu time    0.0000: real time    0.0000

 total amount of memory used by VASP MPI-rank0    63513. kBytes
=======================================================================

   base      :      30000. kBytes
   nonl-proj :      12608. kBytes
   fftplans  :       2678. kBytes
   grid      :       4349. kBytes
   one-center:          8. kBytes
   wavefun   :      13870. kBytes
 
  
  
 General timing and accounting informations for this job:
 ========================================================
  
                  Total CPU time used (sec):      529.134
                            User time (sec):      528.290
                          System time (sec):        0.844
                         Elapsed time (sec):      562.210
  
                   Maximum memory used (kb):      218032.
                   Average memory used (kb):           0.
  
                          Minor page faults:       140157
                          Major page faults:          110
                 Voluntary context switches:        12497
