
     Program PWSCF v.6.6 starts on  6Mar2023 at 16:29:42 

     This program is part of the open-source Quantum ESPRESSO suite
     for quantum simulation of materials; please cite
         "P. Giannozzi et al., J. Phys.:Condens. Matter 21 395502 (2009);
         "P. Giannozzi et al., J. Phys.:Condens. Matter 29 465901 (2017);
          URL http://www.quantum-espresso.org", 
     in publications or presentations arising from this work. More details at
     http://www.quantum-espresso.org/quote

     Parallel version (MPI), running on    24 processors

     MPI processes distributed on     1 nodes
     R & G space division:  proc/nbgrp/npool/nimage =      24
     Fft bands division:     nmany     =       1
     Reading input from INCAR-scf.pw

     Current dimensions of program PWSCF are:
     Max number of different atomic species (ntypx) = 10
     Max number of k-points (npk) =  40000
     Max angular momentum in pseudopotentials (lmaxx) =  3

     Subspace diagonalization in iterative solution of the eigenvalue problem:
     a serial algorithm will be used

 
     Parallelization info
     --------------------
     sticks:   dense  smooth     PW     G-vecs:    dense   smooth      PW
     Min         423     237     64                19923     8345    1194
     Max         425     239     65                19926     8346    1197
     Sum       10179    5709   1551               478197   200297   28705
 


     bravais-lattice index     =            0
     lattice parameter (alat)  =      12.1557  a.u.
     unit-cell volume          =    2532.0349 (a.u.)^3
     number of atoms/cell      =           32
     number of atomic types    =            3
     number of electrons       =       128.00
     number of Kohn-Sham states=           77
     kinetic-energy cutoff     =      70.0000  Ry
     charge density cutoff     =     500.0000  Ry
     convergence threshold     =      1.0E-10
     mixing beta               =       0.7000
     number of iterations used =            8  plain     mixing
     Exchange-correlation= LDA
                           (   1   1   0   0   0   0   0)

     celldm(1)=  12.155663  celldm(2)=   0.000000  celldm(3)=   0.000000
     celldm(4)=   0.000000  celldm(5)=   0.000000  celldm(6)=   0.000000

     crystal axes: (cart. coord. in units of alat)
               a(1) = (   1.000000   0.000000   0.000000 )  
               a(2) = (   0.000000   1.732079   0.000000 )  
               a(3) = (   0.000000   0.000000   0.813890 )  

     reciprocal axes: (cart. coord. in units 2 pi/alat)
               b(1) = (  1.000000  0.000000  0.000000 )  
               b(2) = (  0.000000  0.577341  0.000000 )  
               b(3) = (  0.000000  0.000000  1.228667 )  


     PseudoPot. # 1 for Al read from file:
     ./Al.pz-n-rrkjus_psl.0.1.UPF
     MD5 check sum: 3b788946f5b2ec323a58a29a5ff2368a
     Pseudo is Ultrasoft + core correction, Zval =  3.0
     Generated using "atomic" code by A. Dal Corso v.5.0.2 svn rev. 9415
     Using radial grid of 1135 points,  4 beta functions with: 
                l(1) =   0
                l(2) =   0
                l(3) =   1
                l(4) =   1
     Q(r) pseudized with 0 coefficients 


     PseudoPot. # 2 for N  read from file:
     ./N.pz-n-rrkjus_psl.0.1.UPF
     MD5 check sum: 5663b752f1eef59ba9d503062cb6a42c
     Pseudo is Ultrasoft + core correction, Zval =  5.0
     Generated using "atomic" code by A. Dal Corso v.5.0.2 svn rev. 9415
     Using radial grid of 1085 points,  4 beta functions with: 
                l(1) =   0
                l(2) =   0
                l(3) =   1
                l(4) =   1
     Q(r) pseudized with 0 coefficients 


     PseudoPot. # 3 for B  read from file:
     ./B.pz-n-rrkjus_psl.0.1.UPF
     MD5 check sum: afbcbde2cf54223ea3a4e9251853ad92
     Pseudo is Ultrasoft + core correction, Zval =  3.0
     Generated using "atomic" code by A. Dal Corso v.5.0.2 svn rev. 9415
     Using radial grid of 1059 points,  4 beta functions with: 
                l(1) =   0
                l(2) =   0
                l(3) =   1
                l(4) =   1
     Q(r) pseudized with 0 coefficients 


     atomic species   valence    mass     pseudopotential
        Al             3.00    26.98154     Al( 1.00)
        N              5.00    14.00674     N ( 1.00)
        B              3.00    10.81100     B ( 1.00)

     No symmetry found



   Cartesian axes

     site n.     atom                  positions (alat units)
         1           Al  tau(   1) = (   0.1316730   0.2712142   0.4402537  )
         2           N   tau(   2) = (   0.1316730   0.2712142   0.7464490  )
         3           Al  tau(   3) = (   0.1316730   0.5598929   0.0329504  )
         4           N   tau(   4) = (   0.1316730   0.5598929   0.3398619  )
         5           Al  tau(   5) = (   0.3816730   0.7042323   0.4402537  )
         6           N   tau(   6) = (   0.3816730   0.7042323   0.7464490  )
         7           Al  tau(   7) = (   0.3816730   0.9929110   0.0329504  )
         8           N   tau(   8) = (   0.3816730   0.9929110   0.3398619  )
         9           Al  tau(   9) = (   0.1316730   1.1372503   0.4402537  )
        10           N   tau(  10) = (   0.1316730   1.1372503   0.7464490  )
        11           Al  tau(  11) = (   0.1316730   1.4259291   0.0329504  )
        12           N   tau(  12) = (   0.1316730   1.4259291   0.3398619  )
        13           Al  tau(  13) = (   0.3816730   1.5702684   0.4402537  )
        14           N   tau(  14) = (   0.3816730   1.5702684   0.7464490  )
        15           Al  tau(  15) = (   0.3816730   0.1268748   0.0329504  )
        16           N   tau(  16) = (   0.3816730   0.1268748   0.3398619  )
        17           Al  tau(  17) = (   0.6316730   0.2712142   0.4402537  )
        18           N   tau(  18) = (   0.6316730   0.2712142   0.7464490  )
        19           Al  tau(  19) = (   0.6316730   0.5598929   0.0329504  )
        20           N   tau(  20) = (   0.6316730   0.5598929   0.3398619  )
        21           B   tau(  21) = (   0.8816730   0.7042323   0.4402537  )
        22           N   tau(  22) = (   0.8816730   0.7042323   0.7464490  )
        23           Al  tau(  23) = (   0.8816730   0.9929110   0.0329504  )
        24           N   tau(  24) = (   0.8816730   0.9929110   0.3398619  )
        25           B   tau(  25) = (   0.6316730   1.1372503   0.4402537  )
        26           N   tau(  26) = (   0.6316730   1.1372503   0.7464490  )
        27           B   tau(  27) = (   0.6316730   1.4259291   0.0329504  )
        28           N   tau(  28) = (   0.6316730   1.4259291   0.3398619  )
        29           B   tau(  29) = (   0.8816730   1.5702684   0.4402537  )
        30           N   tau(  30) = (   0.8816730   1.5702684   0.7464490  )
        31           Al  tau(  31) = (   0.8816730   0.1268748   0.0329504  )
        32           N   tau(  32) = (   0.8816730   0.1268748   0.3398619  )

     number of k points=    46  Gaussian smearing, width (Ry)=  0.0100
                       cart. coord. in units 2pi/alat
        k(    1) = (   0.0000000   0.0000000   0.0000000), wk =   0.0222222
        k(    2) = (   0.0000000   0.0000000   0.2047778), wk =   0.0444444
        k(    3) = (   0.0000000   0.0000000   0.4095556), wk =   0.0444444
        k(    4) = (   0.0000000   0.0000000  -0.6143333), wk =   0.0222222
        k(    5) = (   0.0000000   0.1924469   0.0000000), wk =   0.0444444
        k(    6) = (   0.0000000   0.1924469   0.2047778), wk =   0.0444444
        k(    7) = (   0.0000000   0.1924469   0.4095556), wk =   0.0444444
        k(    8) = (   0.0000000   0.1924469  -0.6143333), wk =   0.0444444
        k(    9) = (   0.2000000   0.0000000   0.0000000), wk =   0.0444444
        k(   10) = (   0.2000000   0.0000000   0.2047778), wk =   0.0444444
        k(   11) = (   0.2000000   0.0000000   0.4095556), wk =   0.0444444
        k(   12) = (   0.2000000   0.0000000  -0.6143333), wk =   0.0444444
        k(   13) = (   0.2000000   0.1924469   0.0000000), wk =   0.0444444
        k(   14) = (   0.2000000   0.1924469   0.2047778), wk =   0.0444444
        k(   15) = (   0.2000000   0.1924469   0.4095556), wk =   0.0444444
        k(   16) = (   0.2000000   0.1924469  -0.6143333), wk =   0.0444444
        k(   17) = (   0.4000000   0.0000000   0.0000000), wk =   0.0444444
        k(   18) = (   0.4000000   0.0000000   0.2047778), wk =   0.0444444
        k(   19) = (   0.4000000   0.0000000   0.4095556), wk =   0.0444444
        k(   20) = (   0.4000000   0.0000000  -0.6143333), wk =   0.0444444
        k(   21) = (   0.4000000   0.1924469   0.0000000), wk =   0.0444444
        k(   22) = (   0.4000000   0.1924469   0.2047778), wk =   0.0444444
        k(   23) = (   0.4000000   0.1924469   0.4095556), wk =   0.0444444
        k(   24) = (   0.4000000   0.1924469  -0.6143333), wk =   0.0444444
        k(   25) = (   0.0000000  -0.1924469   0.2047778), wk =   0.0444444
        k(   26) = (   0.0000000  -0.1924469   0.4095556), wk =   0.0444444
        k(   27) = (  -0.2000000   0.0000000   0.2047778), wk =   0.0444444
        k(   28) = (  -0.2000000   0.0000000   0.4095556), wk =   0.0444444
        k(   29) = (  -0.2000000   0.1924469   0.0000000), wk =   0.0444444
        k(   30) = (  -0.2000000  -0.1924469   0.2047778), wk =   0.0444444
        k(   31) = (  -0.2000000   0.1924469  -0.2047778), wk =   0.0444444
        k(   32) = (   0.2000000  -0.1924469  -0.2047778), wk =   0.0444444
        k(   33) = (  -0.2000000  -0.1924469   0.4095556), wk =   0.0444444
        k(   34) = (  -0.2000000   0.1924469  -0.4095556), wk =   0.0444444
        k(   35) = (   0.2000000  -0.1924469  -0.4095556), wk =   0.0444444
        k(   36) = (  -0.2000000   0.1924469   0.6143333), wk =   0.0444444
        k(   37) = (  -0.4000000   0.0000000   0.2047778), wk =   0.0444444
        k(   38) = (  -0.4000000   0.0000000   0.4095556), wk =   0.0444444
        k(   39) = (  -0.4000000   0.1924469   0.0000000), wk =   0.0444444
        k(   40) = (  -0.4000000  -0.1924469   0.2047778), wk =   0.0444444
        k(   41) = (  -0.4000000   0.1924469  -0.2047778), wk =   0.0444444
        k(   42) = (   0.4000000  -0.1924469  -0.2047778), wk =   0.0444444
        k(   43) = (  -0.4000000  -0.1924469   0.4095556), wk =   0.0444444
        k(   44) = (  -0.4000000   0.1924469  -0.4095556), wk =   0.0444444
        k(   45) = (   0.4000000  -0.1924469  -0.4095556), wk =   0.0444444
        k(   46) = (  -0.4000000   0.1924469   0.6143333), wk =   0.0444444

     Dense  grid:   478197 G-vectors     FFT dimensions: (  90, 150,  72)

     Smooth grid:   200297 G-vectors     FFT dimensions: (  72, 120,  54)

     Estimated max dynamical RAM per process >      93.34 MB

     Estimated total dynamical RAM >       2.19 GB

     Check: negative core charge=   -0.000004

     Initial potential from superposition of free atoms

     starting charge  127.97455, renormalised to  128.00000
     Starting wfcs are  128 randomized atomic wfcs

     total cpu time spent up to now is       13.4 secs

     Self-consistent Calculation

     iteration #  1     ecut=    70.00 Ry     beta= 0.70
     Davidson diagonalization with overlap
     ethr =  1.00E-02,  avg # of iterations =  2.2

     total cpu time spent up to now is       37.7 secs

     total energy              =    -412.31612809 Ry
     estimated scf accuracy    <       8.21360000 Ry

     iteration #  2     ecut=    70.00 Ry     beta= 0.70
     Davidson diagonalization with overlap
     ethr =  6.42E-03,  avg # of iterations =  3.5

     total cpu time spent up to now is       70.5 secs

     total energy              =    -414.80453818 Ry
     estimated scf accuracy    <       8.58658271 Ry

     iteration #  3     ecut=    70.00 Ry     beta= 0.70
     Davidson diagonalization with overlap
     ethr =  6.42E-03,  avg # of iterations =  1.9

     total cpu time spent up to now is       90.4 secs

     total energy              =    -415.80194785 Ry
     estimated scf accuracy    <       0.79044953 Ry

     iteration #  4     ecut=    70.00 Ry     beta= 0.70
     Davidson diagonalization with overlap
     ethr =  6.18E-04,  avg # of iterations =  3.1

     total cpu time spent up to now is      120.0 secs

     total energy              =    -416.20128124 Ry
     estimated scf accuracy    <       0.03936330 Ry

     iteration #  5     ecut=    70.00 Ry     beta= 0.70
     Davidson diagonalization with overlap
     c_bands:  1 eigenvalues not converged
     c_bands:  1 eigenvalues not converged
     c_bands:  2 eigenvalues not converged
     c_bands:  1 eigenvalues not converged
     c_bands:  1 eigenvalues not converged
     c_bands:  1 eigenvalues not converged
     c_bands:  1 eigenvalues not converged
     c_bands:  1 eigenvalues not converged
     c_bands:  1 eigenvalues not converged
     c_bands:  1 eigenvalues not converged
     c_bands:  1 eigenvalues not converged
     c_bands:  1 eigenvalues not converged
     c_bands:  1 eigenvalues not converged
     c_bands:  2 eigenvalues not converged
     c_bands:  1 eigenvalues not converged
     c_bands:  2 eigenvalues not converged
     c_bands:  2 eigenvalues not converged
     ethr =  3.08E-05,  avg # of iterations = 18.3

     total cpu time spent up to now is      185.0 secs

     total energy              =    -416.23688839 Ry
     estimated scf accuracy    <       0.13626159 Ry

     iteration #  6     ecut=    70.00 Ry     beta= 0.70
     Davidson diagonalization with overlap
     c_bands:  1 eigenvalues not converged
     ethr =  3.08E-05,  avg # of iterations =  6.0

     total cpu time spent up to now is      212.4 secs

     total energy              =    -416.23383809 Ry
     estimated scf accuracy    <       0.04497092 Ry

     iteration #  7     ecut=    70.00 Ry     beta= 0.70
     Davidson diagonalization with overlap
     ethr =  3.08E-05,  avg # of iterations =  1.3

     total cpu time spent up to now is      232.9 secs

     total energy              =    -416.23441917 Ry
     estimated scf accuracy    <       0.01256637 Ry

     iteration #  8     ecut=    70.00 Ry     beta= 0.70
     Davidson diagonalization with overlap
     c_bands:  1 eigenvalues not converged
     c_bands:  1 eigenvalues not converged
     c_bands:  1 eigenvalues not converged
     c_bands:  1 eigenvalues not converged
     ethr =  9.82E-06,  avg # of iterations =  9.7

     total cpu time spent up to now is      264.9 secs

     total energy              =    -416.23527468 Ry
     estimated scf accuracy    <       0.00394364 Ry

     iteration #  9     ecut=    70.00 Ry     beta= 0.70
     Davidson diagonalization with overlap
     c_bands:  1 eigenvalues not converged
     c_bands:  1 eigenvalues not converged
     c_bands:  1 eigenvalues not converged
     c_bands:  1 eigenvalues not converged
     c_bands:  1 eigenvalues not converged
     c_bands:  1 eigenvalues not converged
     c_bands:  1 eigenvalues not converged
     c_bands:  1 eigenvalues not converged
     c_bands:  1 eigenvalues not converged
     ethr =  3.08E-06,  avg # of iterations = 13.3

     total cpu time spent up to now is      303.3 secs

     total energy              =    -416.23635421 Ry
     estimated scf accuracy    <       0.00021608 Ry

     iteration # 10     ecut=    70.00 Ry     beta= 0.70
     Davidson diagonalization with overlap
     c_bands:  1 eigenvalues not converged
     c_bands:  1 eigenvalues not converged
     ethr =  1.69E-07,  avg # of iterations =  6.4

     total cpu time spent up to now is      343.4 secs

     total energy              =    -416.23659122 Ry
     estimated scf accuracy    <       0.00006885 Ry

     iteration # 11     ecut=    70.00 Ry     beta= 0.70
     Davidson diagonalization with overlap
     ethr =  5.38E-08,  avg # of iterations =  2.0

     total cpu time spent up to now is      364.7 secs

     total energy              =    -416.23655951 Ry
     estimated scf accuracy    <       0.00008439 Ry

     iteration # 12     ecut=    70.00 Ry     beta= 0.70
     Davidson diagonalization with overlap
     ethr =  5.38E-08,  avg # of iterations =  2.0

     total cpu time spent up to now is      388.6 secs

     total energy              =    -416.23657045 Ry
     estimated scf accuracy    <       0.00000434 Ry

     iteration # 13     ecut=    70.00 Ry     beta= 0.70
     Davidson diagonalization with overlap
     ethr =  3.39E-09,  avg # of iterations =  5.7

     total cpu time spent up to now is      428.4 secs

     total energy              =    -416.23657468 Ry
     estimated scf accuracy    <       0.00000360 Ry

     iteration # 14     ecut=    70.00 Ry     beta= 0.70
     Davidson diagonalization with overlap
     ethr =  2.81E-09,  avg # of iterations =  1.4

     total cpu time spent up to now is      447.0 secs

     total energy              =    -416.23657376 Ry
     estimated scf accuracy    <       0.00000372 Ry

     iteration # 15     ecut=    70.00 Ry     beta= 0.70
     Davidson diagonalization with overlap
     ethr =  2.81E-09,  avg # of iterations =  1.2

     total cpu time spent up to now is      465.2 secs

     total energy              =    -416.23657360 Ry
     estimated scf accuracy    <       0.00000124 Ry

     iteration # 16     ecut=    70.00 Ry     beta= 0.70
     Davidson diagonalization with overlap
     ethr =  9.67E-10,  avg # of iterations =  2.0

     total cpu time spent up to now is      487.9 secs

     total energy              =    -416.23657368 Ry
     estimated scf accuracy    <       0.00000026 Ry

     iteration # 17     ecut=    70.00 Ry     beta= 0.70
     Davidson diagonalization with overlap
     ethr =  2.01E-10,  avg # of iterations =  3.0

     total cpu time spent up to now is      513.2 secs

     total energy              =    -416.23657371 Ry
     estimated scf accuracy    <       0.00000005 Ry

     iteration # 18     ecut=    70.00 Ry     beta= 0.70
     Davidson diagonalization with overlap
     ethr =  3.68E-11,  avg # of iterations =  4.9

     total cpu time spent up to now is      546.3 secs

     total energy              =    -416.23657373 Ry
     estimated scf accuracy    <          1.8E-09 Ry

     iteration # 19     ecut=    70.00 Ry     beta= 0.70
     Davidson diagonalization with overlap
     ethr =  1.43E-12,  avg # of iterations =  6.9

     total cpu time spent up to now is      596.0 secs

     total energy              =    -416.23657373 Ry
     estimated scf accuracy    <          2.1E-09 Ry

     iteration # 20     ecut=    70.00 Ry     beta= 0.70
     Davidson diagonalization with overlap
     ethr =  1.43E-12,  avg # of iterations =  1.2

     total cpu time spent up to now is      614.3 secs

     total energy              =    -416.23657373 Ry
     estimated scf accuracy    <          8.4E-10 Ry

     iteration # 21     ecut=    70.00 Ry     beta= 0.70
     Davidson diagonalization with overlap
     ethr =  6.56E-13,  avg # of iterations =  3.0

     total cpu time spent up to now is      644.2 secs

     total energy              =    -416.23657373 Ry
     estimated scf accuracy    <          6.0E-10 Ry

     iteration # 22     ecut=    70.00 Ry     beta= 0.70
     Davidson diagonalization with overlap
     ethr =  4.66E-13,  avg # of iterations =  1.5

     total cpu time spent up to now is      663.1 secs

     End of self-consistent calculation

          k = 0.0000 0.0000 0.0000 ( 24971 PWs)   bands (ev):

    -9.4225  -8.7532  -8.7440  -7.8165  -7.7692  -7.6963  -7.6941  -7.6414
    -7.6223  -7.2791  -7.2490  -7.1433  -7.0799  -7.0673  -7.0164  -6.9612
    -0.9503  -0.6271  -0.5354  -0.3596   0.0081   0.0895   0.3268   0.5219
     0.6654   0.7281   0.8262   0.8815   1.0022   1.5085   1.5290   1.5661
     1.5984   1.6608   1.7123   1.7308   2.0250   2.0527   2.4553   2.5934
     2.8559   2.8673   2.8765   3.0522   3.1121   3.1344   3.2205   3.2918
     3.3747   3.4411   3.4490   3.5448   4.1283   4.1385   4.1779   4.2074
     4.2304   4.3987   4.4197   4.5245   4.5737   4.8435   4.8506   4.8678
     7.6984   8.8601   8.9531   9.2147   9.7453   9.8914  10.0552  10.1825
    10.2430  10.3105  10.3185  10.3593  10.6579

          k = 0.0000 0.0000 0.2048 ( 25015 PWs)   bands (ev):

    -9.3320  -8.6738  -8.6643  -7.7981  -7.7698  -7.7171  -7.6555  -7.6501
    -7.5977  -7.3985  -7.3710  -7.1849  -7.1150  -7.1089  -7.0641  -7.0064
    -0.7837  -0.7065  -0.6391  -0.3399   0.0211   0.1445   0.1663   0.3588
     0.4654   0.5507   0.6582   0.6728   0.7466   1.6192   1.6859   1.8073
     1.9090   1.9480   1.9960   2.0531   2.1518   2.1654   2.3562   2.4025
     2.8979   2.9168   2.9483   3.0358   3.0834   3.3418   3.4254   3.4645
     3.4877   3.5587   3.6942   3.7326   4.0829   4.1125   4.1304   4.1649
     4.1775   4.2081   4.3451   4.3819   4.4403   4.4979   4.7942   4.8157
     8.1287   8.8000   8.9211   9.0759   9.5464   9.7330   9.8547   9.9152
    10.0227  10.3123  10.4161  10.4497  10.7785

          k = 0.0000 0.0000 0.4096 ( 25072 PWs)   bands (ev):

    -9.0705  -8.4474  -8.4367  -8.1989  -7.7266  -7.7173  -7.6364  -7.5874
    -7.5373  -7.5118  -7.4728  -7.2985  -7.2179  -7.2141  -7.1901  -7.1286
    -0.8566  -0.7760  -0.7380  -0.2882  -0.0426  -0.0294   0.0241   0.2435
     0.3748   0.4606   0.5412   0.5661   0.6488   1.4742   1.6512   1.8324
     1.8759   2.4155   2.5318   2.5539   2.5813   2.7167   2.7747   2.7869
     2.9321   3.0559   3.0915   3.1531   3.1594   3.2020   3.5365   3.6837
     3.6994   3.7420   3.7621   3.8489   3.8683   3.8968   3.9541   4.0122
     4.0221   4.0740   4.1754   4.2539   4.3005   4.3659   4.6604   4.6813
     8.5706   8.6494   8.7876   8.9075   9.4821   9.5591   9.6442   9.8544
    10.0205  10.2590  10.3714  10.6012  10.7205

          k = 0.0000 0.0000-0.6143 ( 25066 PWs)   bands (ev):

    -8.7023  -8.6367  -8.1353  -8.1249  -8.0758  -8.0611  -7.4869  -7.4593
    -7.4524  -7.4063  -7.3887  -7.3657  -7.3478  -7.3168  -7.3003  -7.2671
    -0.9073  -0.8068  -0.6800  -0.5147  -0.2186  -0.1952  -0.0097   0.1471
     0.1832   0.4093   0.8727   1.0284   1.0749   1.2190   1.5230   1.7271
     2.0377   2.0844   2.2132   2.2765   3.0848   3.1768   3.2015   3.2928
     3.3019   3.3368   3.3883   3.4155   3.4654   3.4808   3.4922   3.5000
     3.5402   3.6193   3.6369   3.6700   3.7160   3.7921   3.8254   3.8461
     3.8824   3.9543   3.9912   4.0726   4.4258   4.4468   4.5249   4.5503
     8.7262   8.7735   8.8087   8.8783   9.3547   9.3628   9.6081   9.9332
    10.0283  10.2657  10.3380  10.4525  10.5563

          k = 0.0000 0.1924 0.0000 ( 25018 PWs)   bands (ev):

    -9.3499  -9.0964  -8.3176  -7.9004  -7.8106  -7.7515  -7.7132  -7.6495
    -7.5852  -7.4257  -7.1447  -7.1166  -7.0636  -7.0489  -7.0209  -6.9621
    -0.8860  -0.6752  -0.4745  -0.2185  -0.1238   0.1319   0.2380   0.3687
     0.6932   0.8213   0.8499   0.9129   1.0495   1.1492   1.3882   1.5093
     1.5837   1.6234   1.6389   1.7671   2.1402   2.1685   2.6031   2.6266
     2.7675   2.9288   3.0765   3.1925   3.2398   3.3381   3.3570   3.3839
     3.4576   3.5317   3.5905   3.7331   3.7533   3.9123   3.9893   4.0293
     4.0931   4.2681   4.3881   4.3921   4.6428   4.6996   4.8178   4.8435
     8.1028   8.7445   9.0975   9.2461   9.6469  10.0351  10.1094  10.2363
    10.2940  10.3771  10.4643  10.5196  10.7329

          k = 0.0000 0.1924 0.2048 ( 25017 PWs)   bands (ev):

    -9.2604  -9.0104  -8.2490  -7.8489  -7.7655  -7.7547  -7.6997  -7.6673
    -7.6055  -7.5715  -7.2094  -7.1799  -7.1126  -7.0985  -7.0693  -7.0066
    -0.7506  -0.6505  -0.5601  -0.2224  -0.0726  -0.0037   0.1014   0.2059
     0.4553   0.5727   0.6645   0.7950   0.8927   1.1582   1.5804   1.7517
     1.8237   1.8878   1.9397   1.9960   2.2710   2.3536   2.7015   2.7343
     2.8203   3.0002   3.1446   3.1995   3.2789   3.3322   3.4414   3.4973
     3.6094   3.6339   3.7304   3.7761   3.8119   3.8965   3.9070   3.9836
     4.0658   4.0900   4.1708   4.3009   4.5290   4.6293   4.6635   4.7867
     8.4165   8.8003   9.0312   9.1192   9.6073   9.8537   9.8920   9.9547
    10.1362  10.1786  10.2996  10.6081  10.8680

          k = 0.0000 0.1924 0.4096 ( 25053 PWs)   bands (ev):

    -9.0022  -8.7630  -8.1492  -8.0523  -7.9512  -7.7031  -7.6369  -7.5776
    -7.5503  -7.4850  -7.4319  -7.2982  -7.2617  -7.2140  -7.1926  -7.1283
    -0.7983  -0.6952  -0.6512  -0.3032  -0.0833   0.0006   0.0561   0.2418
     0.2662   0.3725   0.4457   0.5248   0.6168   0.8512   2.0315   2.0971
     2.2476   2.3448   2.5208   2.5728   2.6442   2.7679   2.8493   2.8909
     3.0186   3.0924   3.1053   3.1276   3.2205   3.2765   3.3280   3.4769
     3.5135   3.8126   3.8207   3.8639   3.9031   3.9358   3.9694   3.9726
     4.0120   4.0362   4.0610   4.1600   4.2092   4.4485   4.4597   4.6369
     8.6972   8.7678   8.8850   9.0565   9.5566   9.7147   9.7436   9.9177
     9.9706  10.0571  10.2053  10.5408  10.6921

          k = 0.0000 0.1924-0.6143 ( 25084 PWs)   bands (ev):

    -8.6398  -8.5752  -8.4175  -8.3522  -7.8004  -7.7467  -7.5194  -7.4781
    -7.4726  -7.4400  -7.4365  -7.3853  -7.3683  -7.3228  -7.3066  -7.2732
    -0.8348  -0.7137  -0.6044  -0.4976  -0.1212  -0.0473  -0.0263   0.0467
     0.0794   0.2442   0.3631   0.5093   1.3663   1.5176   1.5541   1.7221
     2.3239   2.3704   2.4978   2.5634   2.8819   2.9232   3.0477   3.1032
     3.1798   3.3082   3.3230   3.3969   3.4799   3.5071   3.5516   3.5908
     3.6382   3.6645   3.7054   3.7349   3.7474   3.7788   3.8198   3.8339
     3.8509   3.8962   4.1328   4.1500   4.2409   4.2589   4.3782   4.4933
     8.8131   8.8624   8.9214   9.0237   9.4983   9.5393   9.7585   9.8644
     9.9993  10.1631  10.2853  10.3920  10.4949

          k = 0.2000 0.0000 0.0000 ( 25038 PWs)   bands (ev):

    -9.3378  -8.6801  -8.6710  -8.2446  -7.8506  -7.8422  -7.6436  -7.5763
    -7.3944  -7.2478  -7.2176  -7.1565  -7.0924  -7.0662  -7.0379  -6.9833
    -0.8530  -0.5010  -0.4225  -0.2121   0.1431   0.2012   0.3535   0.5553
     0.7109   0.8031   0.9095   1.0177   1.1951   1.3182   1.3776   1.4025
     1.4752   1.6774   1.7183   1.7549   2.1604   2.2128   2.2413   2.4851
     2.6985   2.7746   2.8311   2.8448   2.9038   3.1291   3.2643   3.3344
     3.4086   3.4598   3.6690   3.8052   3.8904   3.9269   4.0101   4.1175
     4.1683   4.2772   4.3256   4.3509   4.3767   4.4496   4.7987   4.8033
     8.1472   9.1224   9.2358   9.5081   9.7350  10.0055  10.0969  10.2449
    10.3188  10.4400  10.5734  10.7193  10.9065

          k = 0.2000 0.0000 0.2048 ( 25015 PWs)   bands (ev):

    -9.2484  -8.6022  -8.5928  -8.1781  -7.8010  -7.7912  -7.7389  -7.6053
    -7.3849  -7.3497  -7.3348  -7.2185  -7.1306  -7.1060  -7.0857  -7.0392
    -0.6893  -0.5834  -0.4992  -0.2223   0.1180   0.2159   0.2367   0.4872
     0.5252   0.6640   0.7194   0.7588   1.0948   1.1682   1.6146   1.7404
     1.7787   1.8302   1.9055   2.0171   2.1630   2.2142   2.4863   2.5771
     2.6352   2.7659   2.9012   2.9103   3.1882   3.2447   3.3591   3.4074
     3.5374   3.6212   3.6699   3.7907   3.8083   3.8759   4.0305   4.0605
     4.0913   4.1155   4.1955   4.2471   4.3655   4.3945   4.6808   4.7415
     8.4638   9.0137   9.1686   9.4130   9.7305   9.8723   9.9996  10.1456
    10.1843  10.2422  10.5732  10.6889  10.9229

          k = 0.2000 0.0000 0.4096 ( 25044 PWs)   bands (ev):

    -8.9905  -8.3804  -8.3698  -8.1350  -7.9901  -7.6958  -7.6811  -7.6374
    -7.6279  -7.4859  -7.4165  -7.3243  -7.2497  -7.2277  -7.1854  -7.1235
    -0.7522  -0.6457  -0.5689  -0.1907   0.0746   0.1411   0.1588   0.3394
     0.4707   0.5167   0.5955   0.6620   0.8739   1.1661   1.4245   1.5756
     2.0744   2.3860   2.4287   2.5028   2.5733   2.6447   2.6656   2.7151
     2.8595   3.0551   3.1073   3.1537   3.2396   3.3381   3.3788   3.4234
     3.4479   3.6266   3.7047   3.7832   3.8456   3.8926   3.9364   3.9485
     3.9800   4.0071   4.0953   4.1424   4.1888   4.2145   4.4720   4.5904
     8.7613   8.8875   9.0920   9.1984   9.6210   9.8212   9.9398  10.0529
    10.1805  10.3859  10.4978  10.7121  10.9149

          k = 0.2000 0.0000-0.6143 ( 25070 PWs)   bands (ev):

    -8.6283  -8.5634  -8.0763  -8.0658  -8.0178  -8.0033  -7.7445  -7.6919
    -7.4915  -7.4677  -7.4400  -7.4144  -7.3595  -7.3142  -7.2195  -7.1726
    -0.8092  -0.6389  -0.5442  -0.3638  -0.0673  -0.0310   0.0540   0.2584
     0.3914   0.6315   0.8431   0.9976   1.0452   1.1677   1.4553   1.5705
     1.6441   1.7263   2.6631   2.8269   2.8779   2.9607   3.0398   3.0791
     3.1870   3.2225   3.2739   3.3104   3.3402   3.4040   3.4717   3.5156
     3.5447   3.6012   3.6541   3.6795   3.7145   3.7563   3.7741   3.8177
     3.8326   3.8978   3.9203   3.9917   4.1595   4.2647   4.3362   4.4438
     8.9482   9.0071   9.0508   9.1426   9.5473   9.6068   9.8655  10.1227
    10.2776  10.4007  10.4539  10.6186  10.6700

          k = 0.2000 0.1924 0.0000 ( 25023 PWs)   bands (ev):

    -9.2664  -9.0168  -8.2544  -8.2016  -8.0359  -7.8439  -7.6368  -7.5457
    -7.4548  -7.3834  -7.1578  -7.1111  -7.0806  -7.0544  -7.0190  -6.9813
    -0.7875  -0.5894  -0.3544  -0.0637   0.0161   0.1585   0.3764   0.5563
     0.7337   0.8707   0.9169   0.9685   1.0550   1.1405   1.2976   1.4299
     1.5102   1.5929   1.6422   1.7609   2.0810   2.2816   2.5628   2.6165
     2.7638   2.8137   2.9434   2.9785   3.0162   3.0915   3.1810   3.3441
     3.4309   3.6117   3.6663   3.7782   3.8191   3.8748   3.9488   3.9665
     4.0228   4.0721   4.1602   4.2767   4.5621   4.5955   4.7655   4.7743
     8.4295   8.9710   9.3554   9.5000   9.8142   9.8424  10.1631  10.2629
    10.3584  10.5739  10.6000  10.7510  10.9182

          k = 0.2000 0.1924 0.2048 ( 25032 PWs)   bands (ev):

    -9.1781  -8.9321  -8.1877  -8.1368  -7.9760  -7.7945  -7.6988  -7.5981
    -7.5271  -7.4282  -7.2195  -7.1861  -7.1307  -7.1070  -7.0726  -7.0357
    -0.6588  -0.5564  -0.4267  -0.0861   0.0075   0.0534   0.2131   0.3582
     0.5218   0.6585   0.8332   0.9102   1.0544   1.1345   1.4210   1.5529
     1.7128   1.7638   1.8681   1.9528   2.4586   2.5373   2.6302   2.6741
     2.7835   2.8269   2.8918   2.9298   3.0517   3.2916   3.3495   3.4120
     3.5707   3.5986   3.6560   3.7300   3.7709   3.8473   3.8997   3.9414
     4.0116   4.0658   4.1290   4.1957   4.4772   4.5247   4.6197   4.7068
     8.6531   9.0159   9.2487   9.4233   9.6504   9.8997  10.0146  10.1142
    10.2706  10.3352  10.5151  10.7922  10.9894

          k = 0.2000 0.1924 0.4096 ( 25036 PWs)   bands (ev):

    -8.9236  -8.6887  -8.0872  -7.9969  -7.9551  -7.8946  -7.8062  -7.6549
    -7.4900  -7.4150  -7.4081  -7.3579  -7.3008  -7.2381  -7.1810  -7.1272
    -0.7117  -0.5871  -0.4835  -0.2162   0.0496   0.1305   0.1670   0.3250
     0.4091   0.4687   0.5570   0.6606   0.7505   0.8447   1.5402   2.0824
     2.2666   2.3418   2.4110   2.4374   2.4804   2.5838   2.6822   2.8958
     2.9576   3.0004   3.0690   3.1546   3.2042   3.2602   3.3420   3.3953
     3.5064   3.6041   3.6594   3.7320   3.8206   3.8547   3.9018   3.9647
     3.9974   4.0803   4.0946   4.1044   4.2203   4.2932   4.3506   4.5417
     8.8776   9.0113   9.0797   9.2900   9.6150   9.8704   9.9812  10.1115
    10.1943  10.2437  10.3827  10.6850  10.8230

          k = 0.2000 0.1924-0.6143 ( 25020 PWs)   bands (ev):

    -8.5674  -8.5036  -8.3498  -8.2854  -7.7623  -7.7119  -7.7074  -7.6626
    -7.5906  -7.5317  -7.4629  -7.4142  -7.3671  -7.3203  -7.2438  -7.1952
    -0.7609  -0.5654  -0.4873  -0.3533   0.0118   0.0553   0.0980   0.1832
     0.2854   0.3951   0.4799   0.5601   1.3168   1.4784   1.5115   1.6838
     1.8527   2.0166   2.5217   2.6810   2.7982   2.9382   2.9847   3.0044
     3.0891   3.1410   3.2674   3.3556   3.4046   3.4630   3.5142   3.5379
     3.5753   3.6400   3.6670   3.7012   3.7271   3.7671   3.7963   3.8493
     3.8678   3.9374   3.9666   4.0094   4.0379   4.1580   4.2767   4.3935
     8.9867   9.0609   9.1416   9.2502   9.6481   9.7398   9.9630  10.0836
    10.1882  10.2530  10.4539  10.5280  10.6459

          k = 0.4000 0.0000 0.0000 ( 25058 PWs)   bands (ev):

    -9.0931  -8.7060  -8.4738  -8.4642  -8.1641  -8.1556  -7.5024  -7.4486
    -7.2934  -7.2493  -7.2116  -7.1574  -7.1387  -7.0734  -7.0291  -7.0224
    -0.6067  -0.2994  -0.1740   0.0561   0.2442   0.4556   0.5444   0.5889
     0.7243   0.8333   0.9408   1.0858   1.1727   1.2928   1.3918   1.4859
     1.5958   1.6660   1.7496   1.7768   1.8955   2.0398   2.1047   2.3911
     2.6172   2.6987   2.7485   2.8014   2.8656   3.0022   3.0884   3.1150
     3.1754   3.2289   3.3875   3.7781   3.8384   3.8704   3.9791   4.0459
     4.0634   4.0990   4.1767   4.2226   4.2557   4.3730   4.6101   4.6512
     8.9293   9.5109   9.5655   9.7546   9.8699   9.9947  10.1292  10.3869
    10.5025  10.7011  10.8599  11.0413  11.1956

          k = 0.4000 0.0000 0.2048 ( 25023 PWs)   bands (ev):

    -9.0074  -8.6275  -8.4008  -8.3908  -8.1000  -8.0912  -7.5951  -7.4770
    -7.3715  -7.2895  -7.2760  -7.2411  -7.1980  -7.1237  -7.1115  -7.0683
    -0.4752  -0.3596  -0.2237   0.0565   0.2110   0.3809   0.4295   0.5233
     0.6738   0.7528   0.8758   0.9929   1.0888   1.3901   1.4711   1.5565
     1.6379   1.7377   1.8629   1.8998   1.9706   2.1382   2.4283   2.5168
     2.7390   2.7782   2.8306   2.8930   2.9643   3.0265   3.0325   3.0572
     3.1468   3.3081   3.4041   3.7653   3.8000   3.8548   3.9288   3.9574
     4.0344   4.0897   4.1574   4.2409   4.2800   4.3906   4.5276   4.5574
     9.0390   9.4263   9.5726   9.7519   9.8962  10.0284  10.1482  10.3444
    10.4183  10.6408  10.7574  11.0180  11.1207

          k = 0.4000 0.0000 0.4096 ( 25035 PWs)   bands (ev):

    -8.7610  -8.4034  -8.1939  -8.1827  -7.9572  -7.9189  -7.9105  -7.6901
    -7.5444  -7.5367  -7.3772  -7.3706  -7.3559  -7.2174  -7.1832  -7.1242
    -0.5459  -0.3652  -0.2375  -0.0167   0.3065   0.3715   0.4538   0.5047
     0.5954   0.6523   0.6908   0.7859   1.0388   1.1417   1.2383   1.5363
     1.7159   1.9919   2.3268   2.3427   2.4074   2.5077   2.5598   2.6046
     2.6896   2.9192   2.9620   3.0351   3.1006   3.1659   3.3052   3.3216
     3.5124   3.5233   3.6026   3.6420   3.6898   3.7391   3.7968   3.8924
     3.9163   4.0256   4.0697   4.1148   4.1558   4.1904   4.2335   4.3545
     9.1324   9.3611   9.5587   9.6323   9.9082  10.1266  10.2326  10.3671
    10.5186  10.6594  10.7885  10.8689  10.9550

          k = 0.4000 0.0000-0.6143 ( 25040 PWs)   bands (ev):

    -8.4178  -8.3563  -8.0987  -8.0363  -7.9132  -7.9038  -7.8614  -7.8455
    -7.6828  -7.6695  -7.6225  -7.6096  -7.2870  -7.2447  -7.1981  -7.1520
    -0.6272  -0.2889  -0.2722  -0.1035   0.2263   0.2753   0.3907   0.4520
     0.6939   0.7229   0.8048   0.9186   0.9951   1.1638   1.3788   1.4498
     1.5491   1.5934   1.9761   2.1489   2.8871   2.9107   2.9866   3.0575
     3.1039   3.1215   3.1503   3.2181   3.2415   3.3274   3.4068   3.4354
     3.5599   3.5971   3.6103   3.6657   3.6700   3.6861   3.7206   3.7533
     3.7596   3.8179   3.8492   3.9320   3.9650   4.0152   4.0666   4.1973
     9.3475   9.3920   9.4796   9.5719   9.8859  10.0536  10.3244  10.4676
    10.5242  10.5662  10.6446  10.8280  10.8723

          k = 0.4000 0.1924 0.0000 ( 25042 PWs)   bands (ev):

    -9.0259  -8.7888  -8.6468  -8.4361  -8.0762  -7.8255  -7.6951  -7.5083
    -7.4066  -7.2808  -7.2407  -7.1447  -7.0717  -7.0515  -7.0023  -6.9834
    -0.5553  -0.3544  -0.1577   0.1292   0.2376   0.3512   0.4877   0.6363
     0.7217   0.8806   0.9739   1.0605   1.1066   1.3135   1.3868   1.5071
     1.5534   1.6747   1.8072   1.9029   1.9622   2.0334   2.1678   2.2389
     2.4234   2.5236   2.5972   2.8891   3.0179   3.1472   3.1949   3.2621
     3.3035   3.3487   3.4343   3.4814   3.5384   3.6225   3.6809   3.8109
     4.1084   4.2945   4.3817   4.4009   4.4485   4.4879   4.6060   4.6655
     8.9957   9.3664   9.5228   9.6742   9.9126  10.0169  10.1531  10.2728
    10.4385  10.6472  10.7298  11.0737  11.2375

          k = 0.4000 0.1924 0.2048 ( 25043 PWs)   bands (ev):

    -8.9415  -8.7082  -8.5698  -8.3635  -8.0153  -7.7747  -7.6532  -7.5652
    -7.4581  -7.4068  -7.3538  -7.2407  -7.1361  -7.0953  -7.0569  -7.0320
    -0.4527  -0.3507  -0.2146   0.1526   0.1866   0.3194   0.4057   0.5072
     0.5653   0.7229   0.8082   0.9417   1.2281   1.3906   1.5293   1.6508
     1.7667   1.8777   1.9085   2.0038   2.1062   2.2067   2.2652   2.3698
     2.4229   2.5075   2.5577   2.7375   2.9697   3.0750   3.2043   3.2632
     3.3152   3.4182   3.4802   3.5359   3.6286   3.7089   3.7772   3.9794
     4.1299   4.2488   4.3000   4.3300   4.3764   4.4536   4.4895   4.5870
     9.0202   9.3833   9.4450   9.6536   9.9309  10.0707  10.2146  10.2728
    10.4760  10.6462  10.8172  10.9508  11.0650

          k = 0.4000 0.1924 0.4096 ( 25050 PWs)   bands (ev):

    -8.6991  -8.4776  -8.3502  -8.1575  -7.9140  -7.8440  -7.7396  -7.6581
    -7.6265  -7.5302  -7.5045  -7.3813  -7.3195  -7.2061  -7.1963  -7.1256
    -0.5132  -0.3832  -0.2217  -0.0029   0.2867   0.3589   0.4014   0.4741
     0.5411   0.6105   0.6992   0.7363   1.0558   1.3301   1.4263   1.7210
     1.8889   2.0678   2.1411   2.2452   2.2688   2.4335   2.4747   2.5537
     2.6846   2.7027   2.8424   2.9474   3.0548   3.1505   3.2184   3.3119
     3.4026   3.4774   3.5907   3.8200   3.8497   3.9058   3.9544   3.9965
     4.0130   4.0272   4.0771   4.1028   4.1486   4.1531   4.2460   4.3881
     9.1295   9.3724   9.4572   9.5539   9.8779  10.0293  10.2912  10.4347
    10.5075  10.6500  10.7041  10.8592  10.9895

          k = 0.4000 0.1924-0.6143 ( 25068 PWs)   bands (ev):

    -8.3626  -8.3023  -8.1599  -8.1001  -8.0523  -7.9908  -7.8817  -7.8209
    -7.6205  -7.5699  -7.4604  -7.4107  -7.3718  -7.3263  -7.2612  -7.2115
    -0.5893  -0.3446  -0.2690  -0.0779   0.2404   0.2640   0.3112   0.4799
     0.5852   0.6885   0.7694   0.9875   1.1236   1.2438   1.3806   1.4915
     1.6830   1.8443   2.1133   2.2686   2.3456   2.4946   2.5294   2.6930
     3.1094   3.1489   3.2122   3.2763   3.3298   3.3931   3.4298   3.5211
     3.5761   3.6117   3.6859   3.6995   3.7224   3.7853   3.8127   3.8314
     3.8564   3.8761   3.9155   3.9261   3.9757   4.0195   4.0778   4.2087
     9.3091   9.3681   9.4766   9.5476   9.8431  10.0851  10.1948  10.3801
    10.4938  10.6149  10.7252  10.7885  10.8738

          k = 0.0000-0.1924 0.2048 ( 25017 PWs)   bands (ev):

    -9.2604  -9.0105  -8.2489  -7.8485  -7.7657  -7.7548  -7.7003  -7.6678
    -7.6048  -7.5712  -7.2102  -7.1798  -7.1125  -7.0975  -7.0700  -7.0067
    -0.7521  -0.6486  -0.5599  -0.2290  -0.0732   0.0048   0.1026   0.2059
     0.4415   0.5927   0.6911   0.8050   0.8694   1.0984   1.6509   1.6972
     1.8207   1.9176   1.9421   1.9721   2.2862   2.3684   2.6946   2.7426
     2.8312   2.9858   3.1421   3.1795   3.2890   3.3236   3.4710   3.4857
     3.6229   3.6645   3.6930   3.7570   3.7904   3.8838   3.9285   3.9823
     4.0678   4.1081   4.1726   4.2965   4.5169   4.6366   4.6741   4.7812
     8.4130   8.8033   9.0065   9.1417   9.6046   9.7751   9.8484  10.0625
    10.1881  10.2087  10.3474  10.5777  10.8785

          k = 0.0000-0.1924 0.4096 ( 25053 PWs)   bands (ev):

    -9.0022  -8.7630  -8.1494  -8.0518  -7.9513  -7.7032  -7.6370  -7.5772
    -7.5496  -7.4857  -7.4330  -7.2979  -7.2615  -7.2130  -7.1933  -7.1284
    -0.7986  -0.6987  -0.6465  -0.3057  -0.0854  -0.0021   0.0536   0.2475
     0.2853   0.3898   0.4198   0.5536   0.6031   0.8154   2.0097   2.0940
     2.3377   2.3744   2.4697   2.5750   2.6120   2.7902   2.8310   2.8677
     3.0182   3.0749   3.1335   3.1562   3.1952   3.2780   3.3668   3.4700
     3.4871   3.8021   3.8265   3.8619   3.9083   3.9471   3.9582   3.9843
     3.9954   4.0231   4.0617   4.1579   4.2175   4.4596   4.4694   4.6275
     8.6711   8.7378   8.9211   9.0556   9.5721   9.6231   9.7914   9.9434
    10.0555  10.1161  10.1947  10.5168  10.6671

          k =-0.2000 0.0000 0.2048 ( 25015 PWs)   bands (ev):

    -9.2484  -8.6022  -8.5928  -8.1782  -7.8023  -7.7911  -7.7375  -7.6052
    -7.3801  -7.3549  -7.3348  -7.2190  -7.1303  -7.1061  -7.0852  -7.0392
    -0.6858  -0.5857  -0.5068  -0.2122   0.1141   0.2137   0.2505   0.4788
     0.5289   0.6606   0.6964   0.7749   1.0883   1.1739   1.6183   1.7350
     1.7820   1.8355   1.9201   2.0044   2.1582   2.2146   2.4869   2.5424
     2.6911   2.7448   2.8969   2.9122   3.1860   3.2573   3.3381   3.4173
     3.5393   3.6172   3.6818   3.7761   3.8217   3.8769   4.0227   4.0509
     4.0983   4.1259   4.1948   4.2422   4.3607   4.3939   4.6838   4.7423
     8.4648   9.0110   9.2288   9.3428   9.7139   9.8839   9.9840  10.1387
    10.2223  10.2841  10.5216  10.7621  10.8829

          k =-0.2000 0.0000 0.4096 ( 25044 PWs)   bands (ev):

    -8.9904  -8.3804  -8.3698  -8.1351  -7.9907  -7.6957  -7.6793  -7.6385
    -7.6266  -7.4855  -7.4184  -7.3263  -7.2477  -7.2274  -7.1850  -7.1240
    -0.7535  -0.6523  -0.5613  -0.1755   0.0640   0.1152   0.1747   0.3461
     0.4662   0.5174   0.5943   0.6657   0.8688   1.1707   1.4256   1.5790
     2.0738   2.3911   2.4062   2.5143   2.5910   2.6133   2.6798   2.7060
     2.8628   3.0659   3.1204   3.1444   3.2288   3.3498   3.3642   3.4109
     3.4593   3.6426   3.7164   3.7897   3.8477   3.8945   3.9201   3.9419
     3.9653   4.0073   4.0994   4.1547   4.1820   4.2082   4.4757   4.5912
     8.7772   8.8708   9.0936   9.1880   9.6726   9.8085   9.9251  10.0439
    10.2195  10.2866  10.5649  10.7559  10.8190

          k =-0.2000 0.1924 0.0000 ( 25023 PWs)   bands (ev):

    -9.2664  -9.0169  -8.2537  -8.2024  -8.0357  -7.8438  -7.6391  -7.5418
    -7.4578  -7.3821  -7.1583  -7.1109  -7.0800  -7.0554  -7.0179  -6.9818
    -0.7947  -0.5538  -0.3756  -0.1535   0.0639   0.2309   0.3953   0.4759
     0.7817   0.8609   0.9091   0.9842   1.0168   1.1885   1.2624   1.4375
     1.5025   1.5785   1.6442   1.7695   2.0935   2.2838   2.5591   2.6201
     2.7604   2.8300   2.9321   2.9811   3.0062   3.0648   3.1681   3.3624
     3.4423   3.6034   3.6977   3.7910   3.8189   3.8533   3.9483   3.9590
     4.0313   4.0658   4.1661   4.2720   4.5636   4.5995   4.7618   4.7710
     8.4322   8.9715   9.2950   9.5261   9.8058   9.9708  10.1306  10.2655
    10.3618  10.4942  10.6245  10.7562  10.8599

          k =-0.2000-0.1924 0.2048 ( 25032 PWs)   bands (ev):

    -9.1781  -8.9321  -8.1877  -8.1369  -7.9761  -7.7941  -7.6995  -7.5979
    -7.5263  -7.4282  -7.2199  -7.1880  -7.1302  -7.1070  -7.0709  -7.0364
    -0.6547  -0.5572  -0.4417  -0.0746   0.0048   0.0889   0.1993   0.3480
     0.5126   0.6940   0.8076   0.8690   1.0628   1.1293   1.4287   1.6278
     1.6768   1.7497   1.8747   1.9399   2.4503   2.5178   2.6596   2.6932
     2.7500   2.8295   2.8939   2.9480   3.0461   3.3092   3.3459   3.4084
     3.5575   3.6071   3.6515   3.7256   3.7854   3.8380   3.9019   3.9495
     4.0067   4.0795   4.1054   4.1942   4.4753   4.5200   4.6194   4.7158
     8.6675   8.9522   9.3076   9.3852   9.7168   9.9248   9.9885  10.1466
    10.2147  10.3400  10.4706  10.7833  10.9961

          k =-0.2000 0.1924-0.2048 ( 25032 PWs)   bands (ev):

    -9.1781  -8.9322  -8.1869  -8.1378  -7.9756  -7.7940  -7.6995  -7.6024
    -7.5212  -7.4299  -7.2207  -7.1841  -7.1344  -7.1052  -7.0705  -7.0370
    -0.6661  -0.5098  -0.4680  -0.1535   0.0698   0.1053   0.2259   0.2868
     0.5556   0.7011   0.7519   0.9036   1.0690   1.1282   1.4179   1.6257
     1.6519   1.7882   1.8488   1.9537   2.4697   2.5113   2.6490   2.7037
     2.7496   2.8280   2.8741   2.9484   3.0430   3.2947   3.3458   3.4163
     3.5725   3.6055   3.6455   3.7323   3.8058   3.8393   3.9023   3.9342
     4.0105   4.0628   4.1174   4.1947   4.4790   4.5206   4.6191   4.7089
     8.6668   8.9665   9.1954   9.4693   9.7668   9.8790  10.0124  10.1440
    10.2855  10.3421  10.4448  10.7357  10.9783

          k = 0.2000-0.1924-0.2048 ( 25032 PWs)   bands (ev):

    -9.1781  -8.9322  -8.1869  -8.1378  -7.9757  -7.7943  -7.6988  -7.6025
    -7.5209  -7.4298  -7.2206  -7.1855  -7.1346  -7.1046  -7.0701  -7.0370
    -0.6592  -0.5141  -0.4786  -0.1382   0.0580   0.1142   0.2220   0.2804
     0.5681   0.6656   0.7867   0.9126   1.0349   1.1643   1.4057   1.5585
     1.7229   1.7895   1.8622   1.9287   2.4748   2.5324   2.6522   2.6752
     2.7377   2.8319   2.9000   2.9267   3.0461   3.2823   3.3397   3.4281
     3.5667   3.6050   3.6616   3.7341   3.8177   3.8300   3.8891   3.9410
     4.0005   4.0701   4.1297   4.1839   4.4771   4.5261   4.6253   4.7009
     8.6585   9.0233   9.2609   9.3455   9.7794   9.8609   9.9704  10.1387
    10.2636  10.3541  10.4584  10.8212  10.9987

          k =-0.2000-0.1924 0.4096 ( 25036 PWs)   bands (ev):

    -8.9236  -8.6887  -8.0877  -7.9966  -7.9560  -7.8937  -7.8056  -7.6546
    -7.4885  -7.4171  -7.4075  -7.3600  -7.3000  -7.2387  -7.1785  -7.1283
    -0.7128  -0.5938  -0.4801  -0.1944   0.0353   0.1273   0.1738   0.3247
     0.4074   0.4661   0.5656   0.6447   0.7480   0.8422   1.5421   2.1715
     2.1974   2.3521   2.3996   2.4197   2.4864   2.5475   2.6998   2.8881
     2.9628   3.0390   3.0782   3.1437   3.1933   3.2492   3.3469   3.4050
     3.5040   3.6187   3.6802   3.7150   3.8066   3.8610   3.9013   3.9705
     3.9859   4.0574   4.0930   4.1143   4.2122   4.2966   4.3487   4.5547
     8.7831   8.9660   9.2336   9.2771   9.7721   9.8505   9.8976  10.0806
    10.1593  10.2586  10.4266  10.6336  10.8312

          k =-0.2000 0.1924-0.4096 ( 25036 PWs)   bands (ev):

    -8.9236  -8.6887  -8.0873  -7.9962  -7.9555  -7.8941  -7.8066  -7.6557
    -7.4893  -7.4167  -7.4078  -7.3558  -7.3013  -7.2397  -7.1788  -7.1283
    -0.7049  -0.5874  -0.5051  -0.1932   0.0439   0.0994   0.2286   0.3370
     0.3811   0.4682   0.5367   0.6382   0.7785   0.8361   1.5416   2.1374
     2.2489   2.3304   2.3654   2.4331   2.4819   2.5656   2.7339   2.9022
     2.9524   3.0221   3.0724   3.1097   3.1922   3.2541   3.3533   3.4281
     3.4979   3.6049   3.6813   3.7282   3.8057   3.8465   3.9098   3.9801
     3.9995   4.0553   4.0774   4.1209   4.2087   4.3021   4.3485   4.5477
     8.7635   8.9912   9.1868   9.3372   9.7205   9.8286   9.9406  10.1020
    10.1709  10.2547  10.3719  10.6559  10.7969

          k = 0.2000-0.1924-0.4096 ( 25036 PWs)   bands (ev):

    -8.9236  -8.6887  -8.0873  -7.9966  -7.9567  -7.8928  -7.8063  -7.6551
    -7.4894  -7.4169  -7.4044  -7.3625  -7.2977  -7.2402  -7.1790  -7.1280
    -0.7014  -0.5933  -0.5066  -0.1776   0.0241   0.1068   0.2204   0.3314
     0.3933   0.4727   0.5293   0.6457   0.7519   0.8666   1.5443   2.0904
     2.2750   2.3295   2.3907   2.4249   2.4826   2.5780   2.7207   2.8855
     2.9653   3.0090   3.0707   3.1183   3.1763   3.2761   3.3457   3.4228
     3.5053   3.6252   3.6812   3.7126   3.8066   3.8461   3.9092   3.9719
     4.0031   4.0579   4.0914   4.1093   4.2121   4.2968   4.3613   4.5361
     8.8766   8.9961   9.1281   9.2329   9.7442   9.8533   9.9410  10.0793
    10.1356  10.2188  10.4157  10.6943  10.7769

          k =-0.2000 0.1924 0.6143 ( 25020 PWs)   bands (ev):

    -8.5674  -8.5036  -8.3500  -8.2855  -7.7558  -7.7194  -7.7078  -7.6599
    -7.5900  -7.5373  -7.4631  -7.4104  -7.3654  -7.3204  -7.2446  -7.1957
    -0.7420  -0.6120  -0.4888  -0.3111   0.0077   0.0403   0.1216   0.1752
     0.2542   0.4320   0.4579   0.5679   1.3240   1.4832   1.5001   1.6764
     1.8594   2.0120   2.5228   2.6943   2.7891   2.9199   2.9771   3.0216
     3.1087   3.1407   3.2386   3.3390   3.4407   3.4720   3.5173   3.5331
     3.5731   3.6359   3.6641   3.6878   3.7485   3.7670   3.7763   3.8592
     3.8845   3.9407   3.9502   4.0067   4.0417   4.1642   4.2735   4.3870
     8.9715   9.0696   9.1600   9.2429   9.6510   9.7538   9.9541  10.0432
    10.1334  10.3598  10.4040  10.5118  10.7058

          k =-0.4000 0.0000 0.2048 ( 25023 PWs)   bands (ev):

    -9.0074  -8.6276  -8.4007  -8.3908  -8.1001  -8.0912  -7.5949  -7.4765
    -7.3725  -7.2883  -7.2750  -7.2421  -7.2000  -7.1231  -7.1108  -7.0684
    -0.4705  -0.3651  -0.2341   0.0814   0.2236   0.3524   0.4209   0.5286
     0.6707   0.7752   0.8711   0.9909   1.0724   1.3738   1.4859   1.5572
     1.6631   1.7295   1.8680   1.8963   1.9622   2.1366   2.4303   2.5287
     2.7183   2.7724   2.8655   2.9033   2.9214   2.9998   3.0381   3.0865
     3.1437   3.3171   3.4057   3.7569   3.8232   3.8473   3.9125   3.9534
     4.0516   4.0816   4.1631   4.2373   4.2800   4.3833   4.5328   4.5580
     9.0497   9.4132   9.5634   9.7568   9.9038  10.0642  10.1272  10.2974
    10.4453  10.6608  10.7425  11.0228  11.1576

          k =-0.4000 0.0000 0.4096 ( 25035 PWs)   bands (ev):

    -8.7610  -8.4035  -8.1937  -8.1827  -7.9611  -7.9153  -7.9098  -7.6902
    -7.5439  -7.5371  -7.3783  -7.3756  -7.3499  -7.2179  -7.1831  -7.1240
    -0.5478  -0.3701  -0.2277  -0.0080   0.2939   0.3532   0.4547   0.5227
     0.6054   0.6465   0.6984   0.7710   1.0407   1.1365   1.2381   1.5494
     1.7148   1.9907   2.3049   2.3484   2.4332   2.4977   2.5680   2.5879
     2.6875   2.8936   2.9801   3.0533   3.1121   3.1672   3.2610   3.3444
     3.5146   3.5482   3.6109   3.6185   3.6881   3.7302   3.8073   3.8825
     3.9269   4.0163   4.0679   4.1240   4.1471   4.1797   4.2459   4.3559
     9.1910   9.2542   9.5381   9.7344  10.0057  10.0527  10.1588  10.3736
    10.4973  10.6584  10.7882  10.8689  10.9551

          k =-0.4000 0.1924 0.0000 ( 25042 PWs)   bands (ev):

    -9.0259  -8.7890  -8.6467  -8.4361  -8.0761  -7.8262  -7.6955  -7.5046
    -7.4108  -7.2791  -7.2407  -7.1452  -7.0753  -7.0451  -7.0070  -6.9815
    -0.5629  -0.3119  -0.1902   0.0656   0.2957   0.3730   0.4674   0.6267
     0.7978   0.8445   0.9409   1.0540   1.1067   1.3082   1.4218   1.4954
     1.5618   1.6501   1.8099   1.9138   1.9723   2.0294   2.1639   2.2162
     2.4538   2.5061   2.5959   2.8775   3.0464   3.1545   3.1800   3.2336
     3.3168   3.3686   3.4397   3.4468   3.5339   3.6503   3.6907   3.7977
     4.1148   4.2928   4.3695   4.3905   4.4646   4.4976   4.6024   4.6604
     8.9995   9.3453   9.5223   9.7096   9.8767  10.0158  10.1714  10.2817
    10.5241  10.6024  10.7078  11.0190  11.1857

          k =-0.4000-0.1924 0.2048 ( 25043 PWs)   bands (ev):

    -8.9415  -8.7082  -8.5698  -8.3635  -8.0153  -7.7749  -7.6526  -7.5657
    -7.4573  -7.4062  -7.3554  -7.2408  -7.1355  -7.0956  -7.0573  -7.0315
    -0.4494  -0.3497  -0.2335   0.1786   0.1949   0.3304   0.4205   0.4634
     0.5647   0.7459   0.8197   0.9066   1.1998   1.3439   1.5779   1.7027
     1.7980   1.8426   1.9028   1.9757   2.0831   2.2277   2.2777   2.3752
     2.4267   2.4896   2.5831   2.7467   2.9490   3.0786   3.1913   3.2741
     3.3105   3.4045   3.4831   3.5483   3.6235   3.7135   3.7744   3.9818
     4.1421   4.2243   4.3158   4.3489   4.3602   4.4397   4.4855   4.5975
     9.0438   9.2618   9.5146   9.6838   9.9045  10.0772  10.2552  10.3414
    10.4680  10.5901  10.7380  10.9852  11.1387

          k =-0.4000 0.1924-0.2048 ( 25043 PWs)   bands (ev):

    -8.9415  -8.7084  -8.5696  -8.3634  -8.0151  -7.7759  -7.6534  -7.5621
    -7.4616  -7.4052  -7.3540  -7.2405  -7.1380  -7.0921  -7.0590  -7.0315
    -0.4615  -0.3096  -0.2523   0.0923   0.2633   0.3459   0.3753   0.5100
     0.5992   0.7057   0.8126   0.8974   1.2112   1.3724   1.5999   1.6608
     1.7765   1.8314   1.9132   1.9880   2.1056   2.1822   2.2908   2.3690
     2.4477   2.4999   2.5725   2.7361   2.9507   3.0889   3.1837   3.2843
     3.3478   3.3767   3.4548   3.5385   3.6286   3.7291   3.7795   3.9770
     4.1535   4.2295   4.2934   4.3488   4.3703   4.4455   4.4850   4.5904
     9.0262   9.3062   9.4752   9.6625   9.9393  10.0501  10.2732  10.3753
    10.5366  10.6057  10.7339  10.8493  11.0802

          k = 0.4000-0.1924-0.2048 ( 25043 PWs)   bands (ev):

    -8.9414  -8.7085  -8.5696  -8.3634  -8.0150  -7.7762  -7.6537  -7.5616
    -7.4611  -7.4052  -7.3535  -7.2420  -7.1378  -7.0918  -7.0589  -7.0314
    -0.4551  -0.3189  -0.2540   0.1044   0.2550   0.3423   0.3771   0.4983
     0.6340   0.7002   0.7743   0.9005   1.2617   1.3830   1.5455   1.6580
     1.7466   1.8944   1.9251   1.9760   2.1244   2.1886   2.2465   2.3828
     2.4379   2.4914   2.5602   2.7306   2.9698   3.0775   3.2041   3.2884
     3.3335   3.3954   3.4419   3.5403   3.6422   3.7205   3.7777   3.9777
     4.1376   4.2406   4.2924   4.3422   4.3624   4.4623   4.4911   4.5832
     9.0232   9.3556   9.5389   9.5943   9.9010  10.0804  10.1447  10.3834
    10.4959  10.6311  10.7752  10.9296  11.0407

          k =-0.4000-0.1924 0.4096 ( 25050 PWs)   bands (ev):

    -8.6990  -8.4775  -8.3503  -8.1576  -7.9145  -7.8431  -7.7389  -7.6589
    -7.6260  -7.5312  -7.5037  -7.3809  -7.3205  -7.2061  -7.1966  -7.1250
    -0.5184  -0.3823  -0.2191   0.0095   0.2721   0.3700   0.4162   0.4806
     0.5385   0.6185   0.6747   0.7189   1.0312   1.3553   1.4343   1.7206
     1.8712   2.0605   2.1657   2.2348   2.3115   2.4218   2.4595   2.5750
     2.6658   2.7248   2.8256   2.9113   3.0698   3.1476   3.2011   3.3355
     3.4035   3.4924   3.5959   3.8199   3.8528   3.9169   3.9456   3.9751
     3.9873   4.0411   4.0718   4.1121   4.1490   4.1564   4.2347   4.4041
     9.0674   9.2645   9.5722   9.6678   9.9295  10.0040  10.2525  10.4202
    10.5138  10.5991  10.7784  10.8850  10.9784

          k =-0.4000 0.1924-0.4096 ( 25050 PWs)   bands (ev):

    -8.6990  -8.4779  -8.3499  -8.1572  -7.9143  -7.8426  -7.7426  -7.6606
    -7.6227  -7.5272  -7.5055  -7.3833  -7.3199  -7.2058  -7.1958  -7.1257
    -0.5150  -0.3790  -0.2326   0.0054   0.2875   0.3477   0.4548   0.4865
     0.5460   0.6125   0.6346   0.7170   1.0539   1.3640   1.4314   1.6970
     1.8713   2.0579   2.1558   2.2408   2.3414   2.3965   2.4630   2.6097
     2.6699   2.7184   2.8050   2.8975   3.0762   3.1301   3.2006   3.3510
     3.4208   3.4821   3.5975   3.8083   3.8709   3.8905   3.9593   3.9613
     4.0079   4.0390   4.0716   4.1200   4.1448   4.1530   4.2402   4.3966
     9.0343   9.3609   9.5305   9.6118   9.9033  10.0614  10.2491  10.4365
    10.5602  10.6138  10.7114  10.7629  10.9786

          k = 0.4000-0.1924-0.4096 ( 25050 PWs)   bands (ev):

    -8.6989  -8.4780  -8.3501  -8.1573  -7.9140  -7.8425  -7.7421  -7.6602
    -7.6230  -7.5302  -7.5047  -7.3797  -7.3220  -7.2055  -7.1959  -7.1258
    -0.5107  -0.3860  -0.2306   0.0100   0.2818   0.3326   0.4584   0.4892
     0.5445   0.6145   0.6450   0.7113   1.0842   1.3247   1.4380   1.7232
     1.8772   2.0744   2.1458   2.2280   2.2853   2.3786   2.4821   2.6277
     2.6628   2.7121   2.8162   2.9334   3.0762   3.1225   3.2218   3.3262
     3.4307   3.4656   3.5891   3.8066   3.8603   3.9093   3.9543   3.9895
     4.0061   4.0313   4.0797   4.0985   4.1372   4.1673   4.2500   4.3836
     9.1392   9.3315   9.4842   9.5876   9.8899   9.9812  10.2720  10.4345
    10.5709  10.6263  10.6799  10.8651  10.9315

          k =-0.4000 0.1924 0.6143 ( 25068 PWs)   bands (ev):

    -8.3624  -8.3023  -8.1614  -8.1000  -8.0505  -7.9917  -7.8818  -7.8190
    -7.6219  -7.5725  -7.4601  -7.4091  -7.3703  -7.3258  -7.2620  -7.2120
    -0.5837  -0.3637  -0.2707  -0.0525   0.2351   0.2576   0.3258   0.4685
     0.5540   0.7004   0.7984   0.9749   1.1316   1.2523   1.3694   1.4762
     1.6963   1.8423   2.1116   2.2772   2.3330   2.4839   2.5431   2.6961
     3.0974   3.1536   3.2154   3.2807   3.3343   3.3965   3.4176   3.5346
     3.5583   3.6268   3.6609   3.7054   3.7381   3.7901   3.8057   3.8199
     3.8667   3.8849   3.9019   3.9364   3.9744   4.0265   4.0714   4.2029
     9.2927   9.3982   9.4532   9.5721   9.8811   9.9831  10.1947  10.4217
    10.5090  10.5940  10.7006  10.7796  10.8634

     the Fermi energy is     6.2086 ev

!    total energy              =    -416.23657373 Ry
     estimated scf accuracy    <          8.3E-11 Ry
     smearing contrib. (-TS)   =      -0.00000000 Ry
     internal energy E=F+TS    =    -416.23657373 Ry

     The total energy is F=E-TS. E is the sum of the following terms:
     one-electron contribution =     -39.59371887 Ry
     hartree contribution      =      90.55056663 Ry
     xc contribution           =    -132.34007080 Ry
     ewald contribution        =    -334.85335069 Ry

     convergence has been achieved in  22 iterations

     Writing output data file ./wfc-out/pwscf.save/
 
     init_run     :     12.45s CPU     12.63s WALL (       1 calls)
     electrons    :    644.81s CPU    649.98s WALL (       1 calls)

     Called by init_run:
     wfcinit      :     11.70s CPU     11.80s WALL (       1 calls)
     potinit      :      0.17s CPU      0.17s WALL (       1 calls)
     hinit0       :      0.41s CPU      0.46s WALL (       1 calls)

     Called by electrons:
     c_bands      :    586.90s CPU    591.07s WALL (      22 calls)
     sum_band     :     56.07s CPU     56.68s WALL (      22 calls)
     v_of_rho     :      0.10s CPU      0.13s WALL (      23 calls)
     newd         :      1.46s CPU      1.49s WALL (      23 calls)
     mix_rho      :      0.17s CPU      0.18s WALL (      22 calls)

     Called by c_bands:
     init_us_2    :      6.12s CPU      6.18s WALL (    2070 calls)
     cegterg      :    572.87s CPU    576.27s WALL (    1012 calls)

     Called by *egterg:
     cdiaghg      :     52.13s CPU     52.25s WALL (    5640 calls)
     h_psi        :    305.62s CPU    308.47s WALL (    5686 calls)
     s_psi        :     61.73s CPU     61.87s WALL (    5686 calls)
     g_psi        :      0.62s CPU      0.62s WALL (    4628 calls)

     Called by h_psi:
     h_psi:calbec :     69.60s CPU     69.79s WALL (    5686 calls)
     vloc_psi     :    170.94s CPU    173.44s WALL (    5686 calls)
     add_vuspsi   :     63.19s CPU     63.34s WALL (    5686 calls)

     General routines
     calbec       :     90.14s CPU     90.42s WALL (    6698 calls)
     fft          :      0.37s CPU      0.41s WALL (     136 calls)
     ffts         :      0.04s CPU      0.04s WALL (      45 calls)
     fftw         :    182.39s CPU    185.04s WALL (  553798 calls)
     interpolate  :      0.06s CPU      0.07s WALL (      23 calls)
 
     Parallel routines
     fft_scatt_xy :     11.86s CPU     12.01s WALL (  553979 calls)
     fft_scatt_yz :     80.27s CPU     81.66s WALL (  553979 calls)
 
     PWSCF        :  10m59.38s CPU  11m23.97s WALL

 
   This run was terminated on:  16:41: 6   6Mar2023            

=------------------------------------------------------------------------------=
   JOB DONE.
=------------------------------------------------------------------------------=
