 vasp.5.4.4.18Apr17-6-g9f103f2a35 (build Sep 16 2021 13:51:27) complex          
  
 executed on             LinuxIFC date 2023.03.16  11:28:58
 running on   24 total cores
 distrk:  each k-point on   24 cores,    1 groups
 distr:  one band on NCORES_PER_BAND=  24 cores,    1 groups


--------------------------------------------------------------------------------------------------------


 INCAR:
 POTCAR:    PAW_PBE Sn 08Apr2002                  
 POTCAR:    PAW_PBE Se 06Sep2000                  

 ----------------------------------------------------------------------------- 
|                                                                             |
|           W    W    AA    RRRRR   N    N  II  N    N   GGGG   !!!           |
|           W    W   A  A   R    R  NN   N  II  NN   N  G    G  !!!           |
|           W    W  A    A  R    R  N N  N  II  N N  N  G       !!!           |
|           W WW W  AAAAAA  RRRRR   N  N N  II  N  N N  G  GGG   !            |
|           WW  WW  A    A  R   R   N   NN  II  N   NN  G    G                |
|           W    W  A    A  R    R  N    N  II  N    N   GGGG   !!!           |
|                                                                             |
|      For optimal performance we recommend to set                            |
|        NCORE= 4 - approx SQRT( number of cores)                             |
|      NCORE specifies how many cores store one orbital (NPAR=cpu/NCORE).     |
|      This setting can  greatly improve the performance of VASP for DFT.     |
|      The default,   NCORE=1            might be grossly inefficient         |
|      on modern multi-core architectures or massively parallel machines.     |
|      Do your own testing !!!!                                               |
|      Unfortunately you need to use the default for GW and RPA calculations. |
|      (for HF NCORE is supported but not extensively tested yet)             |
|                                                                             |
 ----------------------------------------------------------------------------- 

 POTCAR:    PAW_PBE Sn 08Apr2002                  
   VRHFIN =Sn: s2p2                                                             
   LEXCH  = PE                                                                  
   EATOM  =    94.0860 eV,    6.9151 Ry                                         
                                                                                
   TITEL  = PAW_PBE Sn 08Apr2002                                                
   LULTRA =        F    use ultrasoft PP ?                                      
   IUNSCR =        1    unscreen: 0-lin 1-nonlin 2-no                           
   RPACOR =    2.000    partial core radius                                     
   POMASS =  118.710; ZVAL   =    4.000    mass and valenz                      
   RCORE  =    3.000    outmost cutoff radius                                   
   RWIGS  =    2.960; RWIGS  =    1.566    wigner-seitz radius (au A)           
   ENMAX  =  103.236; ENMIN  =   77.427 eV                                      
   ICORE  =        3    local potential                                         
   LCOR   =        T    correct aug charges                                     
   LPAW   =        T    paw PP                                                  
   EAUG   =  263.585                                                            
   DEXC   =    0.000                                                            
   RMAX   =    3.078    core radius for proj-oper                               
   RAUG   =    1.300    factor for augmentation sphere                          
   RDEP   =    3.022    radius for radial grids                                 
   RDEPT  =    2.655    core radius for aug-charge                              
                                                                                
   Atomic configuration                                                         
   13 entries                                                                   
     n  l   j            E        occ.                                          
     1  0  0.50    -29007.2859   2.0000                                         
     2  0  0.50     -4378.8056   2.0000                                         
     2  1  1.50     -3930.4293   6.0000                                         
     3  0  0.50      -845.0264   2.0000                                         
     3  1  1.50      -698.5725   6.0000                                         
     3  2  2.50      -473.2839  10.0000                                         
     4  0  0.50      -133.9036   2.0000                                         
     4  1  1.50       -89.6752   6.0000                                         
     4  2  2.50       -25.8375  10.0000                                         
     5  0  0.50       -10.5484   2.0000                                         
     5  1  0.50        -3.6940   2.0000                                         
     5  2  1.50        -1.3606   0.0000                                         
     4  3  2.50        -4.0817   0.0000                                         
   Description                                                                  
     l       E           TYP  RCUT    TYP  RCUT                                 
     0    -10.5483727     23  3.000                                             
     0     27.2116520     23  3.000                                             
     1     -3.6939829     23  3.000                                             
     1      1.9821976     23  3.000                                             
     2     -1.3605826     23  3.000                                             
     3     -2.7211652     23  3.000                                             
  local pseudopotential read in
  partial core-charges read in
  partial kinetic energy density read in
  atomic valenz-charges read in
  non local Contribution for L=           0  read in
    real space projection operators read in
  non local Contribution for L=           0  read in
    real space projection operators read in
  non local Contribution for L=           1  read in
    real space projection operators read in
  non local Contribution for L=           1  read in
    real space projection operators read in
  non local Contribution for L=           2  read in
    real space projection operators read in
    PAW grid and wavefunctions read in
 
   number of l-projection  operators is LMAX  =           5
   number of lm-projection operators is LMMAX =          13
 
 POTCAR:    PAW_PBE Se 06Sep2000                  
   VRHFIN =Se: s2p4                                                             
   LEXCH  = PE                                                                  
   EATOM  =   257.1286 eV,   18.8984 Ry                                         
                                                                                
   TITEL  = PAW_PBE Se 06Sep2000                                                
   LULTRA =        F    use ultrasoft PP ?                                      
   IUNSCR =        1    unscreen: 0-lin 1-nonlin 2-no                           
   RPACOR =    1.900    partial core radius                                     
   POMASS =   78.960; ZVAL   =    6.000    mass and valenz                      
   RCORE  =    2.100    outmost cutoff radius                                   
   RWIGS  =    2.200; RWIGS  =    1.164    wigner-seitz radius (au A)           
   ENMAX  =  211.555; ENMIN  =  158.666 eV                                      
   ICORE  =        3    local potential                                         
   LCOR   =        T    correct aug charges                                     
   LPAW   =        T    paw PP                                                  
   EAUG   =  446.842                                                            
   DEXC   =    0.000                                                            
   RMAX   =    2.147    core radius for proj-oper                               
   RAUG   =    1.300    factor for augmentation sphere                          
   RDEP   =    2.177    radius for radial grids                                 
   RDEPT  =    1.928    core radius for aug-charge                              
                                                                                
   Atomic configuration                                                         
   10 entries                                                                   
     n  l   j            E        occ.                                          
     1  0  0.50    -12503.4787   2.0000                                         
     2  0  0.50     -1606.9547   2.0000                                         
     2  1  1.50     -1413.3140   6.0000                                         
     3  0  0.50      -213.4885   2.0000                                         
     3  1  1.50      -152.9538   6.0000                                         
     3  2  2.50       -53.1221  10.0000                                         
     4  0  0.50       -17.2865   2.0000                                         
     4  1  0.50        -6.5110   4.0000                                         
     4  2  2.50        -6.8029   0.0000                                         
     4  3  2.50        -6.8029   0.0000                                         
   Description                                                                  
     l       E           TYP  RCUT    TYP  RCUT                                 
     0    -17.2865377     23  2.100                                             
     0    -15.3094411     23  2.100                                             
     1     -6.5110275     23  2.100                                             
     1     -0.0695192     23  2.100                                             
     2     -6.8029130     23  2.100                                             
     3     -1.3605826      7  2.100                                             
  local pseudopotential read in
  partial core-charges read in
  partial kinetic energy density read in
  atomic valenz-charges read in
  non local Contribution for L=           0  read in
    real space projection operators read in
  non local Contribution for L=           0  read in
    real space projection operators read in
  non local Contribution for L=           1  read in
    real space projection operators read in
  non local Contribution for L=           1  read in
    real space projection operators read in
  non local Contribution for L=           2  read in
    real space projection operators read in
    PAW grid and wavefunctions read in
 
   number of l-projection  operators is LMAX  =           5
   number of lm-projection operators is LMMAX =          13
 
 WARNING: PSMAXN for non-local potential too small
          PSMAXN should be >   12.5490833729506       NTYP=           1
  PAW_PBE Sn 08Apr2002                  :
 energy of atom  1       EATOM=  -94.0860
 kinetic energy error for atom=    0.0000 (will be added to EATOM!!)
  PAW_PBE Se 06Sep2000                  :
 energy of atom  2       EATOM= -257.1286
 kinetic energy error for atom=    0.0006 (will be added to EATOM!!)
 
 
 POSCAR:  POSCAR with strain of 0.010            
  positions in direct lattice
  No initial velocities read in
 exchange correlation table for  LEXCH =        8
   RHO(1)=    0.500       N(1)  =     2000
   RHO(2)=  100.500       N(2)  =     4000
 


--------------------------------------------------------------------------------------------------------


 ion  position               nearest neighbor table
   1  0.581  0.750  0.569-   4 2.72   3 2.92   3 2.95   3 3.22   3 3.26
   2  0.081  0.250  0.431-   3 2.72   4 2.92   4 2.95   4 3.22   4 3.26
   3  0.033  0.250  0.567-   2 2.72   1 2.92   1 2.95   1 3.22   1 3.26
   4  0.533  0.750  0.433-   1 2.72   2 2.92   2 2.95   2 3.22   2 3.26
 
  LATTYP: Found a simple monoclinic cell.
 ALAT       =     6.1964089403
 B/A-ratio  =     3.2276759317
 C/A-ratio  =     1.5939315231
 COS(beta)  =    -0.9505932238
  
  Lattice vectors:
  
 A1 = (  -4.4476427219,  -4.3143896410,   0.0000000000)
 A2 = (   0.0000000000,   0.0000000000, -20.0000000000)
 A3 = (   8.8738230545,   4.3363014248,   0.0000000000)


Analysis of symmetry for initial positions (statically):
=====================================================================
 Subroutine PRICEL returns:
 Original cell was already a primitive cell.
 

 Routine SETGRP: Setting up the symmetry group for a 
 simple monoclinic supercell.


 Subroutine GETGRP returns: Found  2 space group operations
 (whereof  1 operations were pure point group operations)
 out of a pool of  4 trial point group operations.


The static configuration has the point symmetry C_1 .
 The point group associated with its full space group is C_1h.


Analysis of symmetry for dynamics (positions and initial velocities):
=====================================================================
 Subroutine PRICEL returns:
 Original cell was already a primitive cell.
 

 Routine SETGRP: Setting up the symmetry group for a 
 simple monoclinic supercell.


 Subroutine GETGRP returns: Found  2 space group operations
 (whereof  1 operations were pure point group operations)
 out of a pool of  4 trial point group operations.


The dynamic configuration has the point symmetry C_1 .
 The point group associated with its full space group is C_1h.


 Subroutine INISYM returns: Found  2 space group operations
 (whereof  1 operations are pure point group operations),
 and found     1 'primitive' translations

 
 
 KPOINTS: KMesh Grid                              

Automatic generation of k-mesh.
Space group operators:
 irot       det(A)        alpha          n_x          n_y          n_z        tau_x        tau_y        tau_z
    1     1.000000     0.000001     1.000000     0.000000     0.000000     0.000000     0.000000     0.000000
    2    -1.000000   180.000000     0.000000     0.000000     1.000000    -0.500000    -0.500000     0.000000
 
 Subroutine IBZKPT returns following result:
 ===========================================
 
 Found    113 irreducible k-points:
 
 Following reciprocal coordinates:
            Coordinates               Weight
  0.000000  0.000000  0.000000      1.000000
  0.066667  0.000000  0.000000      2.000000
  0.133333  0.000000  0.000000      2.000000
  0.200000  0.000000  0.000000      2.000000
  0.266667  0.000000  0.000000      2.000000
  0.333333 -0.000000  0.000000      2.000000
  0.400000  0.000000  0.000000      2.000000
  0.466667 -0.000000  0.000000      2.000000
 -0.000000  0.066667  0.000000      2.000000
  0.066667  0.066667  0.000000      2.000000
  0.133333  0.066667  0.000000      2.000000
  0.200000  0.066667  0.000000      2.000000
  0.266667  0.066667  0.000000      2.000000
  0.333333  0.066667  0.000000      2.000000
  0.400000  0.066667  0.000000      2.000000
  0.466667  0.066667  0.000000      2.000000
 -0.466667  0.066667  0.000000      2.000000
 -0.400000  0.066667  0.000000      2.000000
 -0.333333  0.066667  0.000000      2.000000
 -0.266667  0.066667  0.000000      2.000000
 -0.200000  0.066667  0.000000      2.000000
 -0.133333  0.066667  0.000000      2.000000
 -0.066667  0.066667  0.000000      2.000000
 -0.000000  0.133333  0.000000      2.000000
  0.066667  0.133333  0.000000      2.000000
  0.133333  0.133333  0.000000      2.000000
  0.200000  0.133333  0.000000      2.000000
  0.266667  0.133333  0.000000      2.000000
  0.333333  0.133333  0.000000      2.000000
  0.400000  0.133333  0.000000      2.000000
  0.466667  0.133333  0.000000      2.000000
 -0.466667  0.133333  0.000000      2.000000
 -0.400000  0.133333  0.000000      2.000000
 -0.333333  0.133333  0.000000      2.000000
 -0.266667  0.133333  0.000000      2.000000
 -0.200000  0.133333  0.000000      2.000000
 -0.133333  0.133333  0.000000      2.000000
 -0.066667  0.133333  0.000000      2.000000
 -0.000000  0.200000  0.000000      2.000000
  0.066667  0.200000  0.000000      2.000000
  0.133333  0.200000  0.000000      2.000000
  0.200000  0.200000  0.000000      2.000000
  0.266667  0.200000  0.000000      2.000000
  0.333333  0.200000  0.000000      2.000000
  0.400000  0.200000  0.000000      2.000000
  0.466667  0.200000  0.000000      2.000000
 -0.466667  0.200000  0.000000      2.000000
 -0.400000  0.200000  0.000000      2.000000
 -0.333333  0.200000  0.000000      2.000000
 -0.266667  0.200000  0.000000      2.000000
 -0.200000  0.200000  0.000000      2.000000
 -0.133333  0.200000  0.000000      2.000000
 -0.066667  0.200000  0.000000      2.000000
  0.000000  0.266667  0.000000      2.000000
  0.066667  0.266667  0.000000      2.000000
  0.133333  0.266667  0.000000      2.000000
  0.200000  0.266667  0.000000      2.000000
  0.266667  0.266667  0.000000      2.000000
  0.333333  0.266667  0.000000      2.000000
  0.400000  0.266667  0.000000      2.000000
  0.466667  0.266667  0.000000      2.000000
 -0.466667  0.266667  0.000000      2.000000
 -0.400000  0.266667  0.000000      2.000000
 -0.333333  0.266667  0.000000      2.000000
 -0.266667  0.266667  0.000000      2.000000
 -0.200000  0.266667  0.000000      2.000000
 -0.133333  0.266667  0.000000      2.000000
 -0.066667  0.266667  0.000000      2.000000
 -0.000000  0.333333  0.000000      2.000000
  0.066667  0.333333  0.000000      2.000000
  0.133333  0.333333  0.000000      2.000000
  0.200000  0.333333  0.000000      2.000000
  0.266667  0.333333  0.000000      2.000000
  0.333333  0.333333  0.000000      2.000000
  0.400000  0.333333  0.000000      2.000000
  0.466667  0.333333  0.000000      2.000000
 -0.466667  0.333333  0.000000      2.000000
 -0.400000  0.333333  0.000000      2.000000
 -0.333333  0.333333  0.000000      2.000000
 -0.266667  0.333333  0.000000      2.000000
 -0.200000  0.333333  0.000000      2.000000
 -0.133333  0.333333  0.000000      2.000000
 -0.066667  0.333333  0.000000      2.000000
 -0.000000  0.400000  0.000000      2.000000
  0.066667  0.400000  0.000000      2.000000
  0.133333  0.400000  0.000000      2.000000
  0.200000  0.400000  0.000000      2.000000
  0.266667  0.400000  0.000000      2.000000
  0.333333  0.400000  0.000000      2.000000
  0.400000  0.400000  0.000000      2.000000
  0.466667  0.400000  0.000000      2.000000
 -0.466667  0.400000  0.000000      2.000000
 -0.400000  0.400000  0.000000      2.000000
 -0.333333  0.400000  0.000000      2.000000
 -0.266667  0.400000  0.000000      2.000000
 -0.200000  0.400000  0.000000      2.000000
 -0.133333  0.400000  0.000000      2.000000
 -0.066667  0.400000  0.000000      2.000000
 -0.000000  0.466667  0.000000      2.000000
  0.066667  0.466667  0.000000      2.000000
  0.133333  0.466667  0.000000      2.000000
  0.200000  0.466667  0.000000      2.000000
  0.266667  0.466667  0.000000      2.000000
  0.333333  0.466667  0.000000      2.000000
  0.400000  0.466667  0.000000      2.000000
  0.466667  0.466667  0.000000      2.000000
 -0.466667  0.466667  0.000000      2.000000
 -0.400000  0.466667  0.000000      2.000000
 -0.333333  0.466667  0.000000      2.000000
 -0.266667  0.466667  0.000000      2.000000
 -0.200000  0.466667  0.000000      2.000000
 -0.133333  0.466667  0.000000      2.000000
 -0.066667  0.466667  0.000000      2.000000
 
 Following cartesian coordinates:
            Coordinates               Weight
  0.000000  0.000000  0.000000      1.000000
  0.015062 -0.000075  0.000000      2.000000
  0.030125 -0.000151  0.000000      2.000000
  0.045187 -0.000226  0.000000      2.000000
  0.060249 -0.000301  0.000000      2.000000
  0.075311 -0.000377  0.000000      2.000000
  0.090374 -0.000452  0.000000      2.000000
  0.105436 -0.000527  0.000000      2.000000
 -0.000077  0.015531  0.000000      2.000000
  0.014985  0.015456  0.000000      2.000000
  0.030048  0.015381  0.000000      2.000000
  0.045110  0.015305  0.000000      2.000000
  0.060172  0.015230  0.000000      2.000000
  0.075234  0.015155  0.000000      2.000000
  0.090297  0.015080  0.000000      2.000000
  0.105359  0.015004  0.000000      2.000000
 -0.105513  0.016059  0.000000      2.000000
 -0.090450  0.015983  0.000000      2.000000
 -0.075388  0.015908  0.000000      2.000000
 -0.060326  0.015833  0.000000      2.000000
 -0.045264  0.015757  0.000000      2.000000
 -0.030201  0.015682  0.000000      2.000000
 -0.015139  0.015607  0.000000      2.000000
 -0.000154  0.031063  0.000000      2.000000
  0.014908  0.030988  0.000000      2.000000
  0.029971  0.030912  0.000000      2.000000
  0.045033  0.030837  0.000000      2.000000
  0.060095  0.030762  0.000000      2.000000
  0.075158  0.030686  0.000000      2.000000
  0.090220  0.030611  0.000000      2.000000
  0.105282  0.030536  0.000000      2.000000
 -0.105590  0.031590  0.000000      2.000000
 -0.090527  0.031515  0.000000      2.000000
 -0.075465  0.031439  0.000000      2.000000
 -0.060403  0.031364  0.000000      2.000000
 -0.045341  0.031289  0.000000      2.000000
 -0.030278  0.031213  0.000000      2.000000
 -0.015216  0.031138  0.000000      2.000000
 -0.000231  0.046594  0.000000      2.000000
  0.014832  0.046519  0.000000      2.000000
  0.029894  0.046444  0.000000      2.000000
  0.044956  0.046368  0.000000      2.000000
  0.060018  0.046293  0.000000      2.000000
  0.075081  0.046218  0.000000      2.000000
  0.090143  0.046142  0.000000      2.000000
  0.105205  0.046067  0.000000      2.000000
 -0.105667  0.047121  0.000000      2.000000
 -0.090604  0.047046  0.000000      2.000000
 -0.075542  0.046971  0.000000      2.000000
 -0.060480  0.046896  0.000000      2.000000
 -0.045417  0.046820  0.000000      2.000000
 -0.030355  0.046745  0.000000      2.000000
 -0.015293  0.046670  0.000000      2.000000
 -0.000308  0.062126  0.000000      2.000000
  0.014755  0.062050  0.000000      2.000000
  0.029817  0.061975  0.000000      2.000000
  0.044879  0.061900  0.000000      2.000000
  0.059942  0.061824  0.000000      2.000000
  0.075004  0.061749  0.000000      2.000000
  0.090066  0.061674  0.000000      2.000000
  0.105128  0.061599  0.000000      2.000000
 -0.105743  0.062653  0.000000      2.000000
 -0.090681  0.062578  0.000000      2.000000
 -0.075619  0.062502  0.000000      2.000000
 -0.060557  0.062427  0.000000      2.000000
 -0.045494  0.062352  0.000000      2.000000
 -0.030432  0.062276  0.000000      2.000000
 -0.015370  0.062201  0.000000      2.000000
 -0.000384  0.077657  0.000000      2.000000
  0.014678  0.077582  0.000000      2.000000
  0.029740  0.077507  0.000000      2.000000
  0.044802  0.077431  0.000000      2.000000
  0.059865  0.077356  0.000000      2.000000
  0.074927  0.077281  0.000000      2.000000
  0.089989  0.077205  0.000000      2.000000
  0.105051  0.077130  0.000000      2.000000
 -0.105820  0.078184  0.000000      2.000000
 -0.090758  0.078109  0.000000      2.000000
 -0.075696  0.078034  0.000000      2.000000
 -0.060634  0.077958  0.000000      2.000000
 -0.045571  0.077883  0.000000      2.000000
 -0.030509  0.077808  0.000000      2.000000
 -0.015447  0.077732  0.000000      2.000000
 -0.000461  0.093189  0.000000      2.000000
  0.014601  0.093113  0.000000      2.000000
  0.029663  0.093038  0.000000      2.000000
  0.044725  0.092963  0.000000      2.000000
  0.059788  0.092887  0.000000      2.000000
  0.074850  0.092812  0.000000      2.000000
  0.089912  0.092737  0.000000      2.000000
  0.104975  0.092661  0.000000      2.000000
 -0.105897  0.093716  0.000000      2.000000
 -0.090835  0.093640  0.000000      2.000000
 -0.075773  0.093565  0.000000      2.000000
 -0.060710  0.093490  0.000000      2.000000
 -0.045648  0.093415  0.000000      2.000000
 -0.030586  0.093339  0.000000      2.000000
 -0.015524  0.093264  0.000000      2.000000
 -0.000538  0.108720  0.000000      2.000000
  0.014524  0.108645  0.000000      2.000000
  0.029586  0.108569  0.000000      2.000000
  0.044649  0.108494  0.000000      2.000000
  0.059711  0.108419  0.000000      2.000000
  0.074773  0.108343  0.000000      2.000000
  0.089835  0.108268  0.000000      2.000000
  0.104898  0.108193  0.000000      2.000000
 -0.105974  0.109247  0.000000      2.000000
 -0.090912  0.109172  0.000000      2.000000
 -0.075850  0.109097  0.000000      2.000000
 -0.060787  0.109021  0.000000      2.000000
 -0.045725  0.108946  0.000000      2.000000
 -0.030663  0.108871  0.000000      2.000000
 -0.015600  0.108795  0.000000      2.000000
 


--------------------------------------------------------------------------------------------------------




 Dimension of arrays:
   k-points           NKPTS =    113   k-points in BZ     NKDIM =    113   number of bands    NBANDS=     14
   number of dos      NEDOS =    301   number of ions     NIONS =      4
   non local maximal  LDIM  =      5   non local SUM 2l+1 LMDIM =     13
   total plane-waves  NPLWV = 207360
   max r-space proj   IRMAX =      1   max aug-charges    IRDMAX=  52723
   dimension x,y,z NGX =    36 NGY =   36 NGZ =  160
   dimension x,y,z NGXF=    72 NGYF=   72 NGZF=  320
   support grid    NGXF=    72 NGYF=   72 NGZF=  320
   ions per type =               2   2
   NGX,Y,Z   is equivalent  to a cutoff of  13.52, 13.94, 13.30 a.u.
   NGXF,Y,Z  is equivalent  to a cutoff of  27.04, 27.88, 26.60 a.u.

 SYSTEM =  SnSe                                    
 POSCAR =   POSCAR with strain of 0.010            

 Startparameter for this run:
   NWRITE =      2    write-flag & timer
   PREC   = accura    normal or accurate (medium, high low for compatibility)
   ISTART =      0    job   : 0-new  1-cont  2-samecut
   ICHARG =      2    charge: 1-file 2-atom 10-const
   ISPIN  =      1    spin polarized calculation?
   LNONCOLLINEAR =      F non collinear calculations
   LSORBIT =      F    spin-orbit coupling
   INIWAV =      1    electr: 0-lowe 1-rand  2-diag
   LASPH  =      F    aspherical Exc in radial PAW
   METAGGA=      F    non-selfconsistent MetaGGA calc.

 Electronic Relaxation 1
   ENCUT  =  600.0 eV  44.10 Ry    6.64 a.u.   8.84  8.57 39.94*2*pi/ulx,y,z
   ENINI  =  600.0     initial cutoff
   ENAUG  =  446.8 eV  augmentation charge cutoff
   NELM   =     60;   NELMIN=  2; NELMDL= -5     # of ELM steps 
   EDIFF  = 0.1E-05   stopping-criterion for ELM
   LREAL  =      F    real-space projection
   NLSPLINE    = F    spline interpolate recip. space projectors
   LCOMPAT=      F    compatible to vasp.4.4
   GGA_COMPAT  = T    GGA compatible to vasp.4.4-vasp.4.6
   LMAXPAW     = -100 max onsite density
   LMAXMIX     =    2 max onsite mixed and CHGCAR
   VOSKOWN=      0    Vosko Wilk Nusair interpolation
   ROPT   =    0.00000   0.00000
 Ionic relaxation
   EDIFFG = -.1E-02   stopping-criterion for IOM
   NSW    =    100    number of steps for IOM
   NBLOCK =      1;   KBLOCK =    100    inner block; outer block 
   IBRION =      2    ionic relax: 0-MD 1-quasi-New 2-CG
   NFREE  =      1    steps in history (QN), initial steepest desc. (CG)
   ISIF   =      2    stress and relaxation
   IWAVPR =     11    prediction:  0-non 1-charg 2-wave 3-comb
   ISYM   =      2    0-nonsym 1-usesym 2-fastsym
   LCORR  =      T    Harris-Foulkes like correction to forces

   POTIM  = 0.5000    time-step for ionic-motion
   TEIN   =    0.0    initial temperature
   TEBEG  =    0.0;   TEEND  =   0.0 temperature during run
   SMASS  =  -3.00    Nose mass-parameter (am)
   estimated Nose-frequenzy (Omega)   =  0.10E-29 period in steps =****** mass=  -0.448E-27a.u.
   SCALEE = 1.0000    scale energy and forces
   NPACO  =    256;   APACO  = 16.0  distance and # of slots for P.C.
   PSTRESS=    0.0 pullay stress

  Mass of Ions in am
   POMASS = 118.71 78.96
  Ionic Valenz
   ZVAL   =   4.00  6.00
  Atomic Wigner-Seitz radii
   RWIGS  =  -1.00 -1.00
  virtual crystal weights 
   VCA    =   1.00  1.00
   NELECT =      20.0000    total number of electrons
   NUPDOWN=      -1.0000    fix difference up-down

 DOS related values:
   EMIN   =  10.00;   EMAX   =-10.00  energy-range for DOS
   EFERMI =   0.00
   ISMEAR =     0;   SIGMA  =   0.10  broadening in eV -4-tet -1-fermi 0-gaus

 Electronic relaxation 2 (details)
   IALGO  =     38    algorithm
   LDIAG  =      T    sub-space diagonalisation (order eigenvalues)
   LSUBROT=      F    optimize rotation matrix (better conditioning)
   TURBO    =      0    0=normal 1=particle mesh
   IRESTART =      0    0=no restart 2=restart with 2 vectors
   NREBOOT  =      0    no. of reboots
   NMIN     =      0    reboot dimension
   EREF     =   0.00    reference energy to select bands
   IMIX   =      4    mixing-type and parameters
     AMIX     =   0.40;   BMIX     =  1.00
     AMIX_MAG =   1.60;   BMIX_MAG =  1.00
     AMIN     =   0.10
     WC   =   100.;   INIMIX=   1;  MIXPRE=   1;  MAXMIX= -45

 Intra band minimization:
   WEIMIN = 0.0010     energy-eigenvalue tresh-hold
   EBREAK =  0.18E-07  absolut break condition
   DEPER  =   0.30     relativ break condition  

   TIME   =   0.40     timestep for ELM

  volume/ion in A,a.u.               =      94.99       641.05
  Fermi-wavevector in a.u.,A,eV,Ry     =   0.613526  1.159395  5.121419  0.376414
  Thomas-Fermi vector in A             =   1.670207
 
 Write flags
   LWAVE        =      T    write WAVECAR
   LDOWNSAMPLE  =      F    k-point downsampling of WAVECAR
   LCHARG       =      T    write CHGCAR
   LVTOT        =      F    write LOCPOT, total local potential
   LVHAR        =      F    write LOCPOT, Hartree potential only
   LELF         =      F    write electronic localiz. function (ELF)
   LORBIT       =      0    0 simple, 1 ext, 2 COOP (PROOUT), +10 PAW based schemes


 Dipole corrections
   LMONO  =      F    monopole corrections only (constant potential shift)
   LDIPOL =      F    correct potential (dipole corrections)
   IDIPOL =      0    1-x, 2-y, 3-z, 4-all directions 
   EPSILON=  1.0000000 bulk dielectric constant

 Exchange correlation treatment:
   GGA     =    PE    GGA type
   LEXCH   =     8    internal setting for exchange type
   VOSKOWN=      0    Vosko Wilk Nusair interpolation
   LHFCALC =     F    Hartree Fock is set to
   LHFONE  =     F    Hartree Fock one center treatment
   AEXX    =    0.0000 exact exchange contribution

 Linear response parameters
   LEPSILON=     F    determine dielectric tensor
   LRPA    =     F    only Hartree local field effects (RPA)
   LNABLA  =     F    use nabla operator in PAW spheres
   LVEL    =     F    velocity operator in full k-point grid
   LINTERFAST=   F  fast interpolation
   KINTER  =     0    interpolate to denser k-point grid
   CSHIFT  =0.1000    complex shift for real part using Kramers Kronig
   OMEGAMAX=  -1.0    maximum frequency
   DEG_THRESHOLD= 0.2000000E-02 threshold for treating states as degnerate
   RTIME   =   -0.100 relaxation time in fs
  (WPLASMAI=    0.000 imaginary part of plasma frequency in eV, 0.658/RTIME)
   DFIELD  = 0.0000000 0.0000000 0.0000000 field for delta impulse in time
 
 Orbital magnetization related:
   ORBITALMAG=     F  switch on orbital magnetization
   LCHIMAG   =     F  perturbation theory with respect to B field
   DQ        =  0.001000  dq finite difference perturbation B field
   LLRAUG    =     F  two centre corrections for induced B field



--------------------------------------------------------------------------------------------------------


 conjugate gradient relaxation of ions
 charge density and potential will be updated during run
 non-spin polarized calculation
 Variant of blocked Davidson
 Davidson routine will perform the subspace rotation
 perform sub-space diagonalisation
    after iterative eigenvector-optimisation
 modified Broyden-mixing scheme, WC =      100.0
 initial mixing is a Kerker type mixing with AMIX =  0.4000 and BMIX =      1.0000
 Hartree-type preconditioning will be used
 using additional bands            4
 reciprocal scheme for non local part
 use partial core corrections
 calculate Harris-corrections to forces 
   (improved forces if not selfconsistent)
 use gradient corrections 
 use of overlap-Matrix (Vanderbilt PP)
 Gauss-broadening in eV      SIGMA  =   0.10


--------------------------------------------------------------------------------------------------------


  energy-cutoff  :      600.00
  volume of cell :      379.98
      direct lattice vectors                 reciprocal lattice vectors
     4.426180333  0.021911784  0.000000000     0.225934028 -0.001129670  0.000000000
     0.021462389  4.292477857  0.000000000    -0.001153324  0.232971441  0.000000000
     0.000000000  0.000000000 20.000000000     0.000000000  0.000000000  0.050000000

  length of vectors
     4.426234569  4.292531513 20.000000000     0.225936853  0.232974296  0.050000000


 
 k-points in units of 2pi/SCALE and weight: KMesh Grid                              
   0.00000000  0.00000000  0.00000000       0.004
   0.01506227 -0.00007531  0.00000000       0.009
   0.03012454 -0.00015062  0.00000000       0.009
   0.04518681 -0.00022593  0.00000000       0.009
   0.06024907 -0.00030125  0.00000000       0.009
   0.07531134 -0.00037656  0.00000000       0.009
   0.09037361 -0.00045187  0.00000000       0.009
   0.10543588 -0.00052718  0.00000000       0.009
  -0.00007689  0.01553143  0.00000000       0.009
   0.01498538  0.01545612  0.00000000       0.009
   0.03004765  0.01538081  0.00000000       0.009
   0.04510992  0.01530550  0.00000000       0.009
   0.06017219  0.01523018  0.00000000       0.009
   0.07523445  0.01515487  0.00000000       0.009
   0.09029672  0.01507956  0.00000000       0.009
   0.10535899  0.01500425  0.00000000       0.009
  -0.10551277  0.01605861  0.00000000       0.009
  -0.09045050  0.01598330  0.00000000       0.009
  -0.07538823  0.01590799  0.00000000       0.009
  -0.06032596  0.01583267  0.00000000       0.009
  -0.04526369  0.01575736  0.00000000       0.009
  -0.03020143  0.01568205  0.00000000       0.009
  -0.01513916  0.01560674  0.00000000       0.009
  -0.00015378  0.03106286  0.00000000       0.009
   0.01490849  0.03098755  0.00000000       0.009
   0.02997076  0.03091224  0.00000000       0.009
   0.04503303  0.03083692  0.00000000       0.009
   0.06009530  0.03076161  0.00000000       0.009
   0.07515757  0.03068630  0.00000000       0.009
   0.09021983  0.03061099  0.00000000       0.009
   0.10528210  0.03053568  0.00000000       0.009
  -0.10558966  0.03159004  0.00000000       0.009
  -0.09052739  0.03151473  0.00000000       0.009
  -0.07546512  0.03143942  0.00000000       0.009
  -0.06040285  0.03136410  0.00000000       0.009
  -0.04534058  0.03128879  0.00000000       0.009
  -0.03027831  0.03121348  0.00000000       0.009
  -0.01521605  0.03113817  0.00000000       0.009
  -0.00023066  0.04659429  0.00000000       0.009
   0.01483160  0.04651898  0.00000000       0.009
   0.02989387  0.04644367  0.00000000       0.009
   0.04495614  0.04636835  0.00000000       0.009
   0.06001841  0.04629304  0.00000000       0.009
   0.07508068  0.04621773  0.00000000       0.009
   0.09014295  0.04614242  0.00000000       0.009
   0.10520522  0.04606711  0.00000000       0.009
  -0.10566654  0.04712147  0.00000000       0.009
  -0.09060428  0.04704616  0.00000000       0.009
  -0.07554201  0.04697084  0.00000000       0.009
  -0.06047974  0.04689553  0.00000000       0.009
  -0.04541747  0.04682022  0.00000000       0.009
  -0.03035520  0.04674491  0.00000000       0.009
  -0.01529293  0.04666960  0.00000000       0.009
  -0.00030755  0.06212572  0.00000000       0.009
   0.01475472  0.06205041  0.00000000       0.009
   0.02981698  0.06197509  0.00000000       0.009
   0.04487925  0.06189978  0.00000000       0.009
   0.05994152  0.06182447  0.00000000       0.009
   0.07500379  0.06174916  0.00000000       0.009
   0.09006606  0.06167385  0.00000000       0.009
   0.10512833  0.06159854  0.00000000       0.009
  -0.10574343  0.06265290  0.00000000       0.009
  -0.09068116  0.06257759  0.00000000       0.009
  -0.07561890  0.06250227  0.00000000       0.009
  -0.06055663  0.06242696  0.00000000       0.009
  -0.04549436  0.06235165  0.00000000       0.009
  -0.03043209  0.06227634  0.00000000       0.009
  -0.01536982  0.06220103  0.00000000       0.009
  -0.00038444  0.07765715  0.00000000       0.009
   0.01467783  0.07758184  0.00000000       0.009
   0.02974010  0.07750652  0.00000000       0.009
   0.04480236  0.07743121  0.00000000       0.009
   0.05986463  0.07735590  0.00000000       0.009
   0.07492690  0.07728059  0.00000000       0.009
   0.08998917  0.07720528  0.00000000       0.009
   0.10505144  0.07712997  0.00000000       0.009
  -0.10582032  0.07818433  0.00000000       0.009
  -0.09075805  0.07810902  0.00000000       0.009
  -0.07569578  0.07803370  0.00000000       0.009
  -0.06063352  0.07795839  0.00000000       0.009
  -0.04557125  0.07788308  0.00000000       0.009
  -0.03050898  0.07780777  0.00000000       0.009
  -0.01544671  0.07773246  0.00000000       0.009
  -0.00046133  0.09318858  0.00000000       0.009
   0.01460094  0.09311327  0.00000000       0.009
   0.02966321  0.09303795  0.00000000       0.009
   0.04472548  0.09296264  0.00000000       0.009
   0.05978774  0.09288733  0.00000000       0.009
   0.07485001  0.09281202  0.00000000       0.009
   0.08991228  0.09273671  0.00000000       0.009
   0.10497455  0.09266140  0.00000000       0.009
  -0.10589721  0.09371576  0.00000000       0.009
  -0.09083494  0.09364044  0.00000000       0.009
  -0.07577267  0.09356513  0.00000000       0.009
  -0.06071040  0.09348982  0.00000000       0.009
  -0.04564814  0.09341451  0.00000000       0.009
  -0.03058587  0.09333920  0.00000000       0.009
  -0.01552360  0.09326389  0.00000000       0.009
  -0.00053822  0.10872001  0.00000000       0.009
   0.01452405  0.10864469  0.00000000       0.009
   0.02958632  0.10856938  0.00000000       0.009
   0.04464859  0.10849407  0.00000000       0.009
   0.05971086  0.10841876  0.00000000       0.009
   0.07477312  0.10834345  0.00000000       0.009
   0.08983539  0.10826814  0.00000000       0.009
   0.10489766  0.10819283  0.00000000       0.009
  -0.10597410  0.10924719  0.00000000       0.009
  -0.09091183  0.10917187  0.00000000       0.009
  -0.07584956  0.10909656  0.00000000       0.009
  -0.06078729  0.10902125  0.00000000       0.009
  -0.04572502  0.10894594  0.00000000       0.009
  -0.03066275  0.10887063  0.00000000       0.009
  -0.01560049  0.10879532  0.00000000       0.009
 
 k-points in reciprocal lattice and weights: KMesh Grid                              
   0.00000000  0.00000000  0.00000000       0.004
   0.06666667  0.00000000  0.00000000       0.009
   0.13333333  0.00000000  0.00000000       0.009
   0.20000000  0.00000000  0.00000000       0.009
   0.26666667  0.00000000  0.00000000       0.009
   0.33333333 -0.00000000  0.00000000       0.009
   0.40000000  0.00000000  0.00000000       0.009
   0.46666667 -0.00000000  0.00000000       0.009
  -0.00000000  0.06666667  0.00000000       0.009
   0.06666667  0.06666667  0.00000000       0.009
   0.13333333  0.06666667  0.00000000       0.009
   0.20000000  0.06666667  0.00000000       0.009
   0.26666667  0.06666667  0.00000000       0.009
   0.33333333  0.06666667  0.00000000       0.009
   0.40000000  0.06666667  0.00000000       0.009
   0.46666667  0.06666667  0.00000000       0.009
  -0.46666667  0.06666667  0.00000000       0.009
  -0.40000000  0.06666667  0.00000000       0.009
  -0.33333333  0.06666667  0.00000000       0.009
  -0.26666667  0.06666667  0.00000000       0.009
  -0.20000000  0.06666667  0.00000000       0.009
  -0.13333333  0.06666667  0.00000000       0.009
  -0.06666667  0.06666667  0.00000000       0.009
  -0.00000000  0.13333333  0.00000000       0.009
   0.06666667  0.13333333  0.00000000       0.009
   0.13333333  0.13333333  0.00000000       0.009
   0.20000000  0.13333333  0.00000000       0.009
   0.26666667  0.13333333  0.00000000       0.009
   0.33333333  0.13333333  0.00000000       0.009
   0.40000000  0.13333333  0.00000000       0.009
   0.46666667  0.13333333  0.00000000       0.009
  -0.46666667  0.13333333  0.00000000       0.009
  -0.40000000  0.13333333  0.00000000       0.009
  -0.33333333  0.13333333  0.00000000       0.009
  -0.26666667  0.13333333  0.00000000       0.009
  -0.20000000  0.13333333  0.00000000       0.009
  -0.13333333  0.13333333  0.00000000       0.009
  -0.06666667  0.13333333  0.00000000       0.009
  -0.00000000  0.20000000  0.00000000       0.009
   0.06666667  0.20000000  0.00000000       0.009
   0.13333333  0.20000000  0.00000000       0.009
   0.20000000  0.20000000  0.00000000       0.009
   0.26666667  0.20000000  0.00000000       0.009
   0.33333333  0.20000000  0.00000000       0.009
   0.40000000  0.20000000  0.00000000       0.009
   0.46666667  0.20000000  0.00000000       0.009
  -0.46666667  0.20000000  0.00000000       0.009
  -0.40000000  0.20000000  0.00000000       0.009
  -0.33333333  0.20000000  0.00000000       0.009
  -0.26666667  0.20000000  0.00000000       0.009
  -0.20000000  0.20000000  0.00000000       0.009
  -0.13333333  0.20000000  0.00000000       0.009
  -0.06666667  0.20000000  0.00000000       0.009
   0.00000000  0.26666667  0.00000000       0.009
   0.06666667  0.26666667  0.00000000       0.009
   0.13333333  0.26666667  0.00000000       0.009
   0.20000000  0.26666667  0.00000000       0.009
   0.26666667  0.26666667  0.00000000       0.009
   0.33333333  0.26666667  0.00000000       0.009
   0.40000000  0.26666667  0.00000000       0.009
   0.46666667  0.26666667  0.00000000       0.009
  -0.46666667  0.26666667  0.00000000       0.009
  -0.40000000  0.26666667  0.00000000       0.009
  -0.33333333  0.26666667  0.00000000       0.009
  -0.26666667  0.26666667  0.00000000       0.009
  -0.20000000  0.26666667  0.00000000       0.009
  -0.13333333  0.26666667  0.00000000       0.009
  -0.06666667  0.26666667  0.00000000       0.009
  -0.00000000  0.33333333  0.00000000       0.009
   0.06666667  0.33333333  0.00000000       0.009
   0.13333333  0.33333333  0.00000000       0.009
   0.20000000  0.33333333  0.00000000       0.009
   0.26666667  0.33333333  0.00000000       0.009
   0.33333333  0.33333333  0.00000000       0.009
   0.40000000  0.33333333  0.00000000       0.009
   0.46666667  0.33333333  0.00000000       0.009
  -0.46666667  0.33333333  0.00000000       0.009
  -0.40000000  0.33333333  0.00000000       0.009
  -0.33333333  0.33333333  0.00000000       0.009
  -0.26666667  0.33333333  0.00000000       0.009
  -0.20000000  0.33333333  0.00000000       0.009
  -0.13333333  0.33333333  0.00000000       0.009
  -0.06666667  0.33333333  0.00000000       0.009
  -0.00000000  0.40000000  0.00000000       0.009
   0.06666667  0.40000000  0.00000000       0.009
   0.13333333  0.40000000  0.00000000       0.009
   0.20000000  0.40000000  0.00000000       0.009
   0.26666667  0.40000000  0.00000000       0.009
   0.33333333  0.40000000  0.00000000       0.009
   0.40000000  0.40000000  0.00000000       0.009
   0.46666667  0.40000000  0.00000000       0.009
  -0.46666667  0.40000000  0.00000000       0.009
  -0.40000000  0.40000000  0.00000000       0.009
  -0.33333333  0.40000000  0.00000000       0.009
  -0.26666667  0.40000000  0.00000000       0.009
  -0.20000000  0.40000000  0.00000000       0.009
  -0.13333333  0.40000000  0.00000000       0.009
  -0.06666667  0.40000000  0.00000000       0.009
  -0.00000000  0.46666667  0.00000000       0.009
   0.06666667  0.46666667  0.00000000       0.009
   0.13333333  0.46666667  0.00000000       0.009
   0.20000000  0.46666667  0.00000000       0.009
   0.26666667  0.46666667  0.00000000       0.009
   0.33333333  0.46666667  0.00000000       0.009
   0.40000000  0.46666667  0.00000000       0.009
   0.46666667  0.46666667  0.00000000       0.009
  -0.46666667  0.46666667  0.00000000       0.009
  -0.40000000  0.46666667  0.00000000       0.009
  -0.33333333  0.46666667  0.00000000       0.009
  -0.26666667  0.46666667  0.00000000       0.009
  -0.20000000  0.46666667  0.00000000       0.009
  -0.13333333  0.46666667  0.00000000       0.009
  -0.06666667  0.46666667  0.00000000       0.009
 
 position of ions in fractional coordinates (direct lattice) 
   0.58124336  0.75000000  0.56874314
   0.08124336  0.25000000  0.43125686
   0.03286064  0.25000000  0.56707387
   0.53286061  0.75000000  0.43292613
 
 position of ions in cartesian coordinates  (Angst):
   2.58878471  3.23209447 11.37486283
   0.36496335  1.07489965  8.62513717
   0.15081273  1.07383950 11.34147733
   2.37463397  3.23103432  8.65852267
 


--------------------------------------------------------------------------------------------------------


 k-point  1 :   0.0000 0.0000 0.0000  plane waves:   12719
 k-point  2 :   0.0667 0.0000 0.0000  plane waves:   12724
 k-point  3 :   0.1333 0.0000 0.0000  plane waves:   12704
 k-point  4 :   0.2000 0.0000 0.0000  plane waves:   12685
 k-point  5 :   0.2667 0.0000 0.0000  plane waves:   12682
 k-point  6 :   0.3333-0.0000 0.0000  plane waves:   12689
 k-point  7 :   0.4000 0.0000 0.0000  plane waves:   12707
 k-point  8 :   0.4667-0.0000 0.0000  plane waves:   12718
 k-point  9 :  -0.0000 0.0667 0.0000  plane waves:   12691
 k-point 10 :   0.0667 0.0667 0.0000  plane waves:   12687
 k-point 11 :   0.1333 0.0667 0.0000  plane waves:   12687
 k-point 12 :   0.2000 0.0667 0.0000  plane waves:   12676
 k-point 13 :   0.2667 0.0667 0.0000  plane waves:   12677
 k-point 14 :   0.3333 0.0667 0.0000  plane waves:   12670
 k-point 15 :   0.4000 0.0667 0.0000  plane waves:   12699
 k-point 16 :   0.4667 0.0667 0.0000  plane waves:   12726
 k-point 17 :  -0.4667 0.0667 0.0000  plane waves:   12712
 k-point 18 :  -0.4000 0.0667 0.0000  plane waves:   12715
 k-point 19 :  -0.3333 0.0667 0.0000  plane waves:   12719
 k-point 20 :  -0.2667 0.0667 0.0000  plane waves:   12707
 k-point 21 :  -0.2000 0.0667 0.0000  plane waves:   12696
 k-point 22 :  -0.1333 0.0667 0.0000  plane waves:   12704
 k-point 23 :  -0.0667 0.0667 0.0000  plane waves:   12701
 k-point 24 :  -0.0000 0.1333 0.0000  plane waves:   12683
 k-point 25 :   0.0667 0.1333 0.0000  plane waves:   12685
 k-point 26 :   0.1333 0.1333 0.0000  plane waves:   12675
 k-point 27 :   0.2000 0.1333 0.0000  plane waves:   12664
 k-point 28 :   0.2667 0.1333 0.0000  plane waves:   12663
 k-point 29 :   0.3333 0.1333 0.0000  plane waves:   12676
 k-point 30 :   0.4000 0.1333 0.0000  plane waves:   12694
 k-point 31 :   0.4667 0.1333 0.0000  plane waves:   12693
 k-point 32 :  -0.4667 0.1333 0.0000  plane waves:   12720
 k-point 33 :  -0.4000 0.1333 0.0000  plane waves:   12713
 k-point 34 :  -0.3333 0.1333 0.0000  plane waves:   12700
 k-point 35 :  -0.2667 0.1333 0.0000  plane waves:   12709
 k-point 36 :  -0.2000 0.1333 0.0000  plane waves:   12688
 k-point 37 :  -0.1333 0.1333 0.0000  plane waves:   12669
 k-point 38 :  -0.0667 0.1333 0.0000  plane waves:   12671
 k-point 39 :  -0.0000 0.2000 0.0000  plane waves:   12680
 k-point 40 :   0.0667 0.2000 0.0000  plane waves:   12684
 k-point 41 :   0.1333 0.2000 0.0000  plane waves:   12675
 k-point 42 :   0.2000 0.2000 0.0000  plane waves:   12670
 k-point 43 :   0.2667 0.2000 0.0000  plane waves:   12681
 k-point 44 :   0.3333 0.2000 0.0000  plane waves:   12665
 k-point 45 :   0.4000 0.2000 0.0000  plane waves:   12715
 k-point 46 :   0.4667 0.2000 0.0000  plane waves:   12711
 k-point 47 :  -0.4667 0.2000 0.0000  plane waves:   12707
 k-point 48 :  -0.4000 0.2000 0.0000  plane waves:   12710
 k-point 49 :  -0.3333 0.2000 0.0000  plane waves:   12698
 k-point 50 :  -0.2667 0.2000 0.0000  plane waves:   12694
 k-point 51 :  -0.2000 0.2000 0.0000  plane waves:   12675
 k-point 52 :  -0.1333 0.2000 0.0000  plane waves:   12673
 k-point 53 :  -0.0667 0.2000 0.0000  plane waves:   12675
 k-point 54 :   0.0000 0.2667 0.0000  plane waves:   12661
 k-point 55 :   0.0667 0.2667 0.0000  plane waves:   12660
 k-point 56 :   0.1333 0.2667 0.0000  plane waves:   12659
 k-point 57 :   0.2000 0.2667 0.0000  plane waves:   12667
 k-point 58 :   0.2667 0.2667 0.0000  plane waves:   12676
 k-point 59 :   0.3333 0.2667 0.0000  plane waves:   12681
 k-point 60 :   0.4000 0.2667 0.0000  plane waves:   12693
 k-point 61 :   0.4667 0.2667 0.0000  plane waves:   12690
 k-point 62 :  -0.4667 0.2667 0.0000  plane waves:   12712
 k-point 63 :  -0.4000 0.2667 0.0000  plane waves:   12695
 k-point 64 :  -0.3333 0.2667 0.0000  plane waves:   12692
 k-point 65 :  -0.2667 0.2667 0.0000  plane waves:   12685
 k-point 66 :  -0.2000 0.2667 0.0000  plane waves:   12674
 k-point 67 :  -0.1333 0.2667 0.0000  plane waves:   12666
 k-point 68 :  -0.0667 0.2667 0.0000  plane waves:   12667
 k-point 69 :  -0.0000 0.3333 0.0000  plane waves:   12657
 k-point 70 :   0.0667 0.3333 0.0000  plane waves:   12651
 k-point 71 :   0.1333 0.3333 0.0000  plane waves:   12652
 k-point 72 :   0.2000 0.3333 0.0000  plane waves:   12667
 k-point 73 :   0.2667 0.3333 0.0000  plane waves:   12669
 k-point 74 :   0.3333 0.3333 0.0000  plane waves:   12682
 k-point 75 :   0.4000 0.3333 0.0000  plane waves:   12679
 k-point 76 :   0.4667 0.3333 0.0000  plane waves:   12698
 k-point 77 :  -0.4667 0.3333 0.0000  plane waves:   12698
 k-point 78 :  -0.4000 0.3333 0.0000  plane waves:   12701
 k-point 79 :  -0.3333 0.3333 0.0000  plane waves:   12691
 k-point 80 :  -0.2667 0.3333 0.0000  plane waves:   12684
 k-point 81 :  -0.2000 0.3333 0.0000  plane waves:   12669
 k-point 82 :  -0.1333 0.3333 0.0000  plane waves:   12655
 k-point 83 :  -0.0667 0.3333 0.0000  plane waves:   12641
 k-point 84 :  -0.0000 0.4000 0.0000  plane waves:   12638
 k-point 85 :   0.0667 0.4000 0.0000  plane waves:   12631
 k-point 86 :   0.1333 0.4000 0.0000  plane waves:   12647
 k-point 87 :   0.2000 0.4000 0.0000  plane waves:   12652
 k-point 88 :   0.2667 0.4000 0.0000  plane waves:   12679
 k-point 89 :   0.3333 0.4000 0.0000  plane waves:   12673
 k-point 90 :   0.4000 0.4000 0.0000  plane waves:   12678
 k-point 91 :   0.4667 0.4000 0.0000  plane waves:   12682
 k-point 92 :  -0.4667 0.4000 0.0000  plane waves:   12676
 k-point 93 :  -0.4000 0.4000 0.0000  plane waves:   12680
 k-point 94 :  -0.3333 0.4000 0.0000  plane waves:   12685
 k-point 95 :  -0.2667 0.4000 0.0000  plane waves:   12682
 k-point 96 :  -0.2000 0.4000 0.0000  plane waves:   12665
 k-point 97 :  -0.1333 0.4000 0.0000  plane waves:   12641
 k-point 98 :  -0.0667 0.4000 0.0000  plane waves:   12635
 k-point 99 :  -0.0000 0.4667 0.0000  plane waves:   12640
 k-point ** :   0.0667 0.4667 0.0000  plane waves:   12638
 k-point ** :   0.1333 0.4667 0.0000  plane waves:   12647
 k-point ** :   0.2000 0.4667 0.0000  plane waves:   12645
 k-point ** :   0.2667 0.4667 0.0000  plane waves:   12660
 k-point ** :   0.3333 0.4667 0.0000  plane waves:   12682
 k-point ** :   0.4000 0.4667 0.0000  plane waves:   12676
 k-point ** :   0.4667 0.4667 0.0000  plane waves:   12664
 k-point ** :  -0.4667 0.4667 0.0000  plane waves:   12680
 k-point ** :  -0.4000 0.4667 0.0000  plane waves:   12666
 k-point ** :  -0.3333 0.4667 0.0000  plane waves:   12663
 k-point ** :  -0.2667 0.4667 0.0000  plane waves:   12653
 k-point ** :  -0.2000 0.4667 0.0000  plane waves:   12694
 k-point ** :  -0.1333 0.4667 0.0000  plane waves:   12641
 k-point ** :  -0.0667 0.4667 0.0000  plane waves:   12641

 maximum and minimum number of plane-waves per node :       551      508

 maximum number of plane-waves:     12726
 maximum index in each direction: 
   IXMAX=    9   IYMAX=    8   IZMAX=   39
   IXMIN=   -9   IYMIN=   -9   IZMIN=  -39


 parallel 3D FFT for wavefunctions:
    minimum data exchange during FFTs selected (reduces bandwidth)
 parallel 3D FFT for charge:
    minimum data exchange during FFTs selected (reduces bandwidth)


 total amount of memory used by VASP MPI-rank0    64198. kBytes
=======================================================================

   base      :      30000. kBytes
   nonl-proj :      12938. kBytes
   fftplans  :       2678. kBytes
   grid      :       4349. kBytes
   one-center:          8. kBytes
   wavefun   :      14225. kBytes
 
     INWAV:  cpu time    0.0000: real time    0.0000
 Broyden mixing: mesh for mixing (old mesh)
   NGX = 17   NGY = 17   NGZ = 79
  (NGX  = 72   NGY  = 72   NGZ  =320)
  gives a total of  22831 points

 initial charge density was supplied:
 charge density of overlapping atoms calculated
 number of electron      20.0000000 magnetization 
 keeping initial charge density in first step


--------------------------------------------------------------------------------------------------------


 Maximum index for augmentation-charges         2204 (set IRDMAX)


--------------------------------------------------------------------------------------------------------


 First call to EWALD:  gamma=   0.245
 Maximum number of real-space cells 4x 4x 1
 Maximum number of reciprocal cells 2x 2x 7

    FEWALD:  cpu time    0.0011: real time    0.0019


--------------------------------------- Iteration      1(   1)  ---------------------------------------


    POTLOK:  cpu time    0.0396: real time    0.5191
    SETDIJ:  cpu time    0.0160: real time    0.0164
     EDDAV:  cpu time    2.1479: real time    2.1561
       DOS:  cpu time    0.0044: real time    0.0045
    --------------------------------------------
      LOOP:  cpu time    2.2079: real time    2.6961

 eigenvalue-minimisations  :  3164
 total energy-change (2. order) : 0.1429462E+03  (-0.6292753E+03)
 number of electron      20.0000000 magnetization 
 augmentation part       20.0000000 magnetization 

 Free energy of the ion-electron system (eV)
  ---------------------------------------------------
  alpha Z        PSCENC =         9.41034931
  Ewald energy   TEWEN  =      1136.88063879
  -Hartree energ DENC   =     -1738.56668192
  -exchange      EXHF   =         0.00000000
  -V(xc)+E(xc)   XCENC  =      -238.65471474
  PAW double counting   =       799.43158084     -524.17639913
  entropy T*S    EENTRO =        -0.01159653
  eigenvalues    EBANDS =        -3.79489027
  atomic energy  EATOM  =       702.42789710
  Solvation  Ediel_sol  =         0.00000000
  ---------------------------------------------------
  free energy    TOTEN  =       142.94618346 eV

  energy without entropy =      142.95777999  energy(sigma->0) =      142.95198172


--------------------------------------------------------------------------------------------------------




--------------------------------------- Iteration      1(   2)  ---------------------------------------


     EDDAV:  cpu time    3.1308: real time    3.1367
       DOS:  cpu time    0.0045: real time    0.0045
    --------------------------------------------
      LOOP:  cpu time    3.1353: real time    3.1412

 eigenvalue-minimisations  :  5304
 total energy-change (2. order) :-0.1387852E+03  (-0.1346363E+03)
 number of electron      20.0000000 magnetization 
 augmentation part       20.0000000 magnetization 

 Free energy of the ion-electron system (eV)
  ---------------------------------------------------
  alpha Z        PSCENC =         9.41034931
  Ewald energy   TEWEN  =      1136.88063879
  -Hartree energ DENC   =     -1738.56668192
  -exchange      EXHF   =         0.00000000
  -V(xc)+E(xc)   XCENC  =      -238.65471474
  PAW double counting   =       799.43158084     -524.17639913
  entropy T*S    EENTRO =        -0.00051813
  eigenvalues    EBANDS =      -142.59119069
  atomic energy  EATOM  =       702.42789710
  Solvation  Ediel_sol  =         0.00000000
  ---------------------------------------------------
  free energy    TOTEN  =         4.16096144 eV

  energy without entropy =        4.16147956  energy(sigma->0) =        4.16122050


--------------------------------------------------------------------------------------------------------




--------------------------------------- Iteration      1(   3)  ---------------------------------------


     EDDAV:  cpu time    2.5247: real time    2.5308
       DOS:  cpu time    0.0029: real time    0.0029
    --------------------------------------------
      LOOP:  cpu time    2.5277: real time    2.5337

 eigenvalue-minimisations  :  3998
 total energy-change (2. order) :-0.2017236E+02  (-0.2003657E+02)
 number of electron      20.0000000 magnetization 
 augmentation part       20.0000000 magnetization 

 Free energy of the ion-electron system (eV)
  ---------------------------------------------------
  alpha Z        PSCENC =         9.41034931
  Ewald energy   TEWEN  =      1136.88063879
  -Hartree energ DENC   =     -1738.56668192
  -exchange      EXHF   =         0.00000000
  -V(xc)+E(xc)   XCENC  =      -238.65471474
  PAW double counting   =       799.43158084     -524.17639913
  entropy T*S    EENTRO =        -0.00000000
  eigenvalues    EBANDS =      -162.76407074
  atomic energy  EATOM  =       702.42789710
  Solvation  Ediel_sol  =         0.00000000
  ---------------------------------------------------
  free energy    TOTEN  =       -16.01140048 eV

  energy without entropy =      -16.01140048  energy(sigma->0) =      -16.01140048


--------------------------------------------------------------------------------------------------------




--------------------------------------- Iteration      1(   4)  ---------------------------------------


     EDDAV:  cpu time    2.7555: real time    2.7681
       DOS:  cpu time    0.0031: real time    0.0031
    --------------------------------------------
      LOOP:  cpu time    2.7586: real time    2.7711

 eigenvalue-minimisations  :  4574
 total energy-change (2. order) :-0.7749803E+00  (-0.7725886E+00)
 number of electron      20.0000000 magnetization 
 augmentation part       20.0000000 magnetization 

 Free energy of the ion-electron system (eV)
  ---------------------------------------------------
  alpha Z        PSCENC =         9.41034931
  Ewald energy   TEWEN  =      1136.88063879
  -Hartree energ DENC   =     -1738.56668192
  -exchange      EXHF   =         0.00000000
  -V(xc)+E(xc)   XCENC  =      -238.65471474
  PAW double counting   =       799.43158084     -524.17639913
  entropy T*S    EENTRO =        -0.00000000
  eigenvalues    EBANDS =      -163.53905104
  atomic energy  EATOM  =       702.42789710
  Solvation  Ediel_sol  =         0.00000000
  ---------------------------------------------------
  free energy    TOTEN  =       -16.78638079 eV

  energy without entropy =      -16.78638079  energy(sigma->0) =      -16.78638079


--------------------------------------------------------------------------------------------------------




--------------------------------------- Iteration      1(   5)  ---------------------------------------


     EDDAV:  cpu time    2.5509: real time    2.5588
       DOS:  cpu time    0.0031: real time    0.0031
    CHARGE:  cpu time    0.1930: real time    0.1933
    MIXING:  cpu time    0.0017: real time    0.0018
    --------------------------------------------
      LOOP:  cpu time    2.7488: real time    2.7571

 eigenvalue-minimisations  :  4118
 total energy-change (2. order) :-0.1636517E-01  (-0.1634645E-01)
 number of electron      20.0000001 magnetization 
 augmentation part       -4.5205739 magnetization 

 Broyden mixing:
  rms(total) = 0.44720E+00    rms(broyden)= 0.44720E+00
  rms(prec ) = 0.48915E+00
  weight for this iteration     100.00

 Free energy of the ion-electron system (eV)
  ---------------------------------------------------
  alpha Z        PSCENC =         9.41034931
  Ewald energy   TEWEN  =      1136.88063879
  -Hartree energ DENC   =     -1738.56668192
  -exchange      EXHF   =         0.00000000
  -V(xc)+E(xc)   XCENC  =      -238.65471474
  PAW double counting   =       799.43158084     -524.17639913
  entropy T*S    EENTRO =        -0.00000000
  eigenvalues    EBANDS =      -163.55541621
  atomic energy  EATOM  =       702.42789710
  Solvation  Ediel_sol  =         0.00000000
  ---------------------------------------------------
  free energy    TOTEN  =       -16.80274596 eV

  energy without entropy =      -16.80274596  energy(sigma->0) =      -16.80274596


--------------------------------------------------------------------------------------------------------




--------------------------------------- Iteration      1(   6)  ---------------------------------------


    POTLOK:  cpu time    0.0362: real time    0.0364
    SETDIJ:  cpu time    0.0032: real time    0.0040
     EDDAV:  cpu time    2.4691: real time    2.4768
       DOS:  cpu time    0.0032: real time    0.0032
    CHARGE:  cpu time    0.1841: real time    0.1843
    MIXING:  cpu time    0.0012: real time    0.0012
    --------------------------------------------
      LOOP:  cpu time    2.6969: real time    2.7059

 eigenvalue-minimisations  :  3948
 total energy-change (2. order) : 0.5032330E+00  (-0.1300979E+00)
 number of electron      20.0000001 magnetization 
 augmentation part       -4.4873811 magnetization 

 Broyden mixing:
  rms(total) = 0.27353E+00    rms(broyden)= 0.27353E+00
  rms(prec ) = 0.28275E+00
  weight for this iteration     100.00

 eigenvalues of (default mixing * dielectric matrix)
  average eigenvalue GAMMA=   1.7607
  1.7607

 Free energy of the ion-electron system (eV)
  ---------------------------------------------------
  alpha Z        PSCENC =         9.41034931
  Ewald energy   TEWEN  =      1136.88063879
  -Hartree energ DENC   =     -1746.49138712
  -exchange      EXHF   =         0.00000000
  -V(xc)+E(xc)   XCENC  =      -238.16853420
  PAW double counting   =       921.82178040     -646.74345915
  entropy T*S    EENTRO =        -0.00000000
  eigenvalues    EBANDS =      -155.43679806
  atomic energy  EATOM  =       702.42789710
  Solvation  Ediel_sol  =         0.00000000
  ---------------------------------------------------
  free energy    TOTEN  =       -16.29951293 eV

  energy without entropy =      -16.29951293  energy(sigma->0) =      -16.29951293


--------------------------------------------------------------------------------------------------------




--------------------------------------- Iteration      1(   7)  ---------------------------------------


    POTLOK:  cpu time    0.0362: real time    0.0363
    SETDIJ:  cpu time    0.0030: real time    0.0030
     EDDAV:  cpu time    2.5266: real time    2.5346
       DOS:  cpu time    0.0031: real time    0.0031
    CHARGE:  cpu time    0.1834: real time    0.1836
    MIXING:  cpu time    0.0011: real time    0.0012
    --------------------------------------------
      LOOP:  cpu time    2.7535: real time    2.7619

 eigenvalue-minimisations  :  4038
 total energy-change (2. order) : 0.2616608E-01  (-0.3069560E-01)
 number of electron      20.0000001 magnetization 
 augmentation part       -4.4801380 magnetization 

 Broyden mixing:
  rms(total) = 0.10646E+00    rms(broyden)= 0.10646E+00
  rms(prec ) = 0.11182E+00
  weight for this iteration     100.00

 eigenvalues of (default mixing * dielectric matrix)
  average eigenvalue GAMMA=   1.7251
  1.3626  2.0875

 Free energy of the ion-electron system (eV)
  ---------------------------------------------------
  alpha Z        PSCENC =         9.41034931
  Ewald energy   TEWEN  =      1136.88063879
  -Hartree energ DENC   =     -1751.33155080
  -exchange      EXHF   =         0.00000000
  -V(xc)+E(xc)   XCENC  =      -237.85383208
  PAW double counting   =      1057.28474729     -782.33613311
  entropy T*S    EENTRO =        -0.00000000
  eigenvalues    EBANDS =      -150.75546335
  atomic energy  EATOM  =       702.42789710
  Solvation  Ediel_sol  =         0.00000000
  ---------------------------------------------------
  free energy    TOTEN  =       -16.27334686 eV

  energy without entropy =      -16.27334686  energy(sigma->0) =      -16.27334686


--------------------------------------------------------------------------------------------------------




--------------------------------------- Iteration      1(   8)  ---------------------------------------


    POTLOK:  cpu time    0.0361: real time    0.0362
    SETDIJ:  cpu time    0.0032: real time    0.0032
     EDDAV:  cpu time    2.7643: real time    2.7718
       DOS:  cpu time    0.0032: real time    0.0032
    CHARGE:  cpu time    0.1838: real time    0.1841
    MIXING:  cpu time    0.0012: real time    0.0012
    --------------------------------------------
      LOOP:  cpu time    2.9917: real time    2.9996

 eigenvalue-minimisations  :  4582
 total energy-change (2. order) : 0.9268947E-02  (-0.3694653E-02)
 number of electron      20.0000001 magnetization 
 augmentation part       -4.4843779 magnetization 

 Broyden mixing:
  rms(total) = 0.20222E-01    rms(broyden)= 0.20222E-01
  rms(prec ) = 0.27674E-01
  weight for this iteration     100.00

 eigenvalues of (default mixing * dielectric matrix)
  average eigenvalue GAMMA=   1.6906
  2.5103  1.2807  1.2807

 Free energy of the ion-electron system (eV)
  ---------------------------------------------------
  alpha Z        PSCENC =         9.41034931
  Ewald energy   TEWEN  =      1136.88063879
  -Hartree energ DENC   =     -1753.07230158
  -exchange      EXHF   =         0.00000000
  -V(xc)+E(xc)   XCENC  =      -237.77102327
  PAW double counting   =      1124.16560082     -849.25538551
  entropy T*S    EENTRO =        -0.00000000
  eigenvalues    EBANDS =      -149.04985357
  atomic energy  EATOM  =       702.42789710
  Solvation  Ediel_sol  =         0.00000000
  ---------------------------------------------------
  free energy    TOTEN  =       -16.26407791 eV

  energy without entropy =      -16.26407791  energy(sigma->0) =      -16.26407791


--------------------------------------------------------------------------------------------------------




--------------------------------------- Iteration      1(   9)  ---------------------------------------


    POTLOK:  cpu time    0.0363: real time    0.0364
    SETDIJ:  cpu time    0.0031: real time    0.0032
     EDDAV:  cpu time    2.6496: real time    2.6569
       DOS:  cpu time    0.0031: real time    0.0031
    CHARGE:  cpu time    0.1848: real time    0.1855
    MIXING:  cpu time    0.0014: real time    0.0014
    --------------------------------------------
      LOOP:  cpu time    2.8783: real time    2.8864

 eigenvalue-minimisations  :  4304
 total energy-change (2. order) : 0.3647953E-02  (-0.6509427E-03)
 number of electron      20.0000001 magnetization 
 augmentation part       -4.4825513 magnetization 

 Broyden mixing:
  rms(total) = 0.99815E-02    rms(broyden)= 0.99815E-02
  rms(prec ) = 0.15600E-01
  weight for this iteration     100.00

 eigenvalues of (default mixing * dielectric matrix)
  average eigenvalue GAMMA=   1.7184
  2.2506  2.2506  1.1863  1.1863

 Free energy of the ion-electron system (eV)
  ---------------------------------------------------
  alpha Z        PSCENC =         9.41034931
  Ewald energy   TEWEN  =      1136.88063879
  -Hartree energ DENC   =     -1754.99872528
  -exchange      EXHF   =         0.00000000
  -V(xc)+E(xc)   XCENC  =      -237.69929695
  PAW double counting   =      1141.39560738     -866.49650695
  entropy T*S    EENTRO =        -0.00000000
  eigenvalues    EBANDS =      -147.18039336
  atomic energy  EATOM  =       702.42789710
  Solvation  Ediel_sol  =         0.00000000
  ---------------------------------------------------
  free energy    TOTEN  =       -16.26042996 eV

  energy without entropy =      -16.26042996  energy(sigma->0) =      -16.26042996


--------------------------------------------------------------------------------------------------------




--------------------------------------- Iteration      1(  10)  ---------------------------------------


    POTLOK:  cpu time    0.0365: real time    0.0367
    SETDIJ:  cpu time    0.0031: real time    0.0031
     EDDAV:  cpu time    2.6528: real time    2.6616
       DOS:  cpu time    0.0032: real time    0.0032
    CHARGE:  cpu time    0.1889: real time    0.1891
    MIXING:  cpu time    0.0013: real time    0.0012
    --------------------------------------------
      LOOP:  cpu time    2.8856: real time    2.8949

 eigenvalue-minimisations  :  4328
 total energy-change (2. order) : 0.1338525E-02  (-0.1270829E-03)
 number of electron      20.0000001 magnetization 
 augmentation part       -4.4812675 magnetization 

 Broyden mixing:
  rms(total) = 0.49500E-02    rms(broyden)= 0.49500E-02
  rms(prec ) = 0.92234E-02
  weight for this iteration     100.00

 eigenvalues of (default mixing * dielectric matrix)
  average eigenvalue GAMMA=   1.8497
  3.3006  2.5933  1.2248  1.2248  0.9047

 Free energy of the ion-electron system (eV)
  ---------------------------------------------------
  alpha Z        PSCENC =         9.41034931
  Ewald energy   TEWEN  =      1136.88063879
  -Hartree energ DENC   =     -1756.29969270
  -exchange      EXHF   =         0.00000000
  -V(xc)+E(xc)   XCENC  =      -237.68678629
  PAW double counting   =      1131.50316098     -856.59444442
  entropy T*S    EENTRO =        -0.00000000
  eigenvalues    EBANDS =      -145.90021421
  atomic energy  EATOM  =       702.42789710
  Solvation  Ediel_sol  =         0.00000000
  ---------------------------------------------------
  free energy    TOTEN  =       -16.25909143 eV

  energy without entropy =      -16.25909143  energy(sigma->0) =      -16.25909143


--------------------------------------------------------------------------------------------------------




--------------------------------------- Iteration      1(  11)  ---------------------------------------


    POTLOK:  cpu time    0.0364: real time    0.0365
    SETDIJ:  cpu time    0.0031: real time    0.0031
     EDDAV:  cpu time    2.6482: real time    2.6569
       DOS:  cpu time    0.0032: real time    0.0033
    CHARGE:  cpu time    0.1840: real time    0.1842
    MIXING:  cpu time    0.0014: real time    0.0014
    --------------------------------------------
      LOOP:  cpu time    2.8764: real time    2.8855

 eigenvalue-minimisations  :  4328
 total energy-change (2. order) : 0.7157088E-03  (-0.1189137E-03)
 number of electron      20.0000001 magnetization 
 augmentation part       -4.4799328 magnetization 

 Broyden mixing:
  rms(total) = 0.31856E-02    rms(broyden)= 0.31856E-02
  rms(prec ) = 0.49702E-02
  weight for this iteration     100.00

 eigenvalues of (default mixing * dielectric matrix)
  average eigenvalue GAMMA=   1.8205
  3.3854  2.4165  1.8662  1.1810  1.1810  0.8932

 Free energy of the ion-electron system (eV)
  ---------------------------------------------------
  alpha Z        PSCENC =         9.41034931
  Ewald energy   TEWEN  =      1136.88063879
  -Hartree energ DENC   =     -1757.84663207
  -exchange      EXHF   =         0.00000000
  -V(xc)+E(xc)   XCENC  =      -237.65615446
  PAW double counting   =      1132.90609590     -857.99633755
  entropy T*S    EENTRO =        -0.00000000
  eigenvalues    EBANDS =      -144.38423275
  atomic energy  EATOM  =       702.42789710
  Solvation  Ediel_sol  =         0.00000000
  ---------------------------------------------------
  free energy    TOTEN  =       -16.25837572 eV

  energy without entropy =      -16.25837572  energy(sigma->0) =      -16.25837572


--------------------------------------------------------------------------------------------------------




--------------------------------------- Iteration      1(  12)  ---------------------------------------


    POTLOK:  cpu time    0.0366: real time    0.0368
    SETDIJ:  cpu time    0.0031: real time    0.0031
     EDDAV:  cpu time    2.3366: real time    2.3456
       DOS:  cpu time    0.0031: real time    0.0031
    CHARGE:  cpu time    0.1858: real time    0.1861
    MIXING:  cpu time    0.0014: real time    0.0014
    --------------------------------------------
      LOOP:  cpu time    2.5665: real time    2.5760

 eigenvalue-minimisations  :  3608
 total energy-change (2. order) :-0.8046899E-03  (-0.2714324E-04)
 number of electron      20.0000001 magnetization 
 augmentation part       -4.4792964 magnetization 

 Broyden mixing:
  rms(total) = 0.16658E-02    rms(broyden)= 0.16658E-02
  rms(prec ) = 0.26949E-02
  weight for this iteration     100.00

 eigenvalues of (default mixing * dielectric matrix)
  average eigenvalue GAMMA=   2.0596
  4.6036  3.0528  2.5015  1.1931  1.1931  1.0229  0.8501

 Free energy of the ion-electron system (eV)
  ---------------------------------------------------
  alpha Z        PSCENC =         9.41034931
  Ewald energy   TEWEN  =      1136.88063879
  -Hartree energ DENC   =     -1758.49647380
  -exchange      EXHF   =         0.00000000
  -V(xc)+E(xc)   XCENC  =      -237.64673875
  PAW double counting   =      1134.33990034     -859.43235280
  entropy T*S    EENTRO =        -0.00000000
  eigenvalues    EBANDS =      -143.74240060
  atomic energy  EATOM  =       702.42789710
  Solvation  Ediel_sol  =         0.00000000
  ---------------------------------------------------
  free energy    TOTEN  =       -16.25918041 eV

  energy without entropy =      -16.25918041  energy(sigma->0) =      -16.25918041


--------------------------------------------------------------------------------------------------------




--------------------------------------- Iteration      1(  13)  ---------------------------------------


    POTLOK:  cpu time    0.0369: real time    0.0372
    SETDIJ:  cpu time    0.0031: real time    0.0031
     EDDAV:  cpu time    2.3868: real time    2.3944
       DOS:  cpu time    0.0032: real time    0.0032
    CHARGE:  cpu time    0.1850: real time    0.1851
    MIXING:  cpu time    0.0016: real time    0.0016
    --------------------------------------------
      LOOP:  cpu time    2.6165: real time    2.6245

 eigenvalue-minimisations  :  3716
 total energy-change (2. order) :-0.4377710E-03  (-0.7545038E-05)
 number of electron      20.0000001 magnetization 
 augmentation part       -4.4790849 magnetization 

 Broyden mixing:
  rms(total) = 0.10807E-02    rms(broyden)= 0.10807E-02
  rms(prec ) = 0.14724E-02
  weight for this iteration     100.00

 eigenvalues of (default mixing * dielectric matrix)
  average eigenvalue GAMMA=   2.2373
  5.6753  3.2802  2.5013  2.1577  1.1505  1.1505  1.0712  0.9119

 Free energy of the ion-electron system (eV)
  ---------------------------------------------------
  alpha Z        PSCENC =         9.41034931
  Ewald energy   TEWEN  =      1136.88063879
  -Hartree energ DENC   =     -1758.91137488
  -exchange      EXHF   =         0.00000000
  -V(xc)+E(xc)   XCENC  =      -237.64496635
  PAW double counting   =      1133.44215709     -858.53366438
  entropy T*S    EENTRO =        -0.00000000
  eigenvalues    EBANDS =      -143.33065486
  atomic energy  EATOM  =       702.42789710
  Solvation  Ediel_sol  =         0.00000000
  ---------------------------------------------------
  free energy    TOTEN  =       -16.25961818 eV

  energy without entropy =      -16.25961818  energy(sigma->0) =      -16.25961818


--------------------------------------------------------------------------------------------------------




--------------------------------------- Iteration      1(  14)  ---------------------------------------


    POTLOK:  cpu time    0.0378: real time    0.0381
    SETDIJ:  cpu time    0.0030: real time    0.0030
     EDDAV:  cpu time    2.5058: real time    2.5150
       DOS:  cpu time    0.0031: real time    0.0031
    CHARGE:  cpu time    0.1852: real time    0.1854
    MIXING:  cpu time    0.0014: real time    0.0014
    --------------------------------------------
      LOOP:  cpu time    2.7363: real time    2.7460

 eigenvalue-minimisations  :  3932
 total energy-change (2. order) :-0.2688375E-03  (-0.4051558E-05)
 number of electron      20.0000001 magnetization 
 augmentation part       -4.4790544 magnetization 

 Broyden mixing:
  rms(total) = 0.38541E-03    rms(broyden)= 0.38541E-03
  rms(prec ) = 0.60775E-03
  weight for this iteration     100.00

 eigenvalues of (default mixing * dielectric matrix)
  average eigenvalue GAMMA=   2.2468
  6.7535  3.0764  2.5348  2.5348  1.1743  1.1743  1.0122  1.0122  0.9489

 Free energy of the ion-electron system (eV)
  ---------------------------------------------------
  alpha Z        PSCENC =         9.41034931
  Ewald energy   TEWEN  =      1136.88063879
  -Hartree energ DENC   =     -1759.11932429
  -exchange      EXHF   =         0.00000000
  -V(xc)+E(xc)   XCENC  =      -237.64488574
  PAW double counting   =      1133.64754917     -858.73853941
  entropy T*S    EENTRO =        -0.00000000
  eigenvalues    EBANDS =      -143.12357195
  atomic energy  EATOM  =       702.42789710
  Solvation  Ediel_sol  =         0.00000000
  ---------------------------------------------------
  free energy    TOTEN  =       -16.25988702 eV

  energy without entropy =      -16.25988702  energy(sigma->0) =      -16.25988702


--------------------------------------------------------------------------------------------------------




--------------------------------------- Iteration      1(  15)  ---------------------------------------


    POTLOK:  cpu time    0.0378: real time    0.0380
    SETDIJ:  cpu time    0.0031: real time    0.0031
     EDDAV:  cpu time    2.4517: real time    2.4600
       DOS:  cpu time    0.0032: real time    0.0032
    CHARGE:  cpu time    0.1858: real time    0.1867
    MIXING:  cpu time    0.0015: real time    0.0015
    --------------------------------------------
      LOOP:  cpu time    2.6830: real time    2.6924

 eigenvalue-minimisations  :  3868
 total energy-change (2. order) :-0.5914320E-04  (-0.1995015E-06)
 number of electron      20.0000001 magnetization 
 augmentation part       -4.4790701 magnetization 

 Broyden mixing:
  rms(total) = 0.31098E-03    rms(broyden)= 0.31098E-03
  rms(prec ) = 0.48682E-03
  weight for this iteration     100.00

 eigenvalues of (default mixing * dielectric matrix)
  average eigenvalue GAMMA=   2.3595
  6.5639  4.2972  2.7018  2.7018  1.9826  1.1363  1.1363  1.2026  0.9365  0.9365

 Free energy of the ion-electron system (eV)
  ---------------------------------------------------
  alpha Z        PSCENC =         9.41034931
  Ewald energy   TEWEN  =      1136.88063879
  -Hartree energ DENC   =     -1759.13562047
  -exchange      EXHF   =         0.00000000
  -V(xc)+E(xc)   XCENC  =      -237.64528234
  PAW double counting   =      1133.43747670     -858.52831069
  entropy T*S    EENTRO =        -0.00000000
  eigenvalues    EBANDS =      -143.10709456
  atomic energy  EATOM  =       702.42789710
  Solvation  Ediel_sol  =         0.00000000
  ---------------------------------------------------
  free energy    TOTEN  =       -16.25994616 eV

  energy without entropy =      -16.25994616  energy(sigma->0) =      -16.25994616


--------------------------------------------------------------------------------------------------------




--------------------------------------- Iteration      1(  16)  ---------------------------------------


    POTLOK:  cpu time    0.0370: real time    0.0372
    SETDIJ:  cpu time    0.0031: real time    0.0031
     EDDAV:  cpu time    2.2996: real time    2.3076
       DOS:  cpu time    0.0032: real time    0.0032
    CHARGE:  cpu time    0.1949: real time    0.1952
    MIXING:  cpu time    0.0016: real time    0.0016
    --------------------------------------------
      LOOP:  cpu time    2.5394: real time    2.5478

 eigenvalue-minimisations  :  3522
 total energy-change (2. order) :-0.4421432E-04  (-0.8185610E-06)
 number of electron      20.0000001 magnetization 
[...]
      3      -8.7199      2.00000
      4      -8.5467      2.00000
      5      -6.3462      2.00000
      6      -5.5321      2.00000
      7      -5.0914      2.00000
      8      -4.3588      2.00000
      9      -3.9058      2.00000
     10      -3.3969      2.00000
     11       0.4720      0.00000
     12       1.2781      0.00000
     13       1.5052      0.00000
     14       2.1059      0.00000

 k-point    95 :      -0.2667    0.4000    0.0000
  band No.  band energies     occupation 
      1     -14.5776      2.00000
      2     -14.3422      2.00000
      3      -8.8811      2.00000
      4      -8.6439      2.00000
      5      -6.0605      2.00000
      6      -5.1254      2.00000
      7      -4.8880      2.00000
      8      -4.1182      2.00000
      9      -3.8153      2.00000
     10      -3.1030      2.00000
     11       0.0706      0.00000
     12       1.0228      0.00000
     13       1.0808      0.00000
     14       1.5111      0.00000

 k-point    96 :      -0.2000    0.4000    0.0000
  band No.  band energies     occupation 
      1     -14.6447      2.00000
      2     -14.3600      2.00000
      3      -9.0286      2.00000
      4      -8.7375      2.00000
      5      -5.6559      2.00000
      6      -4.8518      2.00000
      7      -4.6071      2.00000
      8      -3.9918      2.00000
      9      -3.4878      2.00000
     10      -2.7364      2.00000
     11      -0.3961      0.00000
     12       0.4592      0.00000
     13       0.6830      0.00000
     14       1.1728      0.00000

 k-point    97 :      -0.1333    0.4000    0.0000
  band No.  band energies     occupation 
      1     -14.6990      2.00000
      2     -14.3781      2.00000
      3      -9.1431      2.00000
      4      -8.8132      2.00000
      5      -5.1712      2.00000
      6      -4.7953      2.00000
      7      -4.1926      2.00000
      8      -3.9486      2.00000
      9      -2.9754      2.00000
     10      -2.5330      2.00000
     11      -0.6518      0.00000
     12      -0.2462      0.00000
     13       0.4768      0.00000
     14       0.7165      0.00000

 k-point    98 :      -0.0667    0.4000    0.0000
  band No.  band energies     occupation 
      1     -14.7349      2.00000
      2     -14.3908      2.00000
      3      -9.2136      2.00000
      4      -8.8609      2.00000
      5      -4.7969      2.00000
      6      -4.6666      2.00000
      7      -3.9765      2.00000
      8      -3.8061      2.00000
      9      -2.7078      2.00000
     10      -2.4550      2.00000
     11      -0.8128      0.00000
     12      -0.4020      0.00000
     13       0.1765      0.00000
     14       0.3637      0.00000

 k-point    99 :      -0.0000    0.4667    0.0000
  band No.  band energies     occupation 
      1     -14.6064      2.00000
      2     -14.4846      2.00000
      3      -9.2167      2.00000
      4      -9.0932      2.00000
      5      -4.5664      2.00000
      6      -4.3642      2.00000
      7      -3.9300      2.00000
      8      -3.7467      2.00000
      9      -2.6534      2.00000
     10      -2.3396      2.00000
     11      -0.9433      0.00000
     12      -0.5283      0.00000
     13      -0.0842      0.00000
     14       0.1114      0.00000

 k-point   100 :       0.0667    0.4667    0.0000
  band No.  band energies     occupation 
      1     -14.5991      2.00000
      2     -14.4754      2.00000
      3      -9.1888      2.00000
      4      -9.0688      2.00000
      5      -4.5908      2.00000
      6      -4.4691      2.00000
      7      -4.0574      2.00000
      8      -3.9477      2.00000
      9      -2.6103      2.00000
     10      -2.4630      2.00000
     11      -0.8469      0.00000
     12      -0.7387      0.00000
     13       0.2456      0.00000
     14       0.5665      0.00000

 k-point   101 :       0.1333    0.4667    0.0000
  band No.  band energies     occupation 
      1     -14.5739      2.00000
      2     -14.4530      2.00000
      3      -9.1094      2.00000
      4      -8.9993      2.00000
      5      -4.8702      2.00000
      6      -4.7238      2.00000
      7      -4.2744      2.00000
      8      -4.1658      2.00000
      9      -2.8982      2.00000
     10      -2.7429      2.00000
     11      -0.6152      0.00000
     12      -0.3756      0.00000
     13       0.7693      0.00000
     14       0.8391      0.00000

 k-point   102 :       0.2000    0.4667    0.0000
  band No.  band energies     occupation 
      1     -14.5343      2.00000
      2     -14.4211      2.00000
      3      -8.9819      2.00000
      4      -8.8899      2.00000
      5      -5.3702      2.00000
      6      -5.0841      2.00000
      7      -4.4509      2.00000
      8      -4.2541      2.00000
      9      -3.3909      2.00000
     10      -3.1030      2.00000
     11      -0.1191      0.00000
     12       0.2661      0.00000
     13       0.9709      0.00000
     14       1.2053      0.00000

 k-point   103 :       0.2667    0.4667    0.0000
  band No.  band energies     occupation 
      1     -14.4859      2.00000
      2     -14.3853      2.00000
      3      -8.8146      2.00000
      4      -8.7506      2.00000
      5      -5.8351      2.00000
      6      -5.5059      2.00000
      7      -4.6453      2.00000
      8      -4.4355      2.00000
      9      -3.7250      2.00000
     10      -3.4157      2.00000
     11       0.4034      0.00000
     12       0.7910      0.00000
     13       1.3239      0.00000
     14       1.5904      0.00000

 k-point   104 :       0.3333    0.4667    0.0000
  band No.  band energies     occupation 
      1     -14.4356      2.00000
      2     -14.3528      2.00000
      3      -8.6242      2.00000
      4      -8.5981      2.00000
      5      -6.2170      2.00000
      6      -5.8837      2.00000
      7      -4.9365      2.00000
      8      -4.7249      2.00000
      9      -3.8387      2.00000
     10      -3.5769      2.00000
     11       0.7718      0.00000
     12       1.0540      0.00000
     13       1.8303      0.00000
     14       2.1451      0.00000

 k-point   105 :       0.4000    0.4667    0.0000
  band No.  band energies     occupation 
      1     -14.3912      2.00000
      2     -14.3309      2.00000
      3      -8.4602      2.00000
      4      -8.4434      2.00000
      5      -6.4814      2.00000
      6      -6.1917      2.00000
      7      -5.1870      2.00000
      8      -5.0209      2.00000
      9      -3.8391      2.00000
     10      -3.6464      2.00000
     11       1.0161      0.00000
     12       1.1702      0.00000
     13       2.3069      0.00000
     14       2.5990      0.00000

 k-point   106 :       0.4667    0.4667    0.0000
  band No.  band energies     occupation 
      1     -14.3597      2.00000
      2     -14.3253      2.00000
      3      -8.3760      2.00000
      4      -8.3273      2.00000
      5      -6.5866      2.00000
      6      -6.4077      2.00000
      7      -5.2892      2.00000
      8      -5.2282      2.00000
      9      -3.8053      2.00000
     10      -3.6885      2.00000
     11       1.1712      0.00000
     12       1.1958      0.00000
     13       2.5893      0.00000
     14       2.7818      0.00000

 k-point   107 :      -0.4667    0.4667    0.0000
  band No.  band energies     occupation 
      1     -14.3457      2.00000
      2     -14.3391      2.00000
      3      -8.3847      2.00000
      4      -8.3261      2.00000
      5      -6.5030      2.00000
      6      -6.4911      2.00000
      7      -5.2938      2.00000
      8      -5.2140      2.00000
      9      -3.7651      2.00000
     10      -3.7277      2.00000
     11       1.1387      0.00000
     12       1.2298      0.00000
     13       2.6530      0.00000
     14       2.6838      0.00000

 k-point   108 :      -0.4000    0.4667    0.0000
  band No.  band energies     occupation 
      1     -14.3714      2.00000
      2     -14.3500      2.00000
      3      -8.4915      2.00000
      4      -8.4292      2.00000
      5      -6.4127      2.00000
      6      -6.2583      2.00000
      7      -5.1996      2.00000
      8      -4.9871      2.00000
      9      -3.7621      2.00000
     10      -3.7195      2.00000
     11       1.0009      0.00000
     12       1.1884      0.00000
     13       2.3678      0.00000
     14       2.5112      0.00000

 k-point   109 :      -0.3333    0.4667    0.0000
  band No.  band energies     occupation 
      1     -14.4175      2.00000
      2     -14.3700      2.00000
      3      -8.6575      2.00000
      4      -8.5843      2.00000
      5      -6.1834      2.00000
      6      -5.9096      2.00000
      7      -4.9705      2.00000
      8      -4.6733      2.00000
      9      -3.7647      2.00000
     10      -3.6395      2.00000
     11       0.7795      0.00000
     12       1.0492      0.00000
     13       1.8833      0.00000
     14       2.0788      0.00000

 k-point   110 :      -0.2667    0.4667    0.0000
  band No.  band energies     occupation 
      1     -14.4704      2.00000
      2     -14.3998      2.00000
      3      -8.8358      2.00000
      4      -8.7473      2.00000
      5      -5.8326      2.00000
      6      -5.4943      2.00000
      7      -4.6942      2.00000
      8      -4.3851      2.00000
      9      -3.6661      2.00000
     10      -3.4474      2.00000
     11       0.4330      0.00000
     12       0.7609      0.00000
     13       1.3558      0.00000
     14       1.5543      0.00000

 k-point   111 :      -0.2000    0.4667    0.0000
  band No.  band energies     occupation 
      1     -14.5221      2.00000
      2     -14.4323      2.00000
      3      -8.9947      2.00000
      4      -8.8916      2.00000
      5      -5.3925      2.00000
      6      -5.0448      2.00000
      7      -4.4900      2.00000
      8      -4.2234      2.00000
      9      -3.3704      2.00000
     10      -3.0837      2.00000
     11      -0.0837      0.00000
     12       0.2246      0.00000
     13       0.9866      0.00000
     14       1.1929      0.00000

 k-point   112 :      -0.1333    0.4667    0.0000
  band No.  band energies     occupation 
      1     -14.5655      2.00000
      2     -14.4607      2.00000
      3      -9.1165      2.00000
      4      -9.0021      2.00000
      5      -4.9103      2.00000
      6      -4.6839      2.00000
      7      -4.2863      2.00000
      8      -4.1474      2.00000
      9      -2.9155      2.00000
     10      -2.6813      2.00000
     11      -0.5942      0.00000
     12      -0.4040      0.00000
     13       0.7804      0.00000
     14       0.8499      0.00000

 k-point   113 :      -0.0667    0.4667    0.0000
  band No.  band energies     occupation 
      1     -14.5948      2.00000
      2     -14.4793      2.00000
      3      -9.1920      2.00000
      4      -9.0707      2.00000
      5      -4.5776      2.00000
      6      -4.5049      2.00000
      7      -4.0504      2.00000
      8      -3.9305      2.00000
      9      -2.5458      2.00000
     10      -2.4996      2.00000
     11      -0.8506      0.00000
     12      -0.7246      0.00000
     13       0.2568      0.00000
     14       0.5316      0.00000


--------------------------------------------------------------------------------------------------------


 soft charge-density along one line, spin component           1
         0         1         2         3         4         5         6         7         8         9
 total charge-density along one line
 
 pseudopotential strength for first ion, spin component:           1
 30.102 -23.447   0.004  -0.090   0.039   0.006  -0.142   0.062
-23.447  28.125  -0.002   0.051  -0.022  -0.003   0.083  -0.036
  0.004  -0.002   6.335   0.000   0.000   9.801   0.000   0.000
 -0.090   0.051   0.000   6.332   0.002   0.000   9.796   0.003
  0.039  -0.022   0.000   0.002   6.334   0.000   0.003   9.800
  0.006  -0.003   9.801   0.000   0.000  15.233   0.000   0.000
 -0.142   0.083   0.000   9.796   0.003   0.000  15.226   0.004
  0.062  -0.036   0.000   0.003   9.800   0.000   0.004  15.231
  0.000  -0.000   0.008   0.000   0.001   0.012   0.000   0.001
  0.000  -0.000  -0.020   0.001   0.000  -0.031   0.001   0.000
 -0.003   0.004  -0.000  -0.023  -0.005  -0.001  -0.035  -0.007
  0.003  -0.002   0.000   0.009  -0.020   0.000   0.015  -0.031
 -0.001   0.000  -0.001  -0.000   0.009  -0.001  -0.000   0.015
 total augmentation occupancy for first ion, spin component:           1
  2.023  -0.015  -0.010   0.239  -0.100   0.002  -0.043   0.018   0.002   0.000   0.022   0.003  -0.000
 -0.015   0.009   0.003  -0.073   0.031  -0.001   0.019  -0.007  -0.000   0.000  -0.002   0.001  -0.001
 -0.010   0.003   1.507   0.004   0.001  -0.405  -0.003  -0.000   0.140  -0.044  -0.010  -0.001   0.002
  0.239  -0.073   0.004   1.842   0.002  -0.003  -0.484  -0.017  -0.001  -0.004  -0.266  -0.022  -0.001
 -0.100   0.031   0.001   0.002   1.488  -0.000  -0.017  -0.392   0.016  -0.001  -0.091  -0.047  -0.007
  0.002  -0.001  -0.405  -0.003  -0.000   0.117   0.001   0.000  -0.037   0.012   0.003   0.000  -0.001
 -0.043   0.019  -0.003  -0.484  -0.017   0.001   0.139   0.008   0.000   0.001   0.074   0.006   0.000
  0.018  -0.007  -0.000  -0.017  -0.392   0.000   0.008   0.112  -0.004   0.000   0.024   0.013   0.002
  0.002  -0.000   0.140  -0.001   0.016  -0.037   0.000  -0.004   0.074   0.000   0.001   0.000   0.000
  0.000   0.000  -0.044  -0.004  -0.001   0.012   0.001   0.000   0.000   0.021   0.001   0.000  -0.000
  0.022  -0.002  -0.010  -0.266  -0.091   0.003   0.074   0.024   0.001   0.001   0.077   0.007   0.002
  0.003   0.001  -0.001  -0.022  -0.047   0.000   0.006   0.013   0.000   0.000   0.007   0.022   0.001
 -0.000  -0.001   0.002  -0.001  -0.007  -0.001   0.000   0.002   0.000  -0.000   0.002   0.001   0.017


------------------------ aborting loop because EDIFF is reached ----------------------------------------


    CHARGE:  cpu time    0.1858: real time    0.1861
    FORLOC:  cpu time    0.0017: real time    0.0017
    FORNL :  cpu time    0.3161: real time    0.3165
    STRESS:  cpu time    0.6084: real time    0.6098
    FORCOR:  cpu time    0.0386: real time    0.0387
    FORHAR:  cpu time    0.0100: real time    0.0100
    MIXING:  cpu time    0.0009: real time    0.0009
    OFIELD:  cpu time    0.0000: real time    0.0000

  FORCE on cell =-STRESS in cart. coord.  units (eV):
  Direction    XX          YY          ZZ          XY          YZ          ZX
  --------------------------------------------------------------------------------------
  Alpha Z     9.41035     9.41035     9.41035
  Ewald    1589.50641  1595.13679 -2045.58227    -1.63827     0.00000     0.00000
  Hartree  1711.66614  1713.91767 -1664.43577    -0.57942    -0.00000     0.00000
  E(xc)     -77.63184   -77.65211   -78.83974    -0.01963     0.00000     0.00000
  Local   -3553.84985 -3561.02159  3455.25287     2.26332    -0.00000     0.00000
  n-local   162.43749   162.67002   167.15227     0.04627     0.00000     0.00000
  augment   -31.87538   -31.80901   -32.80215    -0.00435    -0.00000     0.00000
  Kinetic   190.09738   189.16695   189.84401    -0.26444     0.00000    -0.00000
  Fock        0.00000     0.00000     0.00000     0.00000     0.00000     0.00000
  -------------------------------------------------------------------------------------
  Total      -0.23930    -0.18092    -0.00042    -0.19654     0.00000     0.00000
  in kB      -1.00902    -0.76285    -0.00177    -0.82871     0.00000     0.00000
  external pressure =       -0.59 kB  Pullay stress =        0.00 kB


 VOLUME and BASIS-vectors are now :
 -----------------------------------------------------------------------------
  energy-cutoff  :      600.00
  volume of cell :      379.98
      direct lattice vectors                 reciprocal lattice vectors
     4.426180333  0.021911784  0.000000000     0.225934028 -0.001129670  0.000000000
     0.021462389  4.292477857  0.000000000    -0.001153324  0.232971441  0.000000000
     0.000000000  0.000000000 20.000000000     0.000000000  0.000000000  0.050000000

  length of vectors
     4.426234569  4.292531513 20.000000000     0.225936853  0.232974296  0.050000000


 FORCES acting on ions
    electron-ion (+dipol)            ewald-force                    non-local-force                 convergence-correction
 -----------------------------------------------------------------------------------------------
   0.497E+01 0.480E+00 -.143E+03   -.668E+01 -.657E+00 0.147E+03   0.171E+01 0.177E+00 -.384E+01   -.249E-03 -.401E-03 0.155E-03
   0.497E+01 0.480E+00 0.143E+03   -.668E+01 -.657E+00 -.147E+03   0.171E+01 0.177E+00 0.384E+01   -.249E-03 -.401E-03 -.155E-03
   -.617E+01 -.621E+00 -.204E+03   0.668E+01 0.657E+00 0.206E+03   -.517E+00 -.411E-01 -.204E+01   0.438E-02 0.495E-02 0.136E-02
   -.617E+01 -.621E+00 0.204E+03   0.668E+01 0.657E+00 -.206E+03   -.517E+00 -.411E-01 0.204E+01   0.438E-02 0.495E-02 -.136E-02
 -----------------------------------------------------------------------------------------------
   -.239E+01 -.281E+00 -.213E-06   -.266E-14 -.167E-14 0.000E+00   0.238E+01 0.272E+00 0.000E+00   0.827E-02 0.909E-02 -.703E-10
 
 
 POSITION                                       TOTAL-FORCE (eV/Angst)
 -----------------------------------------------------------------------------------
      2.60705      3.24930     11.37661         0.000397      0.000087      0.000090
      0.38322      1.09211      8.62339         0.000397      0.000087     -0.000090
      0.13255      1.05663     11.33608        -0.000397     -0.000087     -0.000362
      2.35637      3.21382      8.66392        -0.000397     -0.000087      0.000362
 -----------------------------------------------------------------------------------
    total drift:                                0.000582      0.000445     -0.000000


--------------------------------------------------------------------------------------------------------



  FREE ENERGIE OF THE ION-ELECTRON SYSTEM (eV)
  ---------------------------------------------------
  free  energy   TOTEN  =       -16.26219538 eV

  energy  without entropy=      -16.26219538  energy(sigma->0) =      -16.26219538
 
 d Force = 0.1184190E-04[ 0.243E-05, 0.213E-04]  d Energy = 0.1313606E-04-0.129E-05
 d Force =-0.1169957E-01[-0.119E-01,-0.115E-01]  d Ewald  =-0.1169946E-01-0.111E-06


--------------------------------------------------------------------------------------------------------


    POTLOK:  cpu time    0.0400: real time    0.0401


--------------------------------------------------------------------------------------------------------




--------------------------------------------------------------------------------------------------------


  
 reached required accuracy - stopping structural energy minimisation
 writing wavefunctions
     LOOP+:  cpu time   10.0912: real time   10.6218
    4ORBIT:  cpu time    0.0000: real time    0.0000

 total amount of memory used by VASP MPI-rank0    64198. kBytes
=======================================================================

   base      :      30000. kBytes
   nonl-proj :      12938. kBytes
   fftplans  :       2678. kBytes
   grid      :       4349. kBytes
   one-center:          8. kBytes
   wavefun   :      14225. kBytes
 
  
  
 General timing and accounting informations for this job:
 ========================================================
  
                  Total CPU time used (sec):      259.622
                            User time (sec):      258.937
                          System time (sec):        0.685
                         Elapsed time (sec):      272.177
  
                   Maximum memory used (kb):      233252.
                   Average memory used (kb):           0.
  
                          Minor page faults:        66167
                          Major page faults:          145
                 Voluntary context switches:        10641
