 vasp.5.4.4.18Apr17-6-g9f103f2a35 (build Jan 16 2023 14:10:27) complex          
  
 executed on             LinuxIFC date 2024.10.16  17:24:15
 running on  128 total cores
 distrk:  each k-point on  128 cores,    1 groups
 distr:  one band on NCORES_PER_BAND=  32 cores,    4 groups


--------------------------------------------------------------------------------------------------------


 INCAR:
 POTCAR:    PAW_PBE S 06Sep2000                   
 POTCAR:    PAW_PBE Pb 08Apr2002                  

 ----------------------------------------------------------------------------- 
|                                                                             |
|           W    W    AA    RRRRR   N    N  II  N    N   GGGG   !!!           |
|           W    W   A  A   R    R  NN   N  II  NN   N  G    G  !!!           |
|           W    W  A    A  R    R  N N  N  II  N N  N  G       !!!           |
|           W WW W  AAAAAA  RRRRR   N  N N  II  N  N N  G  GGG   !            |
|           WW  WW  A    A  R   R   N   NN  II  N   NN  G    G                |
|           W    W  A    A  R    R  N    N  II  N    N   GGGG   !!!           |
|                                                                             |
|      For optimal performance we recommend to set                            |
|        NCORE= 4 - approx SQRT( number of cores)                             |
|      NCORE specifies how many cores store one orbital (NPAR=cpu/NCORE).     |
|      This setting can  greatly improve the performance of VASP for DFT.     |
|      The default,   NCORE=1            might be grossly inefficient         |
|      on modern multi-core architectures or massively parallel machines.     |
|      Do your own testing !!!!                                               |
|      Unfortunately you need to use the default for GW and RPA calculations. |
|      (for HF NCORE is supported but not extensively tested yet)             |
|                                                                             |
 ----------------------------------------------------------------------------- 

 POTCAR:    PAW_PBE S 06Sep2000                   
   VRHFIN =S : s2p4                                                             
   LEXCH  = PE                                                                  
   EATOM  =   276.8230 eV,   20.3459 Ry                                         
                                                                                
   TITEL  = PAW_PBE S 06Sep2000                                                 
   LULTRA =        F    use ultrasoft PP ?                                      
   IUNSCR =        1    unscreen: 0-lin 1-nonlin 2-no                           
   RPACOR =    1.500    partial core radius                                     
   POMASS =   32.066; ZVAL   =    6.000    mass and valenz                      
   RCORE  =    1.900    outmost cutoff radius                                   
   RWIGS  =    2.200; RWIGS  =    1.164    wigner-seitz radius (au A)           
   ENMAX  =  258.689; ENMIN  =  194.016 eV                                      
   ICORE  =        2    local potential                                         
   LCOR   =        T    correct aug charges                                     
   LPAW   =        T    paw PP                                                  
   EAUG   =  335.092                                                            
   DEXC   =    0.000                                                            
   RMAX   =    1.942    core radius for proj-oper                               
   RAUG   =    1.300    factor for augmentation sphere                          
   RDEP   =    1.954    radius for radial grids                                 
   RDEPT  =    1.744    core radius for aug-charge                              
                                                                                
   Atomic configuration                                                         
    6 entries                                                                   
     n  l   j            E        occ.                                          
     1  0  0.50     -2405.8406   2.0000                                         
     2  0  0.50      -211.7007   2.0000                                         
     2  1  1.50      -156.4958   6.0000                                         
     3  0  0.50       -17.2562   2.0000                                         
     3  1  0.50        -7.0085   4.0000                                         
     3  2  1.50        -6.8029   0.0000                                         
   Description                                                                  
     l       E           TYP  RCUT    TYP  RCUT                                 
     0    -17.2561641     23  1.900                                             
     0    -15.8743224     23  1.900                                             
     1     -7.0085400     23  1.900                                             
     1     -2.7779785     23  1.900                                             
     2     -6.8029130     23  1.900                                             
  local pseudopotential read in
  partial core-charges read in
  partial kinetic energy density read in
  atomic valenz-charges read in
  non local Contribution for L=           0  read in
    real space projection operators read in
  non local Contribution for L=           0  read in
    real space projection operators read in
  non local Contribution for L=           1  read in
    real space projection operators read in
  non local Contribution for L=           1  read in
    real space projection operators read in
    PAW grid and wavefunctions read in
 
   number of l-projection  operators is LMAX  =           4
   number of lm-projection operators is LMMAX =           8
 
 POTCAR:    PAW_PBE Pb 08Apr2002                  
   VRHFIN =Pb:                                                                  
   LEXCH  = PE                                                                  
   EATOM  =    96.9868 eV,    7.1283 Ry                                         
                                                                                
   TITEL  = PAW_PBE Pb 08Apr2002                                                
   LULTRA =        F    use ultrasoft PP ?                                      
   IUNSCR =        1    unscreen: 0-lin 1-nonlin 2-no                           
   RPACOR =    2.200    partial core radius                                     
   POMASS =  207.200; ZVAL   =    4.000    mass and valenz                      
   RCORE  =    3.100    outmost cutoff radius                                   
   RWIGS  =    3.260; RWIGS  =    1.725    wigner-seitz radius (au A)           
   ENMAX  =   97.973; ENMIN  =   73.480 eV                                      
   ICORE  =        3    local potential                                         
   LCOR   =        T    correct aug charges                                     
   LPAW   =        T    paw PP                                                  
   EAUG   =  234.873                                                            
   DEXC   =    0.000                                                            
   RMAX   =    3.158    core radius for proj-oper                               
   RAUG   =    1.300    factor for augmentation sphere                          
   RDEP   =    3.202    radius for radial grids                                 
   RDEPT  =    2.659    core radius for aug-charge                              
                                                                                
   Atomic configuration                                                         
   17 entries                                                                   
     n  l   j            E        occ.                                          
     1  0  0.50    -88091.8466   2.0000                                         
     2  0  0.50    -15753.4197   2.0000                                         
     2  1  1.50    -13508.1797   6.0000                                         
     3  0  0.50     -3781.7194   2.0000                                         
     3  1  1.50     -3138.2529   6.0000                                         
     3  2  2.50     -2483.2977  10.0000                                         
     4  0  0.50      -856.2895   2.0000                                         
     4  1  1.50      -645.4943   6.0000                                         
     4  2  2.50      -401.8768  10.0000                                         
     4  3  3.50      -132.9059  14.0000                                         
     5  0  0.50      -144.0950   2.0000                                         
     5  1  1.50       -85.7879   6.0000                                         
     5  2  2.50       -21.1769  10.0000                                         
     6  0  0.50       -12.0372   2.0000                                         
     6  1  1.50        -3.4971   2.0000                                         
     6  2  2.50        -1.3606   0.0000                                         
     5  3  2.50        -2.7212   0.0000                                         
   Description                                                                  
     l       E           TYP  RCUT    TYP  RCUT                                 
     0    -12.0371566     23  3.100                                             
     0    -13.3977392     23  3.100                                             
     1     -3.4971341     23  3.100                                             
     1     -5.4423304     23  3.100                                             
     2     -1.3605826     23  3.100                                             
     3     -1.3605826     23  3.100                                             
  local pseudopotential read in
  partial core-charges read in
  partial kinetic energy density read in
  atomic valenz-charges read in
  non local Contribution for L=           0  read in
    real space projection operators read in
  non local Contribution for L=           0  read in
    real space projection operators read in
  non local Contribution for L=           1  read in
    real space projection operators read in
  non local Contribution for L=           1  read in
    real space projection operators read in
  non local Contribution for L=           2  read in
    real space projection operators read in
    PAW grid and wavefunctions read in
 
   number of l-projection  operators is LMAX  =           5
   number of lm-projection operators is LMMAX =          13
 
 WARNING: PSMAXN for non-local potential too small
          PSMAXN should be >   12.5490833729506       NTYP=           2
  PAW_PBE S 06Sep2000                   :
 energy of atom  1       EATOM= -276.8230
 kinetic energy error for atom=    0.0009 (will be added to EATOM!!)
  PAW_PBE Pb 08Apr2002                  :
 energy of atom  2       EATOM=  -96.9868
 kinetic energy error for atom=    0.0000 (will be added to EATOM!!)
 
 
 POSCAR: S  Pb                                   
  positions in direct lattice
  No initial velocities read in
 exchange correlation table for  LEXCH =        8
   RHO(1)=    0.500       N(1)  =     2000
   RHO(2)=  100.500       N(2)  =     4000
 


--------------------------------------------------------------------------------------------------------


 ion  position               nearest neighbor table
   1  0.500  0.389  0.604-   7 2.82   7 2.82  11 2.90  10 3.15  10 3.15
   2  0.500  0.389  0.396-   8 2.82   8 2.82  11 2.90   9 3.15   9 3.15
   3  0.500  0.889  0.396-   9 2.82   9 2.82  12 2.90   8 3.15   8 3.15
   4  0.500  0.889  0.604-  10 2.82  10 2.82  12 2.90   7 3.15   7 3.15
   5  1.000  0.651  0.500-   9 2.89  10 2.89  11 2.96  11 2.96  12 3.00  12 3.00
   6  1.000  0.151  0.500-   8 2.89   7 2.89  12 2.96  12 2.96  11 3.00  11 3.00
   7  1.000  0.166  0.604-   1 2.82   1 2.82   6 2.89   4 3.15   4 3.15  11 4.10  11 4.10
   8  0.000  0.166  0.396-   2 2.82   2 2.82   6 2.89   3 3.15   3 3.15  11 4.10  11 4.10
   9  1.000  0.666  0.396-   3 2.82   3 2.82   5 2.89   2 3.15   2 3.15  12 4.10  12 4.10
  10  0.000  0.666  0.604-   4 2.82   4 2.82   5 2.89   1 3.15   1 3.15  12 4.10  12 4.10
  11  0.500  0.405  0.500-   2 2.90   1 2.90   5 2.96   5 2.96   6 3.00   6 3.00   8 4.10   7 4.10
                             8 4.10   7 4.10
  12  0.500  0.905  0.500-   3 2.90   4 2.90   6 2.96   6 2.96   5 3.00   5 3.00   9 4.10  10 4.10
                             9 4.10  10 4.10
 

IMPORTANT INFORMATION: All symmetrisations will be switched off!
NOSYMM: (Re-)initialisation of all symmetry stuff for point group C_1.

 
 
 KPOINTS: K-Spacing Value to Generate K-Mesh: 0.02

Automatic generation of k-mesh.
Space group operators:
 irot       det(A)        alpha          n_x          n_y          n_z        tau_x        tau_y        tau_z
    1     1.000000     0.000000     1.000000     0.000000     0.000000     0.000000     0.000000     0.000000
 
 Subroutine IBZKPT returns following result:
 ===========================================
 
 Found     25 irreducible k-points:
 
 Following reciprocal coordinates:
            Coordinates               Weight
  0.050000  0.000000  0.000000      2.000000
  0.150000  0.000000  0.000000      2.000000
  0.250000  0.000000  0.000000      2.000000
  0.350000  0.000000  0.000000      2.000000
  0.450000  0.000000  0.000000      2.000000
  0.050000  0.200000  0.000000      2.000000
  0.150000  0.200000  0.000000      2.000000
  0.250000  0.200000  0.000000      2.000000
  0.350000  0.200000  0.000000      2.000000
  0.450000  0.200000  0.000000      2.000000
 -0.450000  0.200000  0.000000      2.000000
 -0.350000  0.200000  0.000000      2.000000
 -0.250000  0.200000  0.000000      2.000000
 -0.150000  0.200000  0.000000      2.000000
 -0.050000  0.200000  0.000000      2.000000
  0.050000  0.400000  0.000000      2.000000
  0.150000  0.400000  0.000000      2.000000
  0.250000  0.400000  0.000000      2.000000
  0.350000  0.400000  0.000000      2.000000
  0.450000  0.400000  0.000000      2.000000
 -0.450000  0.400000  0.000000      2.000000
 -0.350000  0.400000  0.000000      2.000000
 -0.250000  0.400000  0.000000      2.000000
 -0.150000  0.400000  0.000000      2.000000
 -0.050000  0.400000  0.000000      2.000000
 
 Following cartesian coordinates:
            Coordinates               Weight
  0.011955  0.000000  0.000000      2.000000
  0.035866  0.000000  0.000000      2.000000
  0.059776  0.000000  0.000000      2.000000
  0.083687  0.000000  0.000000      2.000000
  0.107597  0.000000  0.000000      2.000000
  0.011955  0.023555  0.000000      2.000000
  0.035866  0.023555  0.000000      2.000000
  0.059776  0.023555  0.000000      2.000000
  0.083687  0.023555  0.000000      2.000000
  0.107597  0.023555  0.000000      2.000000
 -0.107597  0.023555  0.000000      2.000000
 -0.083687  0.023555  0.000000      2.000000
 -0.059776  0.023555  0.000000      2.000000
 -0.035866  0.023555  0.000000      2.000000
 -0.011955  0.023555  0.000000      2.000000
  0.011955  0.047110  0.000000      2.000000
  0.035866  0.047110  0.000000      2.000000
  0.059776  0.047110  0.000000      2.000000
  0.083687  0.047110  0.000000      2.000000
  0.107597  0.047110  0.000000      2.000000
 -0.107597  0.047110  0.000000      2.000000
 -0.083687  0.047110  0.000000      2.000000
 -0.059776  0.047110  0.000000      2.000000
 -0.035866  0.047110  0.000000      2.000000
 -0.011955  0.047110  0.000000      2.000000
 
 
 Subroutine IBZKPT_HF returns following result:
 ==============================================
 
 Found     50 k-points in 1st BZ
 the following     50 k-points will be used (e.g. in the exchange kernel)
 Following reciprocal coordinates:   # in IRBZ
  0.050000  0.000000  0.000000    0.02000000   1 t-inv F
  0.150000  0.000000  0.000000    0.02000000   2 t-inv F
  0.250000  0.000000  0.000000    0.02000000   3 t-inv F
  0.350000  0.000000  0.000000    0.02000000   4 t-inv F
  0.450000  0.000000  0.000000    0.02000000   5 t-inv F
  0.050000  0.200000  0.000000    0.02000000   6 t-inv F
  0.150000  0.200000  0.000000    0.02000000   7 t-inv F
  0.250000  0.200000  0.000000    0.02000000   8 t-inv F
  0.350000  0.200000  0.000000    0.02000000   9 t-inv F
  0.450000  0.200000  0.000000    0.02000000  10 t-inv F
 -0.450000  0.200000  0.000000    0.02000000  11 t-inv F
 -0.350000  0.200000  0.000000    0.02000000  12 t-inv F
 -0.250000  0.200000  0.000000    0.02000000  13 t-inv F
 -0.150000  0.200000  0.000000    0.02000000  14 t-inv F
 -0.050000  0.200000  0.000000    0.02000000  15 t-inv F
  0.050000  0.400000  0.000000    0.02000000  16 t-inv F
  0.150000  0.400000  0.000000    0.02000000  17 t-inv F
  0.250000  0.400000  0.000000    0.02000000  18 t-inv F
  0.350000  0.400000  0.000000    0.02000000  19 t-inv F
  0.450000  0.400000  0.000000    0.02000000  20 t-inv F
 -0.450000  0.400000  0.000000    0.02000000  21 t-inv F
 -0.350000  0.400000  0.000000    0.02000000  22 t-inv F
 -0.250000  0.400000  0.000000    0.02000000  23 t-inv F
 -0.150000  0.400000  0.000000    0.02000000  24 t-inv F
 -0.050000  0.400000  0.000000    0.02000000  25 t-inv F
 -0.050000  0.000000  0.000000    0.02000000   1 t-inv T
 -0.150000  0.000000  0.000000    0.02000000   2 t-inv T
 -0.250000  0.000000  0.000000    0.02000000   3 t-inv T
 -0.350000  0.000000  0.000000    0.02000000   4 t-inv T
 -0.450000  0.000000  0.000000    0.02000000   5 t-inv T
 -0.050000 -0.200000  0.000000    0.02000000   6 t-inv T
 -0.150000 -0.200000  0.000000    0.02000000   7 t-inv T
 -0.250000 -0.200000  0.000000    0.02000000   8 t-inv T
 -0.350000 -0.200000  0.000000    0.02000000   9 t-inv T
 -0.450000 -0.200000  0.000000    0.02000000  10 t-inv T
  0.450000 -0.200000  0.000000    0.02000000  11 t-inv T
  0.350000 -0.200000  0.000000    0.02000000  12 t-inv T
  0.250000 -0.200000  0.000000    0.02000000  13 t-inv T
  0.150000 -0.200000  0.000000    0.02000000  14 t-inv T
  0.050000 -0.200000  0.000000    0.02000000  15 t-inv T
 -0.050000 -0.400000  0.000000    0.02000000  16 t-inv T
 -0.150000 -0.400000  0.000000    0.02000000  17 t-inv T
 -0.250000 -0.400000  0.000000    0.02000000  18 t-inv T
 -0.350000 -0.400000  0.000000    0.02000000  19 t-inv T
 -0.450000 -0.400000  0.000000    0.02000000  20 t-inv T
  0.450000 -0.400000  0.000000    0.02000000  21 t-inv T
  0.350000 -0.400000  0.000000    0.02000000  22 t-inv T
  0.250000 -0.400000  0.000000    0.02000000  23 t-inv T
  0.150000 -0.400000  0.000000    0.02000000  24 t-inv T
  0.050000 -0.400000  0.000000    0.02000000  25 t-inv T


--------------------------------------------------------------------------------------------------------




 Dimension of arrays:
   k-points           NKPTS =     25   k-points in BZ     NKDIM =     25   number of bands    NBANDS=     40
   number of dos      NEDOS =    301   number of ions     NIONS =     12
   non local maximal  LDIM  =      5   non local SUM 2l+1 LMDIM =     13
   total plane-waves  NPLWV = 564480
   max r-space proj   IRMAX =      1   max aug-charges    IRDMAX=  65589
   dimension x,y,z NGX =    36 NGY =   70 NGZ =  224
   dimension x,y,z NGXF=    72 NGYF=  140 NGZF=  448
   support grid    NGXF=    72 NGYF=  140 NGZF=  448
   ions per type =               6   6
   NGX,Y,Z   is equivalent  to a cutoff of  14.31, 13.71, 13.39 a.u.
   NGXF,Y,Z  is equivalent  to a cutoff of  28.62, 27.41, 26.77 a.u.

 SYSTEM =  unknown system                          
 POSCAR =  S  Pb                                   

 Startparameter for this run:
   NWRITE =      2    write-flag & timer
   PREC   = accura    normal or accurate (medium, high low for compatibility)
   ISTART =      0    job   : 0-new  1-cont  2-samecut
   ICHARG =      2    charge: 1-file 2-atom 10-const
   ISPIN  =      1    spin polarized calculation?
   LNONCOLLINEAR =      F non collinear calculations
   LSORBIT =      F    spin-orbit coupling
   INIWAV =      1    electr: 0-lowe 1-rand  2-diag
   LASPH  =      F    aspherical Exc in radial PAW
   METAGGA=      F    non-selfconsistent MetaGGA calc.

 Electronic Relaxation 1
   ENCUT  =  600.0 eV  44.10 Ry    6.64 a.u.   8.35 16.96 55.56*2*pi/ulx,y,z
   ENINI  =  600.0     initial cutoff
   ENAUG  =  335.1 eV  augmentation charge cutoff
   NELM   =     60;   NELMIN=  2; NELMDL= -5     # of ELM steps 
   EDIFF  = 0.1E-07   stopping-criterion for ELM
   LREAL  =      F    real-space projection
   NLSPLINE    = F    spline interpolate recip. space projectors
   LCOMPAT=      F    compatible to vasp.4.4
   GGA_COMPAT  = T    GGA compatible to vasp.4.4-vasp.4.6
   LMAXPAW     = -100 max onsite density
   LMAXMIX     =    2 max onsite mixed and CHGCAR
   VOSKOWN=      0    Vosko Wilk Nusair interpolation
   ROPT   =    0.00000   0.00000
 Ionic relaxation
   EDIFFG = -.1E-02   stopping-criterion for IOM
   NSW    =      1    number of steps for IOM
   NBLOCK =      1;   KBLOCK =      1    inner block; outer block 
   IBRION =      8    ionic relax: 0-MD 1-quasi-New 2-CG
   NFREE  =      0    steps in history (QN), initial steepest desc. (CG)
   ISIF   =      2    stress and relaxation
   IWAVPR =     11    prediction:  0-non 1-charg 2-wave 3-comb
   ISYM   =      0    0-nonsym 1-usesym 2-fastsym
   LCORR  =      T    Harris-Foulkes like correction to forces

   POTIM  = 0.5000    time-step for ionic-motion
   TEIN   =    0.0    initial temperature
   TEBEG  =    0.0;   TEEND  =   0.0 temperature during run
   SMASS  =  -3.00    Nose mass-parameter (am)
   estimated Nose-frequenzy (Omega)   =  0.10E-29 period in steps =****** mass=  -0.400E-27a.u.
   SCALEE = 1.0000    scale energy and forces
   NPACO  =    256;   APACO  = 16.0  distance and # of slots for P.C.
   PSTRESS=    0.0 pullay stress

  Mass of Ions in am
   POMASS =  32.07207.20
  Ionic Valenz
   ZVAL   =   6.00  4.00
  Atomic Wigner-Seitz radii
   RWIGS  =  -1.00 -1.00
  virtual crystal weights 
   VCA    =   1.00  1.00
   NELECT =      60.0000    total number of electrons
   NUPDOWN=      -1.0000    fix difference up-down

 DOS related values:
   EMIN   =  10.00;   EMAX   =-10.00  energy-range for DOS
   EFERMI =   0.00
   ISMEAR =     0;   SIGMA  =   0.10  broadening in eV -4-tet -1-fermi 0-gaus

 Electronic relaxation 2 (details)
   IALGO  =     38    algorithm
   LDIAG  =      T    sub-space diagonalisation (order eigenvalues)
   LSUBROT=      F    optimize rotation matrix (better conditioning)
   TURBO    =      0    0=normal 1=particle mesh
   IRESTART =      0    0=no restart 2=restart with 2 vectors
   NREBOOT  =      0    no. of reboots
   NMIN     =      0    reboot dimension
   EREF     =   0.00    reference energy to select bands
   IMIX   =      4    mixing-type and parameters
     AMIX     =   0.40;   BMIX     =  1.00
     AMIX_MAG =   1.60;   BMIX_MAG =  1.00
     AMIN     =   0.10
     WC   =   100.;   INIMIX=   1;  MIXPRE=   1;  MAXMIX= -45

 Intra band minimization:
   WEIMIN = 0.0010     energy-eigenvalue tresh-hold
   EBREAK =  0.63E-10  absolut break condition
   DEPER  =   0.30     relativ break condition  

   TIME   =   0.40     timestep for ELM

  volume/ion in A,a.u.               =      82.32       555.49
  Fermi-wavevector in a.u.,A,eV,Ry     =   0.643533  1.216102  5.634651  0.414135
  Thomas-Fermi vector in A             =   1.710564
 
 Write flags
   LWAVE        =      T    write WAVECAR
   LDOWNSAMPLE  =      F    k-point downsampling of WAVECAR
   LCHARG       =      T    write CHGCAR
   LVTOT        =      F    write LOCPOT, total local potential
   LVHAR        =      F    write LOCPOT, Hartree potential only
   LELF         =      F    write electronic localiz. function (ELF)
   LORBIT       =      0    0 simple, 1 ext, 2 COOP (PROOUT), +10 PAW based schemes


 Dipole corrections
   LMONO  =      F    monopole corrections only (constant potential shift)
   LDIPOL =      T    correct potential (dipole corrections)
   IDIPOL =      3    1-x, 2-y, 3-z, 4-all directions 
   EPSILON=  1.0000000 bulk dielectric constant

 Exchange correlation treatment:
   GGA     =    PE    GGA type
   LEXCH   =     8    internal setting for exchange type
   VOSKOWN=      0    Vosko Wilk Nusair interpolation
   LHFCALC =     F    Hartree Fock is set to
   LHFONE  =     F    Hartree Fock one center treatment
   AEXX    =    0.0000 exact exchange contribution

 Linear response parameters
   LEPSILON=     T    determine dielectric tensor
   LRPA    =     F    only Hartree local field effects (RPA)
   LNABLA  =     F    use nabla operator in PAW spheres
   LVEL    =     F    velocity operator in full k-point grid
   LINTERFAST=   F  fast interpolation
   KINTER  =     0    interpolate to denser k-point grid
   CSHIFT  =0.1000    complex shift for real part using Kramers Kronig
   OMEGAMAX=  -1.0    maximum frequency
   DEG_THRESHOLD= 0.2000000E-02 threshold for treating states as degnerate
   RTIME   =   -0.100 relaxation time in fs
  (WPLASMAI=    0.000 imaginary part of plasma frequency in eV, 0.658/RTIME)
   DFIELD  = 0.0000000 0.0000000 0.0000000 field for delta impulse in time
 
 Orbital magnetization related:
   ORBITALMAG=     F  switch on orbital magnetization
   LCHIMAG   =     F  perturbation theory with respect to B field
   DQ        =  0.001000  dq finite difference perturbation B field
   LLRAUG    =     F  two centre corrections for induced B field



--------------------------------------------------------------------------------------------------------


 linear response using symmetry
 charge density and potential will be updated during run
 non-spin polarized calculation
 Variant of blocked Davidson
 Davidson routine will perform the subspace rotation
 perform sub-space diagonalisation
    after iterative eigenvector-optimisation
 modified Broyden-mixing scheme, WC =      100.0
 initial mixing is a Kerker type mixing with AMIX =  0.4000 and BMIX =      1.0000
 Hartree-type preconditioning will be used
 using additional bands           10
 reciprocal scheme for non local part
 use partial core corrections
 calculate Harris-corrections to forces 
   (improved forces if not selfconsistent)
 use gradient corrections 
 use of overlap-Matrix (Vanderbilt PP)
 Gauss-broadening in eV      SIGMA  =   0.10


--------------------------------------------------------------------------------------------------------


  energy-cutoff  :      600.00
  volume of cell :      987.79
      direct lattice vectors                 reciprocal lattice vectors
     4.182267013  0.000000000  0.000000000     0.239104772  0.000000000  0.000000000
     0.000000000  8.490762080  0.000000000     0.000000000  0.117775058  0.000000000
     0.000000000  0.000000000 27.816604850     0.000000000  0.000000000  0.035949750

  length of vectors
     4.182267013  8.490762080 27.816604850     0.239104772  0.117775058  0.035949750


 
 k-points in units of 2pi/SCALE and weight: K-Spacing Value to Generate K-Mesh: 0.02
   0.01195524  0.00000000  0.00000000       0.040
   0.03586572  0.00000000  0.00000000       0.040
   0.05977619  0.00000000  0.00000000       0.040
   0.08368667  0.00000000  0.00000000       0.040
   0.10759715  0.00000000  0.00000000       0.040
   0.01195524  0.02355501  0.00000000       0.040
   0.03586572  0.02355501  0.00000000       0.040
   0.05977619  0.02355501  0.00000000       0.040
   0.08368667  0.02355501  0.00000000       0.040
   0.10759715  0.02355501  0.00000000       0.040
  -0.10759715  0.02355501  0.00000000       0.040
  -0.08368667  0.02355501  0.00000000       0.040
  -0.05977619  0.02355501  0.00000000       0.040
  -0.03586572  0.02355501  0.00000000       0.040
  -0.01195524  0.02355501  0.00000000       0.040
   0.01195524  0.04711002  0.00000000       0.040
   0.03586572  0.04711002  0.00000000       0.040
   0.05977619  0.04711002  0.00000000       0.040
   0.08368667  0.04711002  0.00000000       0.040
   0.10759715  0.04711002  0.00000000       0.040
  -0.10759715  0.04711002  0.00000000       0.040
  -0.08368667  0.04711002  0.00000000       0.040
  -0.05977619  0.04711002  0.00000000       0.040
  -0.03586572  0.04711002  0.00000000       0.040
  -0.01195524  0.04711002  0.00000000       0.040
 
 k-points in reciprocal lattice and weights: K-Spacing Value to Generate K-Mesh: 0.02
   0.05000000  0.00000000  0.00000000       0.040
   0.15000000  0.00000000  0.00000000       0.040
   0.25000000  0.00000000  0.00000000       0.040
   0.35000000  0.00000000  0.00000000       0.040
   0.45000000  0.00000000  0.00000000       0.040
   0.05000000  0.20000000  0.00000000       0.040
   0.15000000  0.20000000  0.00000000       0.040
   0.25000000  0.20000000  0.00000000       0.040
   0.35000000  0.20000000  0.00000000       0.040
   0.45000000  0.20000000  0.00000000       0.040
  -0.45000000  0.20000000  0.00000000       0.040
  -0.35000000  0.20000000  0.00000000       0.040
  -0.25000000  0.20000000  0.00000000       0.040
  -0.15000000  0.20000000  0.00000000       0.040
  -0.05000000  0.20000000  0.00000000       0.040
   0.05000000  0.40000000  0.00000000       0.040
   0.15000000  0.40000000  0.00000000       0.040
   0.25000000  0.40000000  0.00000000       0.040
   0.35000000  0.40000000  0.00000000       0.040
   0.45000000  0.40000000  0.00000000       0.040
  -0.45000000  0.40000000  0.00000000       0.040
  -0.35000000  0.40000000  0.00000000       0.040
  -0.25000000  0.40000000  0.00000000       0.040
  -0.15000000  0.40000000  0.00000000       0.040
  -0.05000000  0.40000000  0.00000000       0.040
 
 position of ions in fractional coordinates (direct lattice) 
   0.49999997  0.38899424  0.60422389
   0.50000002  0.38899425  0.39577612
   0.49999997  0.88899425  0.39577612
   0.50000002  0.88899424  0.60422389
   1.00000000  0.65136464  0.50000000
   1.00000000  0.15136464  0.50000000
   0.99999974  0.16593870  0.60388564
   0.00000026  0.16593870  0.39611436
   0.99999974  0.66593870  0.39611436
   0.00000026  0.66593870  0.60388564
   0.50000000  0.40489164  0.50000000
   0.50000000  0.90489164  0.50000000
 
 position of ions in cartesian coordinates  (Angst):
   2.09113340  3.30285758 16.80745709
   2.09113361  3.30285763 11.00914783
   2.09113340  7.54823867 11.00914783
   2.09113361  7.54823862 16.80745709
   4.18226701  5.53058220 13.90830237
   4.18226701  1.28520116 13.90830237
   4.18226592  1.40894605 16.79804829
   0.00000108  1.40894606 11.01855657
   4.18226592  5.65432710 11.01855657
   0.00000108  5.65432709 16.79804829
   2.09113350  3.43783856 13.90830241
   2.09113350  7.68321960 13.90830241
 


--------------------------------------------------------------------------------------------------------


 k-point  1 :   0.0500 0.0000 0.0000  plane waves:   32967
 k-point  2 :   0.1500 0.0000 0.0000  plane waves:   32949
 k-point  3 :   0.2500 0.0000 0.0000  plane waves:   32943
 k-point  4 :   0.3500 0.0000 0.0000  plane waves:   32919
 k-point  5 :   0.4500 0.0000 0.0000  plane waves:   32956
 k-point  6 :   0.0500 0.2000 0.0000  plane waves:   32999
 k-point  7 :   0.1500 0.2000 0.0000  plane waves:   32983
 k-point  8 :   0.2500 0.2000 0.0000  plane waves:   32970
 k-point  9 :   0.3500 0.2000 0.0000  plane waves:   32937
 k-point 10 :   0.4500 0.2000 0.0000  plane waves:   32938
 k-point 11 :  -0.4500 0.2000 0.0000  plane waves:   32938
 k-point 12 :  -0.3500 0.2000 0.0000  plane waves:   32937
 k-point 13 :  -0.2500 0.2000 0.0000  plane waves:   32970
 k-point 14 :  -0.1500 0.2000 0.0000  plane waves:   32983
 k-point 15 :  -0.0500 0.2000 0.0000  plane waves:   32999
 k-point 16 :   0.0500 0.4000 0.0000  plane waves:   33023
 k-point 17 :   0.1500 0.4000 0.0000  plane waves:   33002
 k-point 18 :   0.2500 0.4000 0.0000  plane waves:   32973
 k-point 19 :   0.3500 0.4000 0.0000  plane waves:   32930
 k-point 20 :   0.4500 0.4000 0.0000  plane waves:   32938
 k-point 21 :  -0.4500 0.4000 0.0000  plane waves:   32938
 k-point 22 :  -0.3500 0.4000 0.0000  plane waves:   32930
 k-point 23 :  -0.2500 0.4000 0.0000  plane waves:   32973
 k-point 24 :  -0.1500 0.4000 0.0000  plane waves:   33002
 k-point 25 :  -0.0500 0.4000 0.0000  plane waves:   33023

 maximum and minimum number of plane-waves per node :      1058      995

 maximum number of plane-waves:     33023
 maximum index in each direction: 
   IXMAX=    8   IYMAX=   16   IZMAX=   55
   IXMIN=   -8   IYMIN=  -17   IZMIN=  -55


 parallel 3D FFT for wavefunctions:
    minimum data exchange during FFTs selected (reduces bandwidth)
 parallel 3D FFT for charge:
    minimum data exchange during FFTs selected (reduces bandwidth)


 total amount of memory used by VASP MPI-rank0    47426. kBytes
=======================================================================

   base      :      30000. kBytes
   nonl-proj :       5564. kBytes
   fftplans  :       2882. kBytes
   grid      :       4780. kBytes
   one-center:          8. kBytes
   wavefun   :       4192. kBytes
 
     INWAV:  cpu time    0.0000: real time    0.0000
 Broyden mixing: mesh for mixing (old mesh)
   NGX = 17   NGY = 33   NGZ =111
  (NGX  = 72   NGY  =140   NGZ  =448)
  gives a total of  62271 points

 initial charge density was supplied:
 charge density of overlapping atoms calculated
 number of electron      60.0000000 magnetization 
 keeping initial charge density in first step


--------------------------------------------------------------------------------------------------------


 Maximum index for augmentation-charges         1857 (set IRDMAX)


--------------------------------------------------------------------------------------------------------


 First call to EWALD:  gamma=   0.178
 Maximum number of real-space cells 6x 3x 1
 Maximum number of reciprocal cells 1x 2x 7

    FEWALD:  cpu time    0.0010: real time    0.0010


--------------------------------------- Iteration      1(   1)  ---------------------------------------


    POTLOK:  cpu time    0.0490: real time    0.1252
    SETDIJ:  cpu time    0.0197: real time    0.0230
     EDDAV:  cpu time    1.6087: real time    1.6363
       DOS:  cpu time    0.0011: real time    0.0021
    --------------------------------------------
      LOOP:  cpu time    1.6785: real time    1.7866

 eigenvalue-minimisations  :  2000
 total energy-change (2. order) : 0.4820079E+03  (-0.1891928E+04)
 number of electron      60.0000000 magnetization 
 augmentation part       60.0000000 magnetization 

 DIPCOR: dipole corrections for dipol
 direction  3 min pos     1,
 dipolmoment           0.000000      0.000000      0.000000 electrons x Angstroem
 Tr[quadrupol]      -446.525888

 energy correction for charged system         0.000000 eV
 dipol+quadrupol energy correction           -0.000000 eV
 added-field ion interaction         -0.000000 eV  (added to PSCEN)


 Free energy of the ion-electron system (eV)
  ---------------------------------------------------
  alpha Z        PSCENC =        17.47731182
  Ewald energy   TEWEN  =      8437.36301691
  -Hartree energ DENC   =    -10372.83323408
  -exchange      EXHF   =         0.00000000
  -V(xc)+E(xc)   XCENC  =      -702.17691594
  PAW double counting   =      2504.01617717    -1681.20004824
  entropy T*S    EENTRO =        -0.03296074
  eigenvalues    EBANDS =        36.54111632
  atomic energy  EATOM  =      2242.85346269
  Solvation  Ediel_sol  =         0.00000000
  ---------------------------------------------------
  free energy    TOTEN  =       482.00792591 eV

  energy without entropy =      482.04088665  energy(sigma->0) =      482.02440628


--------------------------------------------------------------------------------------------------------




--------------------------------------- Iteration      1(   2)  ---------------------------------------


     EDDAV:  cpu time    2.1487: real time    2.1762
       DOS:  cpu time    0.0010: real time    0.0010
    --------------------------------------------
      LOOP:  cpu time    2.1497: real time    2.1772

 eigenvalue-minimisations  :  3048
 total energy-change (2. order) :-0.4335439E+03  (-0.4185940E+03)
 number of electron      60.0000000 magnetization 
 augmentation part       60.0000000 magnetization 

 DIPCOR: dipole corrections for dipol
 direction  3 min pos     1,
 dipolmoment           0.000000      0.000000      0.000000 electrons x Angstroem
 Tr[quadrupol]      -446.525888

 energy correction for charged system         0.000000 eV
 dipol+quadrupol energy correction           -0.000000 eV
 added-field ion interaction         -0.000000 eV  (added to PSCEN)


 Free energy of the ion-electron system (eV)
  ---------------------------------------------------
  alpha Z        PSCENC =        17.47731182
  Ewald energy   TEWEN  =      8437.36301691
  -Hartree energ DENC   =    -10372.83323408
  -exchange      EXHF   =         0.00000000
  -V(xc)+E(xc)   XCENC  =      -702.17691594
  PAW double counting   =      2504.01617717    -1681.20004824
  entropy T*S    EENTRO =        -0.00552078
  eigenvalues    EBANDS =      -397.03027218
  atomic energy  EATOM  =      2242.85346269
  Solvation  Ediel_sol  =         0.00000000
  ---------------------------------------------------
  free energy    TOTEN  =        48.46397737 eV

  energy without entropy =       48.46949815  energy(sigma->0) =       48.46673776


--------------------------------------------------------------------------------------------------------




--------------------------------------- Iteration      1(   3)  ---------------------------------------


     EDDAV:  cpu time    2.4202: real time    2.4598
       DOS:  cpu time    0.0007: real time    0.0007
    --------------------------------------------
      LOOP:  cpu time    2.4208: real time    2.4604

 eigenvalue-minimisations  :  2552
 total energy-change (2. order) :-0.9753117E+02  (-0.9586009E+02)
 number of electron      60.0000000 magnetization 
 augmentation part       60.0000000 magnetization 

 DIPCOR: dipole corrections for dipol
 direction  3 min pos     1,
 dipolmoment           0.000000      0.000000      0.000000 electrons x Angstroem
 Tr[quadrupol]      -446.525888

 energy correction for charged system         0.000000 eV
 dipol+quadrupol energy correction           -0.000000 eV
 added-field ion interaction         -0.000000 eV  (added to PSCEN)


 Free energy of the ion-electron system (eV)
  ---------------------------------------------------
  alpha Z        PSCENC =        17.47731182
  Ewald energy   TEWEN  =      8437.36301691
  -Hartree energ DENC   =    -10372.83323408
  -exchange      EXHF   =         0.00000000
  -V(xc)+E(xc)   XCENC  =      -702.17691594
  PAW double counting   =      2504.01617717    -1681.20004824
  entropy T*S    EENTRO =        -0.00000000
  eigenvalues    EBANDS =      -494.56696546
  atomic energy  EATOM  =      2242.85346269
  Solvation  Ediel_sol  =         0.00000000
  ---------------------------------------------------
  free energy    TOTEN  =       -49.06719513 eV

  energy without entropy =      -49.06719513  energy(sigma->0) =      -49.06719513


--------------------------------------------------------------------------------------------------------




--------------------------------------- Iteration      1(   4)  ---------------------------------------


     EDDAV:  cpu time    2.1370: real time    2.1625
       DOS:  cpu time    0.0007: real time    0.0007
    --------------------------------------------
      LOOP:  cpu time    2.1376: real time    2.1632

 eigenvalue-minimisations  :  2688
 total energy-change (2. order) :-0.6250303E+01  (-0.6219678E+01)
 number of electron      60.0000000 magnetization 
 augmentation part       60.0000000 magnetization 

 DIPCOR: dipole corrections for dipol
 direction  3 min pos     1,
 dipolmoment           0.000000      0.000000      0.000000 electrons x Angstroem
 Tr[quadrupol]      -446.525888

 energy correction for charged system         0.000000 eV
 dipol+quadrupol energy correction           -0.000000 eV
 added-field ion interaction         -0.000000 eV  (added to PSCEN)


 Free energy of the ion-electron system (eV)
  ---------------------------------------------------
  alpha Z        PSCENC =        17.47731182
  Ewald energy   TEWEN  =      8437.36301691
  -Hartree energ DENC   =    -10372.83323408
  -exchange      EXHF   =         0.00000000
  -V(xc)+E(xc)   XCENC  =      -702.17691594
  PAW double counting   =      2504.01617717    -1681.20004824
  entropy T*S    EENTRO =        -0.00000000
  eigenvalues    EBANDS =      -500.81726814
  atomic energy  EATOM  =      2242.85346269
  Solvation  Ediel_sol  =         0.00000000
  ---------------------------------------------------
  free energy    TOTEN  =       -55.31749781 eV

  energy without entropy =      -55.31749781  energy(sigma->0) =      -55.31749781


--------------------------------------------------------------------------------------------------------




--------------------------------------- Iteration      1(   5)  ---------------------------------------


     EDDAV:  cpu time    1.9974: real time    2.0118
       DOS:  cpu time    0.0007: real time    0.0007
    CHARGE:  cpu time    0.2817: real time    0.2857
    MIXING:  cpu time    0.0016: real time    0.0033
    --------------------------------------------
      LOOP:  cpu time    2.2814: real time    2.3015

 eigenvalue-minimisations  :  2784
 total energy-change (2. order) :-0.1937007E+00  (-0.1935223E+00)
 number of electron      60.0000003 magnetization 
 augmentation part      -12.7621481 magnetization 

 DIPCOR: dipole corrections for dipol
 direction  3 min pos     1,
 dipolmoment           0.000000      0.000000      0.000000 electrons x Angstroem
 Tr[quadrupol]      -446.525888

 energy correction for charged system         0.000000 eV
 dipol+quadrupol energy correction           -0.000000 eV
 added-field ion interaction         -0.000000 eV  (added to PSCEN)


 Broyden mixing:
  rms(total) = 0.22769E+01    rms(broyden)= 0.22769E+01
  rms(prec ) = 0.23065E+01
  weight for this iteration     100.00

 Free energy of the ion-electron system (eV)
  ---------------------------------------------------
  alpha Z        PSCENC =        17.47731182
  Ewald energy   TEWEN  =      8437.36301691
  -Hartree energ DENC   =    -10372.83323408
  -exchange      EXHF   =         0.00000000
  -V(xc)+E(xc)   XCENC  =      -702.17691594
  PAW double counting   =      2504.01617717    -1681.20004824
  entropy T*S    EENTRO =        -0.00000000
  eigenvalues    EBANDS =      -501.01096885
  atomic energy  EATOM  =      2242.85346269
  Solvation  Ediel_sol  =         0.00000000
  ---------------------------------------------------
  free energy    TOTEN  =       -55.51119852 eV

  energy without entropy =      -55.51119852  energy(sigma->0) =      -55.51119852


--------------------------------------------------------------------------------------------------------




--------------------------------------- Iteration      1(   6)  ---------------------------------------


    POTLOK:  cpu time    0.0405: real time    0.0408
    SETDIJ:  cpu time    0.0049: real time    0.0050
     EDDAV:  cpu time    1.9011: real time    1.9609
       DOS:  cpu time    0.0007: real time    0.0007
    CHARGE:  cpu time    0.1138: real time    0.1158
    MIXING:  cpu time    0.0052: real time    0.0077
    --------------------------------------------
      LOOP:  cpu time    2.0662: real time    2.1309

 eigenvalue-minimisations  :  2400
 total energy-change (2. order) : 0.3678955E+01  (-0.1049731E+01)
 number of electron      60.0000003 magnetization 
 augmentation part      -12.6689295 magnetization 

 DIPCOR: dipole corrections for dipol
 direction  3 min pos     1,
 dipolmoment           0.000000      0.000000      0.000013 electrons x Angstroem
 Tr[quadrupol]      -447.495603

 energy correction for charged system         0.000000 eV
 dipol+quadrupol energy correction           -0.000000 eV
 added-field ion interaction         -0.000000 eV  (added to PSCEN)


 Broyden mixing:
  rms(total) = 0.13172E+01    rms(broyden)= 0.13172E+01
  rms(prec ) = 0.13214E+01
  weight for this iteration     100.00

 eigenvalues of (default mixing * dielectric matrix)
  average eigenvalue GAMMA=   1.9125
  1.9125

 Free energy of the ion-electron system (eV)
  ---------------------------------------------------
  alpha Z        PSCENC =        17.47731182
  Ewald energy   TEWEN  =      8437.36301691
  -Hartree energ DENC   =    -10415.98525425
  -exchange      EXHF   =         0.00000000
  -V(xc)+E(xc)   XCENC  =      -699.49895738
  PAW double counting   =      3131.83618018    -2309.81360385
  entropy T*S    EENTRO =        -0.00000000
  eigenvalues    EBANDS =      -456.06439982
  atomic energy  EATOM  =      2242.85346269
  Solvation  Ediel_sol  =         0.00000000
  ---------------------------------------------------
  free energy    TOTEN  =       -51.83224371 eV

  energy without entropy =      -51.83224371  energy(sigma->0) =      -51.83224371


--------------------------------------------------------------------------------------------------------




--------------------------------------- Iteration      1(   7)  ---------------------------------------


    POTLOK:  cpu time    0.0389: real time    0.0403
    SETDIJ:  cpu time    0.0046: real time    0.0047
     EDDAV:  cpu time    2.0479: real time    2.0990
       DOS:  cpu time    0.0007: real time    0.0007
    CHARGE:  cpu time    0.1130: real time    0.1144
    MIXING:  cpu time    0.0009: real time    0.0009
    --------------------------------------------
      LOOP:  cpu time    2.2060: real time    2.2601

 eigenvalue-minimisations  :  2704
 total energy-change (2. order) :-0.2695366E-01  (-0.3184909E+00)
 number of electron      60.0000003 magnetization 
 augmentation part      -12.8404654 magnetization 

 DIPCOR: dipole corrections for dipol
 direction  3 min pos     1,
 dipolmoment           0.000000      0.000000     -0.000025 electrons x Angstroem
 Tr[quadrupol]      -448.630458

 energy correction for charged system         0.000000 eV
 dipol+quadrupol energy correction           -0.000000 eV
 added-field ion interaction          0.000000 eV  (added to PSCEN)


 Broyden mixing:
  rms(total) = 0.76256E+00    rms(broyden)= 0.76256E+00
  rms(prec ) = 0.76486E+00
  weight for this iteration     100.00

 eigenvalues of (default mixing * dielectric matrix)
  average eigenvalue GAMMA=   1.5603
  0.6675  2.4532

 Free energy of the ion-electron system (eV)
  ---------------------------------------------------
  alpha Z        PSCENC =        17.47731182
  Ewald energy   TEWEN  =      8437.36301691
  -Hartree energ DENC   =    -10439.09978649
  -exchange      EXHF   =         0.00000000
  -V(xc)+E(xc)   XCENC  =      -698.25095727
  PAW double counting   =      4145.73275483    -3323.90465315
  entropy T*S    EENTRO =        -0.00000000
  eigenvalues    EBANDS =      -434.03034670
  atomic energy  EATOM  =      2242.85346269
  Solvation  Ediel_sol  =         0.00000000
  ---------------------------------------------------
  free energy    TOTEN  =       -51.85919737 eV

  energy without entropy =      -51.85919737  energy(sigma->0) =      -51.85919737


--------------------------------------------------------------------------------------------------------




--------------------------------------- Iteration      1(   8)  ---------------------------------------


    POTLOK:  cpu time    0.0395: real time    0.0404
    SETDIJ:  cpu time    0.0061: real time    0.0062
     EDDAV:  cpu time    1.9442: real time    1.9768
       DOS:  cpu time    0.0007: real time    0.0008
    CHARGE:  cpu time    0.1148: real time    0.1163
    MIXING:  cpu time    0.0010: real time    0.0010
    --------------------------------------------
      LOOP:  cpu time    2.1064: real time    2.1415

 eigenvalue-minimisations  :  2704
 total energy-change (2. order) : 0.4642023E-01  (-0.1667713E-01)
 number of electron      60.0000003 magnetization 
 augmentation part      -12.8647651 magnetization 

 DIPCOR: dipole corrections for dipol
 direction  3 min pos     1,
 dipolmoment           0.000000      0.000000     -0.000012 electrons x Angstroem
 Tr[quadrupol]      -449.129101

 energy correction for charged system         0.000000 eV
 dipol+quadrupol energy correction           -0.000000 eV
 added-field ion interaction          0.000000 eV  (added to PSCEN)


 Broyden mixing:
  rms(total) = 0.38431E+00    rms(broyden)= 0.38431E+00
  rms(prec ) = 0.38575E+00
  weight for this iteration     100.00

 eigenvalues of (default mixing * dielectric matrix)
  average eigenvalue GAMMA=   1.5709
  2.3904  1.1611  1.1611

 Free energy of the ion-electron system (eV)
  ---------------------------------------------------
  alpha Z        PSCENC =        17.47731182
  Ewald energy   TEWEN  =      8437.36301691
  -Hartree energ DENC   =    -10442.44686139
  -exchange      EXHF   =         0.00000000
  -V(xc)+E(xc)   XCENC  =      -698.28696207
  PAW double counting   =      4500.16718432    -3678.18285153
  entropy T*S    EENTRO =        -0.00000000
  eigenvalues    EBANDS =      -430.75707788
  atomic energy  EATOM  =      2242.85346269
  Solvation  Ediel_sol  =         0.00000000
  ---------------------------------------------------
  free energy    TOTEN  =       -51.81277714 eV

  energy without entropy =      -51.81277714  energy(sigma->0) =      -51.81277714


--------------------------------------------------------------------------------------------------------




--------------------------------------- Iteration      1(   9)  ---------------------------------------


    POTLOK:  cpu time    0.0412: real time    0.0420
    SETDIJ:  cpu time    0.0155: real time    0.0156
     EDDAV:  cpu time    1.8548: real time    1.8851
       DOS:  cpu time    0.0007: real time    0.0007
    CHARGE:  cpu time    0.1156: real time    0.1170
    MIXING:  cpu time    0.0009: real time    0.0009
    --------------------------------------------
      LOOP:  cpu time    2.0286: real time    2.0614

 eigenvalue-minimisations  :  2552
 total energy-change (2. order) : 0.2006222E-01  (-0.7137260E-02)
 number of electron      60.0000003 magnetization 
 augmentation part      -12.8606962 magnetization 

 DIPCOR: dipole corrections for dipol
 direction  3 min pos     1,
 dipolmoment           0.000000      0.000000     -0.000000 electrons x Angstroem
 Tr[quadrupol]      -449.540528

 energy correction for charged system         0.000000 eV
 dipol+quadrupol energy correction           -0.000000 eV
 added-field ion interaction          0.000000 eV  (added to PSCEN)


 Broyden mixing:
  rms(total) = 0.14660E+00    rms(broyden)= 0.14660E+00
  rms(prec ) = 0.14745E+00
  weight for this iteration     100.00

 eigenvalues of (default mixing * dielectric matrix)
  average eigenvalue GAMMA=   1.5060
  2.2917  1.5793  1.3809  0.7723

 Free energy of the ion-electron system (eV)
  ---------------------------------------------------
  alpha Z        PSCENC =        17.47731182
  Ewald energy   TEWEN  =      8437.36301691
  -Hartree energ DENC   =    -10445.15624674
  -exchange      EXHF   =         0.00000000
  -V(xc)+E(xc)   XCENC  =      -698.41243083
  PAW double counting   =      4526.07330018    -3703.92955016
  entropy T*S    EENTRO =        -0.00000000
  eigenvalues    EBANDS =      -428.06157878
  atomic energy  EATOM  =      2242.85346269
  Solvation  Ediel_sol  =         0.00000000
  ---------------------------------------------------
  free energy    TOTEN  =       -51.79271492 eV

  energy without entropy =      -51.79271492  energy(sigma->0) =      -51.79271492


--------------------------------------------------------------------------------------------------------




--------------------------------------- Iteration      1(  10)  ---------------------------------------


    POTLOK:  cpu time    0.0405: real time    0.0413
    SETDIJ:  cpu time    0.0047: real time    0.0047
     EDDAV:  cpu time    1.8768: real time    1.9075
       DOS:  cpu time    0.0008: real time    0.0008
    CHARGE:  cpu time    0.1128: real time    0.1141
    MIXING:  cpu time    0.0010: real time    0.0010
    --------------------------------------------
      LOOP:  cpu time    2.0366: real time    2.0695

 eigenvalue-minimisations  :  2592
 total energy-change (2. order) : 0.2376691E-02  (-0.7151971E-03)
 number of electron      60.0000003 magnetization 
 augmentation part      -12.8487673 magnetization 

 DIPCOR: dipole corrections for dipol
 direction  3 min pos     1,
 dipolmoment           0.000000      0.000000      0.000006 electrons x Angstroem
 Tr[quadrupol]      -449.836297

 energy correction for charged system         0.000000 eV
 dipol+quadrupol energy correction           -0.000000 eV
 added-field ion interaction         -0.000000 eV  (added to PSCEN)


 Broyden mixing:
  rms(total) = 0.51645E-01    rms(broyden)= 0.51645E-01
  rms(prec ) = 0.52937E-01
  weight for this iteration     100.00

 eigenvalues of (default mixing * dielectric matrix)
  average eigenvalue GAMMA=   1.4702
  2.1797  1.6248  1.6248  0.9607  0.9607

 Free energy of the ion-electron system (eV)
  ---------------------------------------------------
  alpha Z        PSCENC =        17.47731182
  Ewald energy   TEWEN  =      8437.36301691
  -Hartree energ DENC   =    -10448.33854038
  -exchange      EXHF   =         0.00000000
  -V(xc)+E(xc)   XCENC  =      -698.40963063
  PAW double counting   =      4497.40468882    -3675.21070814
  entropy T*S    EENTRO =        -0.00000000
  eigenvalues    EBANDS =      -424.92993930
  atomic energy  EATOM  =      2242.85346269
  Solvation  Ediel_sol  =         0.00000000
  ---------------------------------------------------
  free energy    TOTEN  =       -51.79033822 eV

  energy without entropy =      -51.79033822  energy(sigma->0) =      -51.79033822


--------------------------------------------------------------------------------------------------------




--------------------------------------- Iteration      1(  11)  ---------------------------------------


    POTLOK:  cpu time    0.0400: real time    0.0409
    SETDIJ:  cpu time    0.0046: real time    0.0046
     EDDAV:  cpu time    2.1524: real time    2.1884
       DOS:  cpu time    0.0007: real time    0.0008
    CHARGE:  cpu time    0.1163: real time    0.1175
    MIXING:  cpu time    0.0010: real time    0.0011
    --------------------------------------------
      LOOP:  cpu time    2.3151: real time    2.3533

 eigenvalue-minimisations  :  2760
 total energy-change (2. order) : 0.1148230E-02  (-0.1795912E-03)
 number of electron      60.0000003 magnetization 
 augmentation part      -12.8468043 magnetization 

 DIPCOR: dipole corrections for dipol
 direction  3 min pos     1,
 dipolmoment           0.000000      0.000000      0.000005 electrons x Angstroem
 Tr[quadrupol]      -450.046829

 energy correction for charged system         0.000000 eV
 dipol+quadrupol energy correction           -0.000000 eV
 added-field ion interaction         -0.000000 eV  (added to PSCEN)


 Broyden mixing:
  rms(total) = 0.31306E-01    rms(broyden)= 0.31306E-01
  rms(prec ) = 0.32516E-01
  weight for this iteration     100.00

 eigenvalues of (default mixing * dielectric matrix)
  average eigenvalue GAMMA=   1.6391
  2.3055  2.3055  2.2106  0.8313  1.0908  1.0908

 Free energy of the ion-electron system (eV)
  ---------------------------------------------------
  alpha Z        PSCENC =        17.47731182
  Ewald energy   TEWEN  =      8437.36301691
  -Hartree energ DENC   =    -10450.32149650
  -exchange      EXHF   =         0.00000000
  -V(xc)+E(xc)   XCENC  =      -698.41638269
  PAW double counting   =      4475.95787680    -3653.74991246
  entropy T*S    EENTRO =        -0.00000000
  eigenvalues    EBANDS =      -422.95306655
  atomic energy  EATOM  =      2242.85346269
  Solvation  Ediel_sol  =         0.00000000
  ---------------------------------------------------
  free energy    TOTEN  =       -51.78918999 eV

  energy without entropy =      -51.78918999  energy(sigma->0) =      -51.78918999


--------------------------------------------------------------------------------------------------------




--------------------------------------- Iteration      1(  12)  ---------------------------------------


    POTLOK:  cpu time    0.0408: real time    0.0414
    SETDIJ:  cpu time    0.0045: real time    0.0045
     EDDAV:  cpu time    1.8572: real time    1.8855
       DOS:  cpu time    0.0008: real time    0.0008
    CHARGE:  cpu time    0.1171: real time    0.1184
    MIXING:  cpu time    0.0011: real time    0.0011
    --------------------------------------------
      LOOP:  cpu time    2.0215: real time    2.0518

 eigenvalue-minimisations  :  2544
 total energy-change (2. order) : 0.1073939E-02  (-0.1299154E-03)
 number of electron      60.0000003 magnetization 
 augmentation part      -12.8428395 magnetization 

 DIPCOR: dipole corrections for dipol
 direction  3 min pos     1,
 dipolmoment           0.000000      0.000000     -0.000004 electrons x Angstroem
 Tr[quadrupol]      -450.379791

 energy correction for charged system         0.000000 eV
 dipol+quadrupol energy correction           -0.000000 eV
 added-field ion interaction          0.000000 eV  (added to PSCEN)


 Broyden mixing:
  rms(total) = 0.48583E-02    rms(broyden)= 0.48583E-02
  rms(prec ) = 0.72927E-02
  weight for this iteration     100.00

 eigenvalues of (default mixing * dielectric matrix)
  average eigenvalue GAMMA=   1.6435
  2.6719  2.6719  2.0421  1.2707  0.8527  0.9977  0.9977

 Free energy of the ion-electron system (eV)
  ---------------------------------------------------
  alpha Z        PSCENC =        17.47731182
  Ewald energy   TEWEN  =      8437.36301691
  -Hartree energ DENC   =    -10453.84357100
  -exchange      EXHF   =         0.00000000
  -V(xc)+E(xc)   XCENC  =      -698.39160437
  PAW double counting   =      4453.97393587    -3631.75625034
  entropy T*S    EENTRO =        -0.00000000
  eigenvalues    EBANDS =      -419.46441762
  atomic energy  EATOM  =      2242.85346269
  Solvation  Ediel_sol  =         0.00000000
  ---------------------------------------------------
  free energy    TOTEN  =       -51.78811606 eV

  energy without entropy =      -51.78811606  energy(sigma->0) =      -51.78811606


--------------------------------------------------------------------------------------------------------




--------------------------------------- Iteration      1(  13)  ---------------------------------------


    POTLOK:  cpu time    0.0420: real time    0.0428
    SETDIJ:  cpu time    0.0048: real time    0.0048
     EDDAV:  cpu time    1.9245: real time    1.9542
       DOS:  cpu time    0.0007: real time    0.0007
    CHARGE:  cpu time    0.1145: real time    0.1158
    MIXING:  cpu time    0.0010: real time    0.0010
    --------------------------------------------
      LOOP:  cpu time    2.0876: real time    2.1194

 eigenvalue-minimisations  :  2608
 total energy-change (2. order) : 0.8169192E-04  (-0.4750753E-04)
 number of electron      60.0000003 magnetization 
 augmentation part      -12.8413631 magnetization 

 DIPCOR: dipole corrections for dipol
 direction  3 min pos     1,
 dipolmoment           0.000000      0.000000      0.000004 electrons x Angstroem
 Tr[quadrupol]      -450.567575

 energy correction for charged system         0.000000 eV
 dipol+quadrupol energy correction           -0.000000 eV
 added-field ion interaction         -0.000000 eV  (added to PSCEN)


 Broyden mixing:
  rms(total) = 0.56712E-02    rms(broyden)= 0.56712E-02
  rms(prec ) = 0.68205E-02
  weight for this iteration     100.00

 eigenvalues of (default mixing * dielectric matrix)
  average eigenvalue GAMMA=   1.7018
  2.8608  2.8608  2.3256  1.6640  1.0725  1.0725  0.8511  0.9071

 Free energy of the ion-electron system (eV)
  ---------------------------------------------------
  alpha Z        PSCENC =        17.47731182
  Ewald energy   TEWEN  =      8437.36301691
  -Hartree energ DENC   =    -10455.66165615
  -exchange      EXHF   =         0.00000000
  -V(xc)+E(xc)   XCENC  =      -698.38760669
  PAW double counting   =      4446.28454256    -3624.06225692
  entropy T*S    EENTRO =        -0.00000000
  eigenvalues    EBANDS =      -417.65484857
  atomic energy  EATOM  =      2242.85346269
  Solvation  Ediel_sol  =         0.00000000
  ---------------------------------------------------
  free energy    TOTEN  =       -51.78803436 eV

  energy without entropy =      -51.78803436  energy(sigma->0) =      -51.78803436


--------------------------------------------------------------------------------------------------------




--------------------------------------- Iteration      1(  14)  ---------------------------------------


    POTLOK:  cpu time    0.0415: real time    0.0422
    SETDIJ:  cpu time    0.0046: real time    0.0047
     EDDAV:  cpu time    1.6406: real time    1.6661
       DOS:  cpu time    0.0008: real time    0.0008
    CHARGE:  cpu time    0.1125: real time    0.1140
    MIXING:  cpu time    0.0011: real time    0.0011
    --------------------------------------------
      LOOP:  cpu time    1.8011: real time    1.8289

 eigenvalue-minimisations  :  2192
 total energy-change (2. order) :-0.7348048E-03  (-0.3801324E-04)
 number of electron      60.0000003 magnetization 
 augmentation part      -12.8401341 magnetization 

 DIPCOR: dipole corrections for dipol
 direction  3 min pos     1,
 dipolmoment           0.000000      0.000000      0.000005 electrons x Angstroem
 Tr[quadrupol]      -450.796787

 energy correction for charged system         0.000000 eV
 dipol+quadrupol energy correction           -0.000000 eV
 added-field ion interaction         -0.000000 eV  (added to PSCEN)


 Broyden mixing:
  rms(total) = 0.22695E-02    rms(broyden)= 0.22695E-02
  rms(prec ) = 0.29110E-02
  weight for this iteration     100.00

 eigenvalues of (default mixing * dielectric matrix)
  average eigenvalue GAMMA=   1.7043
  3.0994  3.0994  2.2443  1.8567  1.2406  1.0458  1.0458  0.8933  0.8133

 Free energy of the ion-electron system (eV)
  ---------------------------------------------------
  alpha Z        PSCENC =        17.47731182
  Ewald energy   TEWEN  =      8437.36301691
  -Hartree energ DENC   =    -10458.05104279
  -exchange      EXHF   =         0.00000000
  -V(xc)+E(xc)   XCENC  =      -698.36502932
  PAW double counting   =      4446.22513666    -3624.00760221
  entropy T*S    EENTRO =        -0.00000000
  eigenvalues    EBANDS =      -415.28402292
  atomic energy  EATOM  =      2242.85346269
  Solvation  Ediel_sol  =         0.00000000
  ---------------------------------------------------
  free energy    TOTEN  =       -51.78876917 eV

  energy without entropy =      -51.78876917  energy(sigma->0) =      -51.78876917


--------------------------------------------------------------------------------------------------------




--------------------------------------- Iteration      1(  15)  ---------------------------------------


    POTLOK:  cpu time    0.0414: real time    0.0423
    SETDIJ:  cpu time    0.0046: real time    0.0047
     EDDAV:  cpu time    1.9570: real time    1.9869
       DOS:  cpu time    0.0007: real time    0.0007
    CHARGE:  cpu time    0.1167: real time    0.1184
    MIXING:  cpu time    0.0013: real time    0.0013
    --------------------------------------------
      LOOP:  cpu time    2.1217: real time    2.1542

 eigenvalue-minimisations  :  2424
 total energy-change (2. order) :-0.4392066E-03  (-0.6826546E-05)
 number of electron      60.0000003 magnetization 
 augmentation part      -12.8399782 magnetization 

 DIPCOR: dipole corrections for dipol
 direction  3 min pos     1,
 dipolmoment           0.000000      0.000000     -0.000002 electrons x Angstroem
 Tr[quadrupol]      -450.869314

 energy correction for charged system         0.000000 eV
 dipol+quadrupol energy correction           -0.000000 eV
 added-field ion interaction          0.000000 eV  (added to PSCEN)


 Broyden mixing:
  rms(total) = 0.25920E-02    rms(broyden)= 0.25920E-02
  rms(prec ) = 0.28994E-02
  weight for this iteration     100.00

 eigenvalues of (default mixing * dielectric matrix)
  average eigenvalue GAMMA=   1.8715
  4.7333  2.6355  2.6355  2.2625  1.3389  1.3389  1.1377  0.8583  0.8870  0.8870

 Free energy of the ion-electron system (eV)
  ---------------------------------------------------
  alpha Z        PSCENC =        17.47731182
  Ewald energy   TEWEN  =      8437.36301691
  -Hartree energ DENC   =    -10458.80499790
  -exchange      EXHF   =         0.00000000
  -V(xc)+E(xc)   XCENC  =      -698.35862470
  PAW double counting   =      4446.87398895    -3624.65710311
  entropy T*S    EENTRO =        -0.00000000
  eigenvalues    EBANDS =      -414.53626303
  atomic energy  EATOM  =      2242.85346269
  Solvation  Ediel_sol  =         0.00000000
  ---------------------------------------------------
  free energy    TOTEN  =       -51.78920838 eV

  energy without entropy =      -51.78920838  energy(sigma->0) =      -51.78920838


--------------------------------------------------------------------------------------------------------




--------------------------------------- Iteration      1(  16)  ---------------------------------------


    POTLOK:  cpu time    0.0403: real time    0.0410
    SETDIJ:  cpu time    0.0047: real time    0.0048
     EDDAV:  cpu time    1.7785: real time    1.8196
       DOS:  cpu time    0.0007: real time    0.0007
    CHARGE:  cpu time    0.1141: real time    0.1157
    MIXING:  cpu time    0.0013: real time    0.0013
    --------------------------------------------
      LOOP:  cpu time    1.9396: real time    1.9830

 eigenvalue-minimisations  :  2368
 total energy-change (2. order) :-0.4144455E-03  (-0.6664441E-05)
 number of electron      60.0000003 magnetization 
 augmentation part      -12.8398503 magnetization 

 DIPCOR: dipole corrections for dipol
 direction  3 min pos     1,
 dipolmoment           0.000000      0.000000      0.000001 electrons x Angstroem
 Tr[quadrupol]      -450.956711

 energy correction for charged system         0.000000 eV
 dipol+quadrupol energy correction           -0.000000 eV
 added-field ion interaction         -0.000000 eV  (added to PSCEN)


 Broyden mixing:
  rms(total) = 0.13870E-02    rms(broyden)= 0.13870E-02
  rms(prec ) = 0.15280E-02
  weight for this iteration     100.00

 eigenvalues of (default mixing * dielectric matrix)
  average eigenvalue GAMMA=   1.8961
  5.9019  2.4225  2.4225  2.3415  1.4229  1.4229  1.2132  0.9464  0.9464  0.9741
  0.8422

 Free energy of the ion-electron system (eV)
  ---------------------------------------------------
  alpha Z        PSCENC =        17.47731182
  Ewald energy   TEWEN  =      8437.36301691
  -Hartree energ DENC   =    -10459.65240000
  -exchange      EXHF   =         0.00000000
  -V(xc)+E(xc)   XCENC  =      -698.35643509
  PAW double counting   =      4447.71393657    -3625.49456302
  entropy T*S    EENTRO =        -0.00000000
  eigenvalues    EBANDS =      -413.69395270
  atomic energy  EATOM  =      2242.85346269
  Solvation  Ediel_sol  =         0.00000000
  ---------------------------------------------------
  free energy    TOTEN  =       -51.78962282 eV

  energy without entropy =      -51.78962282  energy(sigma->0) =      -51.78962282


--------------------------------------------------------------------------------------------------------




--------------------------------------- Iteration      1(  17)  ---------------------------------------


    POTLOK:  cpu time    0.0425: real time    0.0435
    SETDIJ:  cpu time    0.0047: real time    0.0048
     EDDAV:  cpu time    1.9565: real time    2.0003
       DOS:  cpu time    0.0008: real time    0.0008
    CHARGE:  cpu time    0.1171: real time    0.1189
    MIXING:  cpu time    0.0013: real time    0.0013
    --------------------------------------------
      LOOP:  cpu time    2.1230: real time    2.1697

 eigenvalue-minimisations  :  2624
 total energy-change (2. order) :-0.1386803E-03  (-0.1190173E-05)
 number of electron      60.0000003 magnetization 
 augmentation part      -12.8396709 magnetization 

 DIPCOR: dipole corrections for dipol
 direction  3 min pos     1,
 dipolmoment           0.000000      0.000000      0.000002 electrons x Angstroem
 Tr[quadrupol]      -450.982775

 energy correction for charged system         0.000000 eV
 dipol+quadrupol energy correction           -0.000000 eV
 added-field ion interaction         -0.000000 eV  (added to PSCEN)


 Broyden mixing:
  rms(total) = 0.51489E-03    rms(broyden)= 0.51489E-03
  rms(prec ) = 0.69385E-03
  weight for this iteration     100.00

 eigenvalues of (default mixing * dielectric matrix)
  average eigenvalue GAMMA=   1.8886
  6.2234  2.5687  2.3927  2.3927  1.5268  1.3559  1.3559  1.0962  1.0962  0.9270
  0.8640  0.8640

 Free energy of the ion-electron system (eV)
  ---------------------------------------------------
  alpha Z        PSCENC =        17.47731182
  Ewald energy   TEWEN  =      8437.36301691
  -Hartree energ DENC   =    -10459.88830250
  -exchange      EXHF   =         0.00000000
  -V(xc)+E(xc)   XCENC  =      -698.35681082
  PAW double counting   =      4446.68607371    -3624.46722752
  entropy T*S    EENTRO =        -0.00000000
  eigenvalues    EBANDS =      -413.45728579
  atomic energy  EATOM  =      2242.85346269
  Solvation  Ediel_sol  =         0.00000000
  ---------------------------------------------------
  free energy    TOTEN  =       -51.78976150 eV

  energy without entropy =      -51.78976150  energy(sigma->0) =      -51.78976150


--------------------------------------------------------------------------------------------------------




--------------------------------------- Iteration      1(  18)  ---------------------------------------


    POTLOK:  cpu time    0.0424: real time    0.0434
    SETDIJ:  cpu time    0.0045: real time    0.0046
     EDDAV:  cpu time    2.0222: real time    2.0544
       DOS:  cpu time    0.0007: real time    0.0007
    CHARGE:  cpu time    0.1821: real time    0.1842
    MIXING:  cpu time    0.0016: real time    0.0016
    --------------------------------------------
      LOOP:  cpu time    2.2536: real time    2.2889

 eigenvalue-minimisations  :  2216
 total energy-change (2. order) :-0.1799208E-03  (-0.2830567E-06)
 number of electron      60.0000003 magnetization 
 augmentation part      -12.8396422 magnetization 

 DIPCOR: dipole corrections for dipol
 direction  3 min pos     1,
 dipolmoment           0.000000      0.000000     -0.000002 electrons x Angstroem
 Tr[quadrupol]      -450.996900

 energy correction for charged system         0.000000 eV
 dipol+quadrupol energy correction           -0.000000 eV
 added-field ion interaction          0.000000 eV  (added to PSCEN)


 Broyden mixing:
  rms(total) = 0.29817E-03    rms(broyden)= 0.29817E-03
  rms(prec ) = 0.42440E-03
  weight for this iteration     100.00

 eigenvalues of (default mixing * dielectric matrix)
  average eigenvalue GAMMA=   1.9912
  6.7344  3.3596  2.4011  2.4011  2.3168  1.4094  1.4094  1.1130  1.0376  1.0376
  0.9149  0.8753  0.8753

 Free energy of the ion-electron system (eV)
  ---------------------------------------------------
  alpha Z        PSCENC =        17.47731182
  Ewald energy   TEWEN  =      8437.36301691
  -Hartree energ DENC   =    -10460.01620422
  -exchange      EXHF   =         0.00000000
  -V(xc)+E(xc)   XCENC  =      -698.35681219
  PAW double counting   =      4446.48167581    -3624.26296965
  entropy T*S    EENTRO =        -0.00000000
  eigenvalues    EBANDS =      -413.32942259
  atomic energy  EATOM  =      2242.85346269
  Solvation  Ediel_sol  =         0.00000000
  ---------------------------------------------------
  free energy    TOTEN  =       -51.78994142 eV

  energy without entropy =      -51.78994142  energy(sigma->0) =      -51.78994142


--------------------------------------------------------------------------------------------------------




--------------------------------------- Iteration      1(  19)  ---------------------------------------


    POTLOK:  cpu time    0.0417: real time    0.0422
    SETDIJ:  cpu time    0.0046: real time    0.0047
     EDDAV:  cpu time    1.8942: real time    1.9138
       DOS:  cpu time    0.0007: real time    0.0007
    CHARGE:  cpu time    0.1117: real time    0.1125
    MIXING:  cpu time    0.0014: real time    0.0014
    --------------------------------------------
      LOOP:  cpu time    2.0543: real time    2.0753

 eigenvalue-minimisations  :  2360
 total energy-change (2. order) :-0.1599570E-03  (-0.3618886E-06)
 number of electron      60.0000003 magnetization 
 augmentation part      -12.8397049 magnetization 

 DIPCOR: dipole corrections for dipol
 direction  3 min pos     1,
 dipolmoment           0.000000      0.000000     -0.000000 electrons x Angstroem
 Tr[quadrupol]      -451.009542

 energy correction for charged system         0.000000 eV
 dipol+quadrupol energy correction           -0.000000 eV
 added-field ion interaction          0.000000 eV  (added to PSCEN)


 Broyden mixing:
  rms(total) = 0.41636E-03    rms(broyden)= 0.41636E-03
  rms(prec ) = 0.43743E-03
  weight for this iteration     100.00

 eigenvalues of (default mixing * dielectric matrix)
  average eigenvalue GAMMA=   2.0442
  7.2226  4.0073  2.5413  2.5413  2.1704  1.3801  1.3801  1.3183  1.3183  1.0775
  0.9657  0.9657  0.8735  0.8562

 Free energy of the ion-electron system (eV)
  ---------------------------------------------------
  alpha Z        PSCENC =        17.47731182
  Ewald energy   TEWEN  =      8437.36301691
  -Hartree energ DENC   =    -10460.11321975
  -exchange      EXHF   =         0.00000000
  -V(xc)+E(xc)   XCENC  =      -698.35754637
  PAW double counting   =      4446.67976649    -3624.46111853
  entropy T*S    EENTRO =        -0.00000000
  eigenvalues    EBANDS =      -413.23177463
  atomic energy  EATOM  =      2242.85346269
  Solvation  Ediel_sol  =         0.00000000
  ---------------------------------------------------
  free energy    TOTEN  =       -51.79010138 eV

  energy without entropy =      -51.79010138  energy(sigma->0) =      -51.79010138


--------------------------------------------------------------------------------------------------------




--------------------------------------- Iteration      1(  20)  ---------------------------------------


    POTLOK:  cpu time    0.0415: real time    0.0420
    SETDIJ:  cpu time    0.0046: real time    0.0046
     EDDAV:  cpu time    1.8176: real time    1.8351
       DOS:  cpu time    0.0007: real time    0.0007
    CHARGE:  cpu time    0.1191: real time    0.1200
    MIXING:  cpu time    0.0014: real time    0.0014
    --------------------------------------------
      LOOP:  cpu time    1.9849: real time    2.0039

 eigenvalue-minimisations  :  2416
 total energy-change (2. order) :-0.5068987E-04  (-0.1308997E-06)
 number of electron      60.0000003 magnetization 
 augmentation part      -12.8396994 magnetization 

 DIPCOR: dipole corrections for dipol
 direction  3 min pos     1,
 dipolmoment           0.000000      0.000000      0.000000 electrons x Angstroem
 Tr[quadrupol]      -451.015056

 energy correction for charged system         0.000000 eV
 dipol+quadrupol energy correction           -0.000000 eV
 added-field ion interaction         -0.000000 eV  (added to PSCEN)


 Broyden mixing:
  rms(total) = 0.17086E-03    rms(broyden)= 0.17086E-03
  rms(prec ) = 0.18535E-03
  weight for this iteration     100.00

 eigenvalues of (default mixing * dielectric matrix)
  average eigenvalue GAMMA=   2.0987
  7.9219  4.6387  2.5499  2.4531  2.4531  1.4781  1.4781  1.6292  1.1621  1.1621
  0.9732  0.9732  0.9287  0.8393  0.8393

 Free energy of the ion-electron system (eV)
  ---------------------------------------------------
  alpha Z        PSCENC =        17.47731182
  Ewald energy   TEWEN  =      8437.36301691
  -Hartree energ DENC   =    -10460.14929502
  -exchange      EXHF   =         0.00000000
  -V(xc)+E(xc)   XCENC  =      -698.35765986
  PAW double counting   =      4446.63847450    -3624.41975178
  entropy T*S    EENTRO =        -0.00000000
  eigenvalues    EBANDS =      -413.19571132
  atomic energy  EATOM  =      2242.85346269
  Solvation  Ediel_sol  =         0.00000000
  ---------------------------------------------------
  free energy    TOTEN  =       -51.79015207 eV

  energy without entropy =      -51.79015207  energy(sigma->0) =      -51.79015207


--------------------------------------------------------------------------------------------------------




--------------------------------------- Iteration      1(  21)  ---------------------------------------


    POTLOK:  cpu time    0.0552: real time    0.0558
    SETDIJ:  cpu time    0.0050: real time    0.0051
     EDDAV:  cpu time    1.7328: real time    1.7483
       DOS:  cpu time    0.0008: real time    0.0008
    CHARGE:  cpu time    0.1130: real time    0.1136
    MIXING:  cpu time    0.0016: real time    0.0016
    --------------------------------------------
      LOOP:  cpu time    1.9084: real time    1.9252

 eigenvalue-minimisations  :  2272
 total energy-change (2. order) :-0.2156145E-04  (-0.6173630E-07)
 number of electron      60.0000003 magnetization 
 augmentation part      -12.8397056 magnetization 

 DIPCOR: dipole corrections for dipol
 direction  3 min pos     1,
 dipolmoment           0.000000      0.000000     -0.000000 electrons x Angstroem
 Tr[quadrupol]      -451.018590

 energy correction for charged system         0.000000 eV
 dipol+quadrupol energy correction           -0.000000 eV
 added-field ion interaction          0.000000 eV  (added to PSCEN)


 Broyden mixing:
  rms(total) = 0.66040E-04    rms(broyden)= 0.66040E-04
  rms(prec ) = 0.78172E-04
  weight for this iteration     100.00

 eigenvalues of (default mixing * dielectric matrix)
  average eigenvalue GAMMA=   2.2066
  8.1371  5.4562  2.8892  2.8892  2.3012  2.3012  1.4876  1.4876  1.3061  1.3061
  1.1298  0.9844  0.9844  0.9262  0.8595  0.8595

 Free energy of the ion-electron system (eV)
  ---------------------------------------------------
  alpha Z        PSCENC =        17.47731182
  Ewald energy   TEWEN  =      8437.36301691
  -Hartree energ DENC   =    -10460.16759368
  -exchange      EXHF   =         0.00000000
  -V(xc)+E(xc)   XCENC  =      -698.35766375
  PAW double counting   =      4446.72670717    -3624.50795863
  entropy T*S    EENTRO =        -0.00000000
  eigenvalues    EBANDS =      -413.17745615
  atomic energy  EATOM  =      2242.85346269
  Solvation  Ediel_sol  =         0.00000000
  ---------------------------------------------------
  free energy    TOTEN  =       -51.79017363 eV

  energy without entropy =      -51.79017363  energy(sigma->0) =      -51.79017363


--------------------------------------------------------------------------------------------------------




--------------------------------------- Iteration      1(  22)  ---------------------------------------


    POTLOK:  cpu time    0.0422: real time    0.0425
    SETDIJ:  cpu time    0.0048: real time    0.0048
     EDDAV:  cpu time    1.6045: real time    1.6154
       DOS:  cpu time    0.0008: real time    0.0008
    CHARGE:  cpu time    0.1111: real time    0.1117
    MIXING:  cpu time    0.0015: real time    0.0015
    --------------------------------------------
      LOOP:  cpu time    1.7648: real time    1.7767

 eigenvalue-minimisations  :  2080
[...]
      4.182266  1.408946 16.798048     0.000003   -0.393297    0.079966  
      0.000001  1.408946 11.018557    -0.000008    0.394857    0.079678  
      4.182266  5.654327 11.018557    -0.000018   -0.394870   -0.079673  
      0.000001  5.654327 16.798048     0.000051    0.393256   -0.079967  
      2.091134  3.437839 13.908302     0.000005    0.000161   -0.225360  
      2.091134  7.683220 13.908302     0.000011   -0.000162    0.225351  
 
  21 f  =    2.180349 THz    13.699537 2PiTHz   72.728614 cm-1     9.017202 meV
             X         Y         Z           dx          dy          dz
      2.091133  3.302858 16.807457     0.000146    0.064834    0.054238  
      2.091134  3.302858 11.009148     0.000059   -0.064786    0.054224  
      2.091133  7.548239 11.009148     0.000060   -0.064787    0.054225  
      2.091134  7.548239 16.807457     0.000147    0.064837    0.054245  
      4.182267  5.530582 13.908302     0.000027    0.000009   -0.004829  
      4.182267  1.285201 13.908302     0.000027    0.000008   -0.004830  
      4.182266  1.408946 16.798048    -0.000049    0.019765   -0.247938  
      0.000001  1.408946 11.018557    -0.000012   -0.019836   -0.248168  
      4.182266  5.654327 11.018557    -0.000001   -0.019837   -0.248163  
      0.000001  5.654327 16.798048    -0.000059    0.019774   -0.247936  
      2.091134  3.437839 13.908302    -0.000047    0.000016    0.601540  
      2.091134  7.683220 13.908302    -0.000041    0.000016    0.601539  
 
  22 f  =    2.163099 THz    13.591150 2PiTHz   72.153205 cm-1     8.945860 meV
             X         Y         Z           dx          dy          dz
      2.091133  3.302858 16.807457    -0.465419    0.000011    0.000029  
      2.091134  3.302858 11.009148    -0.465343    0.000034    0.000063  
      2.091133  7.548239 11.009148    -0.465323    0.000043    0.000033  
      2.091134  7.548239 16.807457    -0.465414    0.000007    0.000038  
      4.182267  5.530582 13.908302    -0.099121    0.000014   -0.000029  
      4.182267  1.285201 13.908302    -0.099120    0.000008   -0.000038  
      4.182266  1.408946 16.798048     0.113449    0.000015   -0.000112  
      0.000001  1.408946 11.018557     0.113440   -0.000062   -0.000016  
      4.182266  5.654327 11.018557     0.113406   -0.000032    0.000006  
      0.000001  5.654327 16.798048     0.113448    0.000010   -0.000065  
      2.091134  3.437839 13.908302     0.176881    0.000016    0.000150  
      2.091134  7.683220 13.908302     0.176913   -0.000008    0.000136  
 
  23 f  =    2.067967 THz    12.993419 2PiTHz   68.979949 cm-1     8.552427 meV
             X         Y         Z           dx          dy          dz
      2.091133  3.302858 16.807457     0.000061    0.033514   -0.053878  
      2.091134  3.302858 11.009148     0.000016    0.033447    0.053907  
      2.091133  7.548239 11.009148     0.000016    0.033449    0.053901  
      2.091134  7.548239 16.807457     0.000063    0.033512   -0.053877  
      4.182267  5.530582 13.908302     0.000010   -0.004164   -0.000004  
      4.182267  1.285201 13.908302     0.000009   -0.004164   -0.000004  
      4.182266  1.408946 16.798048    -0.000025    0.012847   -0.494554  
      0.000001  1.408946 11.018557     0.000010    0.012902    0.494444  
      4.182266  5.654327 11.018557    -0.000005    0.012904    0.494438  
      0.000001  5.654327 16.798048    -0.000026    0.012847   -0.494543  
      2.091134  3.437839 13.908302    -0.000017   -0.050492    0.000141  
      2.091134  7.683220 13.908302    -0.000018   -0.050504    0.000135  
 
  24 f  =    1.717194 THz    10.789447 2PiTHz   57.279418 cm-1     7.101745 meV
             X         Y         Z           dx          dy          dz
      2.091133  3.302858 16.807457     0.000112    0.000004   -0.000003  
      2.091134  3.302858 11.009148     0.000112    0.000007    0.000004  
      2.091133  7.548239 11.009148    -0.000090   -0.000002   -0.000001  
      2.091134  7.548239 16.807457    -0.000092   -0.000008    0.000003  
      4.182267  5.530582 13.908302    -0.023422   -0.000003   -0.000001  
      4.182267  1.285201 13.908302     0.023424    0.000005   -0.000002  
      4.182266  1.408946 16.798048     0.032982   -0.000031   -0.000132  
      0.000001  1.408946 11.018557     0.032984   -0.000044    0.000133  
      4.182266  5.654327 11.018557    -0.032993    0.000032   -0.000130  
      0.000001  5.654327 16.798048    -0.032988    0.000035    0.000134  
      2.091134  3.437839 13.908302    -0.705183    0.000071   -0.000006  
      2.091134  7.683220 13.908302     0.705171   -0.000060    0.000001  
 
  25 f  =    1.616397 THz    10.156119 2PiTHz   53.917183 cm-1     6.684881 meV
             X         Y         Z           dx          dy          dz
      2.091133  3.302858 16.807457     0.000023    0.032421   -0.009494  
      2.091134  3.302858 11.009148     0.000019    0.032428    0.009472  
      2.091133  7.548239 11.009148    -0.000011   -0.032429   -0.009474  
      2.091134  7.548239 16.807457     0.000001   -0.032420    0.009494  
      4.182267  5.530582 13.908302     0.000015    0.007332   -0.000004  
      4.182267  1.285201 13.908302    -0.000021   -0.007336    0.000005  
      4.182266  1.408946 16.798048     0.000028    0.041012   -0.449738  
      0.000001  1.408946 11.018557     0.000078    0.040989    0.449734  
      4.182266  5.654327 11.018557    -0.000043   -0.040982   -0.449748  
      0.000001  5.654327 16.798048    -0.000042   -0.041003    0.449748  
      2.091134  3.437839 13.908302     0.000181    0.299604   -0.000046  
      2.091134  7.683220 13.908302    -0.000213   -0.299616    0.000048  
 
  26 f  =    1.417441 THz     8.906042 2PiTHz   47.280726 cm-1     5.862065 meV
             X         Y         Z           dx          dy          dz
      2.091133  3.302858 16.807457    -0.000020    0.037421   -0.103369  
      2.091134  3.302858 11.009148     0.000016   -0.037439   -0.103368  
      2.091133  7.548239 11.009148    -0.000008    0.037430    0.103368  
      2.091134  7.548239 16.807457    -0.000002   -0.037419    0.103366  
      4.182267  5.530582 13.908302     0.000000    0.000009   -0.044491  
      4.182267  1.285201 13.908302    -0.000005    0.000006    0.044492  
      4.182266  1.408946 16.798048    -0.000123    0.239707    0.103528  
      0.000001  1.408946 11.018557     0.000096   -0.239775    0.103479  
      4.182266  5.654327 11.018557    -0.000093    0.239718   -0.103471  
      0.000001  5.654327 16.798048     0.000159   -0.239752   -0.103540  
      2.091134  3.437839 13.908302    -0.000004    0.000022   -0.580923  
      2.091134  7.683220 13.908302    -0.000009    0.000069    0.580927  
 
  27 f  =    1.325466 THz     8.328151 2PiTHz   44.212800 cm-1     5.481690 meV
             X         Y         Z           dx          dy          dz
      2.091133  3.302858 16.807457    -0.000007    0.068479    0.007046  
      2.091134  3.302858 11.009148    -0.000010    0.068488   -0.007072  
      2.091133  7.548239 11.009148    -0.000009    0.068496   -0.007050  
      2.091134  7.548239 16.807457    -0.000007    0.068476    0.007065  
      4.182267  5.530582 13.908302     0.000024   -0.117573    0.000001  
      4.182267  1.285201 13.908302     0.000023   -0.117570    0.000016  
      4.182266  1.408946 16.798048    -0.000052    0.278222    0.040443  
      0.000001  1.408946 11.018557    -0.000066    0.278508   -0.040416  
      4.182266  5.654327 11.018557    -0.000050    0.278544   -0.040445  
      0.000001  5.654327 16.798048    -0.000052    0.278189    0.040394  
      2.091134  3.437839 13.908302     0.000110   -0.564324   -0.000012  
      2.091134  7.683220 13.908302     0.000123   -0.564310    0.000080  
 
  28 f  =    1.288448 THz     8.095558 2PiTHz   42.978001 cm-1     5.328595 meV
             X         Y         Z           dx          dy          dz
      2.091133  3.302858 16.807457     0.078824    0.000008   -0.000035  
      2.091134  3.302858 11.009148    -0.078840   -0.000005   -0.000026  
      2.091133  7.548239 11.009148     0.078827    0.000005    0.000028  
      2.091134  7.548239 16.807457    -0.078831   -0.000010    0.000032  
      4.182267  5.530582 13.908302     0.000007    0.000003   -0.000022  
      4.182267  1.285201 13.908302     0.000006   -0.000001    0.000021  
      4.182266  1.408946 16.798048     0.493708    0.000055    0.000049  
      0.000001  1.408946 11.018557    -0.493772   -0.000051    0.000079  
      4.182266  5.654327 11.018557     0.493761    0.000049   -0.000065  
      0.000001  5.654327 16.798048    -0.493745   -0.000049   -0.000050  
      2.091134  3.437839 13.908302     0.000030    0.000016   -0.000132  
      2.091134  7.683220 13.908302     0.000037   -0.000001    0.000120  
 
  29 f  =    1.243631 THz     7.813964 2PiTHz   41.483064 cm-1     5.143246 meV
             X         Y         Z           dx          dy          dz
      2.091133  3.302858 16.807457     0.013516   -0.000011   -0.000005  
      2.091134  3.302858 11.009148     0.013523   -0.000014   -0.000004  
      2.091133  7.548239 11.009148     0.013517   -0.000014    0.000003  
      2.091134  7.548239 16.807457     0.013528   -0.000015   -0.000003  
      4.182267  5.530582 13.908302     0.144494    0.000021    0.000000  
      4.182267  1.285201 13.908302     0.144492    0.000022    0.000005  
      4.182266  1.408946 16.798048    -0.304096   -0.000061   -0.000009  
      0.000001  1.408946 11.018557    -0.304052   -0.000059    0.000029  
      4.182266  5.654327 11.018557    -0.304089   -0.000054   -0.000008  
      0.000001  5.654327 16.798048    -0.304029   -0.000073   -0.000002  
      2.091134  3.437839 13.908302     0.542072    0.000113   -0.000008  
      2.091134  7.683220 13.908302     0.542075    0.000101    0.000010  
 
  30 f  =    1.159387 THz     7.284643 2PiTHz   38.672987 cm-1     4.794841 meV
             X         Y         Z           dx          dy          dz
      2.091133  3.302858 16.807457    -0.082893   -0.000002   -0.000051  
      2.091134  3.302858 11.009148    -0.082886    0.000003   -0.000043  
      2.091133  7.548239 11.009148     0.082872   -0.000001    0.000046  
      2.091134  7.548239 16.807457     0.082880    0.000001    0.000048  
      4.182267  5.530582 13.908302     0.014770    0.000011    0.000112  
      4.182267  1.285201 13.908302    -0.014779   -0.000007   -0.000112  
      4.182266  1.408946 16.798048    -0.491904   -0.000017   -0.000410  
      0.000001  1.408946 11.018557    -0.491829    0.000001   -0.000301  
      4.182266  5.654327 11.018557     0.491876    0.000007    0.000306  
      0.000001  5.654327 16.798048     0.491881    0.000012    0.000399  
      2.091134  3.437839 13.908302    -0.046538    0.000051   -0.000086  
      2.091134  7.683220 13.908302     0.046526   -0.000037    0.000082  
 
  31 f  =    1.134877 THz     7.130644 2PiTHz   37.855429 cm-1     4.693477 meV
             X         Y         Z           dx          dy          dz
      2.091133  3.302858 16.807457    -0.000087   -0.000938    0.080029  
      2.091134  3.302858 11.009148    -0.000064    0.000937    0.080038  
      2.091133  7.548239 11.009148     0.000046   -0.000942   -0.080031  
      2.091134  7.548239 16.807457     0.000057    0.000931   -0.080028  
      4.182267  5.530582 13.908302     0.000007    0.000006   -0.149073  
      4.182267  1.285201 13.908302    -0.000014    0.000002    0.149067  
      4.182266  1.408946 16.798048    -0.000420   -0.001165    0.470427  
      0.000001  1.408946 11.018557    -0.000284    0.001170    0.470444  
      4.182266  5.654327 11.018557     0.000371   -0.001183   -0.470440  
      0.000001  5.654327 16.798048     0.000379    0.001175   -0.470428  
      2.091134  3.437839 13.908302    -0.000032    0.000023    0.149487  
      2.091134  7.683220 13.908302     0.000040    0.000010   -0.149480  
 
  32 f  =    0.953663 THz     5.992038 2PiTHz   31.810756 cm-1     3.944033 meV
             X         Y         Z           dx          dy          dz
      2.091133  3.302858 16.807457     0.000038   -0.146479    0.010416  
      2.091134  3.302858 11.009148    -0.000059    0.146391    0.010413  
      2.091133  7.548239 11.009148    -0.000062    0.146394    0.010414  
      2.091134  7.548239 16.807457     0.000033   -0.146482    0.010410  
      4.182267  5.530582 13.908302    -0.000005    0.000077   -0.008958  
      4.182267  1.285201 13.908302    -0.000006    0.000077   -0.008952  
      4.182266  1.408946 16.798048     0.000202   -0.475782    0.002372  
      0.000001  1.408946 11.018557    -0.000182    0.475895    0.002356  
      4.182266  5.654327 11.018557    -0.000184    0.475903    0.002345  
      0.000001  5.654327 16.798048     0.000192   -0.475787    0.002363  
      2.091134  3.437839 13.908302    -0.000004    0.000309    0.062879  
      2.091134  7.683220 13.908302     0.000005    0.000309    0.062882  
 
  33 f  =    0.898044 THz     5.642578 2PiTHz   29.955528 cm-1     3.714013 meV
             X         Y         Z           dx          dy          dz
      2.091133  3.302858 16.807457    -0.109933   -0.000063    0.000002  
      2.091134  3.302858 11.009148     0.109939    0.000062   -0.000004  
      2.091133  7.548239 11.009148     0.109928    0.000063    0.000017  
      2.091134  7.548239 16.807457    -0.109935   -0.000065    0.000024  
      4.182267  5.530582 13.908302     0.000002   -0.000000    0.000002  
      4.182267  1.285201 13.908302     0.000004   -0.000001   -0.000014  
      4.182266  1.408946 16.798048    -0.487749   -0.000181    0.000004  
      0.000001  1.408946 11.018557     0.487792    0.000188   -0.000033  
      4.182266  5.654327 11.018557     0.487747    0.000191    0.000044  
      0.000001  5.654327 16.798048    -0.487770   -0.000183    0.000040  
      2.091134  3.437839 13.908302     0.000013   -0.000006   -0.000004  
      2.091134  7.683220 13.908302     0.000012    0.000005    0.000030  
 
  34 f/i=    0.000447 THz     0.002809 2PiTHz    0.014910 cm-1     0.001849 meV
             X         Y         Z           dx          dy          dz
      2.091133  3.302858 16.807457     0.000471    0.149539   -0.000027  
      2.091134  3.302858 11.009148     0.000466    0.149375    0.000002  
      2.091133  7.548239 11.009148     0.000459    0.149377    0.000004  
      2.091134  7.548239 16.807457     0.000473    0.149542   -0.000017  
      4.182267  5.530582 13.908302     0.000476    0.149475    0.000015  
      4.182267  1.285201 13.908302     0.000477    0.149472    0.000012  
      4.182266  1.408946 16.798048     0.001199    0.380032   -0.000025  
      0.000001  1.408946 11.018557     0.001203    0.379751    0.000005  
      4.182266  5.654327 11.018557     0.001190    0.379754    0.000015  
      0.000001  5.654327 16.798048     0.001199    0.380038   -0.000019  
      2.091134  3.437839 13.908302     0.001208    0.379921   -0.000016  
      2.091134  7.683220 13.908302     0.001205    0.379917   -0.000009  
 
  35 f/i=    0.003064 THz     0.019252 2PiTHz    0.102207 cm-1     0.012672 meV
             X         Y         Z           dx          dy          dz
      2.091133  3.302858 16.807457    -0.148996    0.000470   -0.000000  
      2.091134  3.302858 11.009148    -0.148990    0.000477   -0.000001  
      2.091133  7.548239 11.009148    -0.148986    0.000474    0.000004  
      2.091134  7.548239 16.807457    -0.148996    0.000471    0.000010  
      4.182267  5.530582 13.908302    -0.148939    0.000474   -0.000003  
      4.182267  1.285201 13.908302    -0.148939    0.000473   -0.000001  
      4.182266  1.408946 16.798048    -0.380359    0.001201    0.000017  
      0.000001  1.408946 11.018557    -0.380349    0.001202    0.000012  
      4.182266  5.654327 11.018557    -0.380344    0.001200   -0.000002  
      0.000001  5.654327 16.798048    -0.380366    0.001202    0.000001  
      2.091134  3.437839 13.908302    -0.379571    0.001196   -0.000005  
      2.091134  7.683220 13.908302    -0.379576    0.001195    0.000001  
 
  36 f/i=    2.188775 THz    13.752480 2PiTHz   73.009679 cm-1     9.052050 meV
             X         Y         Z           dx          dy          dz
      2.091133  3.302858 16.807457     0.000023    0.003171    0.029821  
      2.091134  3.302858 11.009148    -0.000006   -0.003170    0.029818  
      2.091133  7.548239 11.009148    -0.000003   -0.003170    0.029819  
      2.091134  7.548239 16.807457     0.000026    0.003172    0.029822  
      4.182267  5.530582 13.908302     0.000004    0.000007    0.128203  
      4.182267  1.285201 13.908302     0.000000    0.000006    0.128197  
      4.182266  1.408946 16.798048     0.000005    0.023332    0.425498  
      0.000001  1.408946 11.018557    -0.000002   -0.023332    0.425498  
      4.182266  5.654327 11.018557     0.000000   -0.023332    0.425499  
      0.000001  5.654327 16.798048     0.000010    0.023333    0.425502  
      2.091134  3.437839 13.908302    -0.000001   -0.000001    0.344351  
      2.091134  7.683220 13.908302    -0.000002   -0.000000    0.344352  
 


--------------------------------------------------------------------------------------------------------




 MACROSCOPIC STATIC DIELECTRIC TENSOR IONIC CONTRIBUTION
 ------------------------------------------------------
          44.874470    -0.006088    -0.000119
          -0.006088    15.812120    -0.000046
          -0.000119    -0.000046     0.008977
 ------------------------------------------------------


 ELASTIC MODULI IONIC CONTR (kBar)
 Direction    XX          YY          ZZ          XY          YZ          ZX
 --------------------------------------------------------------------------------
 XX         -52.8332    -84.2242    -45.0512      0.0111     -0.0319     -0.0011
 YY         -84.2242   -140.0213    -44.9379     -0.0109     -0.0486     -0.0033
 ZZ         -45.0512    -44.9379   -318.2619     -0.0067     -0.0044      0.0099
 XY           0.0111     -0.0109     -0.0067   -107.0743     -0.0047     -0.0019
 YZ          -0.0319     -0.0486     -0.0044     -0.0047    -53.9407      0.0006
 ZX          -0.0011     -0.0033      0.0099     -0.0019      0.0006    -54.1336
 --------------------------------------------------------------------------------


 PIEZOELECTRIC TENSOR IONIC CONTR  for field in x, y, z        (C/m^2)
          XX          YY          ZZ          XY          YZ          ZX
  --------------------------------------------------------------------------------
  x    -0.00047    -0.00023     0.00022     2.00452     0.00006     0.00006
  y     0.67339     1.20616    -0.04000    -0.00004     0.00033     0.00001
  z    -0.00001    -0.00001    -0.00002    -0.00001    -0.00443    -0.00010


--------------------------------------------------------------------------------------------------------


 writing wavefunctions
     LOOP+:  cpu time 2237.1424: real time 2277.7316
    4ORBIT:  cpu time    0.0000: real time    0.0000

 total amount of memory used by VASP MPI-rank0    47426. kBytes
=======================================================================

   base      :      30000. kBytes
   nonl-proj :       5564. kBytes
   fftplans  :       2882. kBytes
   grid      :       4780. kBytes
   one-center:          8. kBytes
   wavefun   :       4192. kBytes
 
  
  
 General timing and accounting informations for this job:
 ========================================================
  
                  Total CPU time used (sec):     2251.717
                            User time (sec):     2243.446
                          System time (sec):        8.271
                         Elapsed time (sec):     2295.905
  
                   Maximum memory used (kb):      411180.
                   Average memory used (kb):           0.
  
                          Minor page faults:       212931
                          Major page faults:          816
                 Voluntary context switches:        23791
