 
             +---------------------------------------------------+
             |                                                   |
             |                   WANNIER90                       |
             |                                                   |
             +---------------------------------------------------+
             |                                                   |
             |        Welcome to the Maximally-Localized         |
             |        Generalized Wannier Functions code         |
             |            http://www.wannier.org                 |
             |                                                   |
             |                                                   |
             |  Wannier90 Developer Group:                       |
             |    Giovanni Pizzi    (EPFL)                       |
             |    Valerio Vitale    (Cambridge)                  |
             |    David Vanderbilt  (Rutgers University)         |
             |    Nicola Marzari    (EPFL)                       |
             |    Ivo Souza         (Universidad del Pais Vasco) |
             |    Arash A. Mostofi  (Imperial College London)    |
             |    Jonathan R. Yates (University of Oxford)       |
             |                                                   |
             |  For the full list of Wannier90 3.x authors,      |
             |  please check the code documentation and the      |
             |  README on the GitHub page of the code            |
             |                                                   |
             |                                                   |
             |  Please cite                                      |
             |                                                   |
             |  [ref] "An updated version of Wannier90:          |
             |        A Tool for Obtaining Maximally Localised   |
             |        Wannier Functions", A. A. Mostofi,         |
             |        J. R. Yates, G. Pizzi, Y. S. Lee,          |
             |        I. Souza, D. Vanderbilt and N. Marzari,    |
             |        Comput. Phys. Commun. 185, 2309 (2014)     |
             |        http://dx.doi.org/10.1016/j.cpc.2014.05.003|
             |                                                   |
             |  in any publications arising from the use of      |
             |  this code. For the method please cite            |
             |                                                   |
             |  [ref] "Maximally Localized Generalised Wannier   |
             |         Functions for Composite Energy Bands"     |
             |         N. Marzari and D. Vanderbilt              |
             |         Phys. Rev. B 56 12847 (1997)              |
             |                                                   |
             |  [ref] "Maximally Localized Wannier Functions     |
             |         for Entangled Energy Bands"               |
             |         I. Souza, N. Marzari and D. Vanderbilt    |
             |         Phys. Rev. B 65 035109 (2001)             |
             |                                                   |
             |                                                   |
             | Copyright (c) 1996-2019                           |
             |        The Wannier90 Developer Group and          |
             |        individual contributors                    |
             |                                                   |
             |      Release: 3.0.0       27th February 2019      |
             |                                                   |
             | This program is free software; you can            |
             | redistribute it and/or modify it under the terms  |
             | of the GNU General Public License as published by |
             | the Free Software Foundation; either version 2 of |
             | the License, or (at your option) any later version|
             |                                                   |
             | This program is distributed in the hope that it   |
             | will be useful, but WITHOUT ANY WARRANTY; without |
             | even the implied warranty of MERCHANTABILITY or   |
             | FITNESS FOR A PARTICULAR PURPOSE. See the GNU     |
             | General Public License for more details.          |
             |                                                   |
             | You should have received a copy of the GNU General|
             | Public License along with this program; if not,   |
             | write to the Free Software Foundation, Inc.,      |
             | 675 Mass Ave, Cambridge, MA 02139, USA.           |
             |                                                   |
             +---------------------------------------------------+
             |    Execution started on 11May2023 at 21:56:00     |
             +---------------------------------------------------+
 
 ******************************************************************************
 * -> Using CODATA 2006 constant values                                       *
 *    (http://physics.nist.gov/cuu/Constants/index.html)                      *
 * -> Using Bohr value from CODATA                                            *
 ******************************************************************************
 

 Running in parallel on  24 CPUs

 
                                    ------
                                    SYSTEM
                                    ------
 
                              Lattice Vectors (Ang)
                    a_1    -2.069000  -3.583614   0.000000
                    a_2     2.069000  -3.583614   0.000000
                    a_3     0.000000   2.389075   9.546667
 
                   Unit Cell Volume:     141.56747  (Ang^3)
 
                        Reciprocal-Space Vectors (Ang^-1)
                    b_1    -1.518411  -0.876655   0.219385
                    b_2     1.518411  -0.876655   0.219385
                    b_3     0.000000   0.000000   0.658155
  
 *----------------------------------------------------------------------------*
 |   Site       Fractional Coordinate          Cartesian Coordinate (Ang)     |
 +----------------------------------------------------------------------------+
 | Bi   1   0.39900   0.39900   0.69700   |    0.00000  -1.19454   6.65403    |
 | Bi   2   0.60100   0.60100   0.30300   |    0.00000  -3.58361   2.89264    |
 | Se   1   0.00000   0.00000   0.50000   |    0.00000   1.19454   4.77333    |
 | Se   2   0.20600   0.20600   0.11800   |    0.00000  -1.19454   1.12651    |
 | Se   3   0.79400   0.79400   0.88200   |    0.00000  -3.58361   8.42016    |
 *----------------------------------------------------------------------------*
                                ------------
                                K-POINT GRID
                                ------------
  
             Grid size = 12 x 12 x  2      Total points =  288
  
  
 *---------------------------------- MAIN ------------------------------------*
 |  Number of Wannier Functions               :                15             |
 |  Number of Objective Wannier Functions     :                15             |
 |  Number of input Bloch states              :                15             |
 |  Output verbosity (1=low, 5=high)          :                 1             |
 |  Timing Level (1=low, 5=high)              :                 1             |
 |  Optimisation (0=memory, 3=speed)          :                 3             |
 |  Length Unit                               :               Ang             |
 |  Post-processing setup (write *.nnkp)      :                 F             |
 |  Using Gamma-only branch of algorithms     :                 F             |
 |  Wavefunction (UNK) file-type              :       unformatted             |
 |  Wavefunction spin channel                 :                up             |
 *----------------------------------------------------------------------------*
 *------------------------------- WANNIERISE ---------------------------------*
 |  Total number of iterations                :              2000             |
 |  Number of CG steps before reset           :                 5             |
 |  Trial step length for line search         :             2.000             |
 |  Convergence tolerence                     :         0.100E-09             |
 |  Convergence window                        :                -1             |
 |  Iterations between writing output         :                 1             |
 |  Iterations between backing up to disk     :               100             |
 |  Write r^2_nm to file                      :                 F             |
 |  Write xyz WF centres to file              :                 F             |
 |  Write on-site energies <0n|H|0n> to file  :                 F             |
 |  Use guiding centre to control phases      :                 F             |
 |  Use phases for initial projections        :                 F             |
 *----------------------------------------------------------------------------*
 *-------------------------------- PLOTTING ----------------------------------*
 |  Plotting Wannier functions                :                 T             |
 |   Size of supercell for plotting           :     3x    3x    3             |
 |   Plotting mode (molecule or crystal)      :           crystal             |
 |   Plotting format                          :              cube             |
 |   Plot radius                              :             2.500             |
 |   Plot scale                               :             1.000             |
 *----------------------------------------------------------------------------*
 |  Plotting interpolated bandstructure       :                 T             |
 |   Number of K-path sections                :                 4             |
 |   Divisions along first K-path section     :               100             |
 |   Output format                            :           gnuplot             |
 |   Output mode                              :               s-k             |
 *----------------------------------------------------------------------------*
 |   K-space path sections:                                                   |
 |    From: G       0.000  0.000  0.000     To: Z       0.000  0.000  0.500   |
 |    From: Z       0.000  0.000  0.500     To: F       0.500  0.500  0.000   |
 |    From: F       0.500  0.500  0.000     To: G       0.000  0.000  0.000   |
 |    From: G       0.000  0.000  0.000     To: L       0.500  0.000  0.000   |
 *----------------------------------------------------------------------------*
 |  Plotting Hamiltonian in WF basis          :                 T             |
 *----------------------------------------------------------------------------*
 Time to read parameters        0.044 (sec)

 *---------------------------------- K-MESH ----------------------------------*
 +----------------------------------------------------------------------------+
 |                    Distance to Nearest-Neighbour Shells                    |
 |                    ------------------------------------                    |
 |          Shell             Distance (Ang^-1)          Multiplicity         |
 |          -----             -----------------          ------------         |
 |             1                   0.147249                      4            |
 |             2                   0.150615                      2            |
 |             3                   0.253069                      2            |
 |             4                   0.258944                      4            |
 |             5                   0.294497                      4            |
 |             6                   0.301230                      2            |
 |             7                   0.326974                      2            |
 |             8                   0.329077                      2            |
 |             9                   0.343426                      4            |
 |            10                   0.373157                      4            |
 |            11                   0.376838                      4            |
 |            12                   0.387001                      4            |
 |            13                   0.388460                      2            |
 |            14                   0.393425                      4            |
 |            15                   0.393753                      2            |
 |            16                   0.397229                      4            |
 |            17                   0.413468                      4            |
 |            18                   0.415133                      4            |
 |            19                   0.441746                      4            |
 |            20                   0.451844                      2            |
 |            21                   0.453785                      4            |
 |            22                   0.459827                      4            |
 |            23                   0.463622                      4            |
 |            24                   0.468066                      4            |
 |            25                   0.490164                      2            |
 |            26                   0.496013                      4            |
 |            27                   0.497153                      2            |
 |            28                   0.506137                      2            |
 |            29                   0.517043                      4            |
 |            30                   0.517887                      4            |
 |            31                   0.519706                      4            |
 |            32                   0.528072                      4            |
 |            33                   0.534676                      4            |
 |            34                   0.542125                      4            |
 |            35                   0.551638                      4            |
 |            36                   0.557857                      4            |
 +----------------------------------------------------------------------------+
 | The b-vectors are chosen automatically                                     |
 | SVD found small singular value, Rejecting this shell and trying the next   |
 | SVD found small singular value, Rejecting this shell and trying the next   |
 | The following shells are used:   1,  2,  7,  8                             |
 +----------------------------------------------------------------------------+
 |                        Shell   # Nearest-Neighbours                        |
 |                        -----   --------------------                        |
 |                          1               4                                 |
 |                          2               2                                 |
 |                          7               2                                 |
 |                          8               2                                 |
 +----------------------------------------------------------------------------+
 | Completeness relation is fully satisfied [Eq. (B1), PRB 56, 12847 (1997)]  |
 +----------------------------------------------------------------------------+
 |                  b_k Vectors (Ang^-1) and Weights (Ang^2)                  |
 |                  ----------------------------------------                  |
 |            No.         b_k(x)      b_k(y)      b_k(z)        w_b           |
 |            ---        --------------------------------     --------        |
 |             1         0.126534   -0.073055    0.018282    15.614345        |
 |             2        -0.126534   -0.073055    0.018282    15.614345        |
 |             3        -0.126534    0.073055   -0.018282    15.614345        |
 |             4         0.126534    0.073055   -0.018282    15.614345        |
 |             5         0.000000   -0.146109    0.036564    13.011966        |
 |             6         0.000000    0.146109   -0.036564    13.011966        |
 |             7         0.000000   -0.146109   -0.292513     2.602391        |
 |             8         0.000000    0.146109    0.292513     2.602391        |
 |             9         0.000000    0.000000    0.329077     2.303912        |
 |            10         0.000000    0.000000   -0.329077     2.303912        |
 +----------------------------------------------------------------------------+
 |                           b_k Directions (Ang^-1)                          |
 |                           -----------------------                          |
 |            No.           x           y           z                         |
 |            ---        --------------------------------                     |
 |             1         0.126534   -0.073055    0.018282                     |
 |             2        -0.126534   -0.073055    0.018282                     |
 |             3         0.000000   -0.146109    0.036564                     |
 |             4         0.000000   -0.146109   -0.292513                     |
 |             5         0.000000    0.000000    0.329077                     |
 +----------------------------------------------------------------------------+
  
 Time to get kmesh              0.164 (sec)
 *============================================================================*
 |                              MEMORY ESTIMATE                               |
 |         Maximum RAM allocated during each phase of the calculation         |
 *============================================================================*
 |                            Wannierise:           25.56 Mb                  |
 |                          plot_wannier:           25.56 Mb                  |
 *----------------------------------------------------------------------------*
  
 Starting a new Wannier90 calculation ...


 Reading overlaps from 10-wannier90.mmn    :  Created on 11May2023 at 21:53:56

 Reading projections from 10-wannier90.amn :  Created on 11May2023 at 21:53:49  with SCDM

 Time to read overlaps          0.509 (sec)

 Writing checkpoint file 10-wannier90.chk... done

 
 *------------------------------- WANNIERISE ---------------------------------*
 +--------------------------------------------------------------------+<-- CONV
 | Iter  Delta Spread     RMS Gradient      Spread (Ang^2)      Time  |<-- CONV
 +--------------------------------------------------------------------+<-- CONV
 
 ------------------------------------------------------------------------------
 Initial State
  WF centre and spread    1  ( -0.074833,  1.205369, -1.309780 )     5.05091725
  WF centre and spread    2  ( -0.207185, -0.943262,  1.510742 )     9.63068327
  WF centre and spread    3  ( -0.307853, -1.200989, -4.732489 )     6.04779873
  WF centre and spread    4  ( -0.007853,  1.107596, -1.270061 )     4.79795123
  WF centre and spread    5  (  0.239503, -1.204795,  1.366235 )     8.53496514
  WF centre and spread    6  (  0.025990, -0.770073, -4.657706 )    11.06706018
  WF centre and spread    7  (  0.166011,  1.099988,  5.143335 )     8.98155051
  WF centre and spread    8  ( -0.228358, -1.256151,  1.742412 )    13.14885456
  WF centre and spread    9  ( -0.010182,  1.191437, -1.070303 )     4.85359381
  WF centre and spread   10  (  0.130079, -1.607470, -4.701955 )    14.29225908
  WF centre and spread   11  ( -0.121384,  3.479543,  3.293248 )    19.84881089
  WF centre and spread   12  (  0.156132,  3.534309,  3.291750 )    19.57253822
  WF centre and spread   13  ( -0.242206, -1.424745,  1.567838 )    17.37167184
  WF centre and spread   14  (  0.248620, -3.683843, -3.024163 )    14.91930414
  WF centre and spread   15  ( -0.031698, -3.377943, -3.040302 )    13.14614914
  Sum of centres and spreads ( -0.265216, -3.851028, -5.891199 )   171.26410799
 
      0     0.171E+03     0.0000000000      171.2641121582       0.00  <-- CONV
        O_D=      7.4267572 O_OD=    108.9713463 O_TOT=    171.2641122 <-- SPRD
 ------------------------------------------------------------------------------
 Cycle:      1
  WF centre and spread    1  ( -0.057534,  1.187166, -1.270069 )     4.03224385
  WF centre and spread    2  ( -0.188821, -0.929385,  1.495813 )     7.63702370
  WF centre and spread    3  ( -0.286175, -1.193406, -4.722629 )     5.38128692
  WF centre and spread    4  ( -0.005018,  1.127931, -1.241485 )     3.75833984
  WF centre and spread    5  (  0.231064, -1.212837,  1.365690 )     6.59013911
  WF centre and spread    6  (  0.011706, -0.795453, -4.605996 )    10.03008719
  WF centre and spread    7  (  0.167069,  1.109285,  5.142553 )     8.04440894
  WF centre and spread    8  ( -0.225308, -1.247715,  1.766865 )    10.83595347
  WF centre and spread    9  ( -0.006015,  1.193254, -1.076225 )     3.70392973
  WF centre and spread   10  (  0.114479, -1.579223, -4.630191 )    12.88267752
  WF centre and spread   11  ( -0.108507,  3.488882,  3.258902 )    14.03444119
  WF centre and spread   12  (  0.180338,  3.570407,  3.259114 )    13.73772539
  WF centre and spread   13  ( -0.217896, -1.443690,  1.608181 )    13.32882916
  WF centre and spread   14  (  0.224754, -3.686947, -3.009238 )    11.76598592
  WF centre and spread   15  ( -0.052175, -3.393461, -3.012682 )    10.17868195
  Sum of centres and spreads ( -0.218038, -3.805194, -5.671397 )   135.94175388
 
      1    -0.353E+02     7.2984502359      135.9417580873       0.02  <-- CONV
        O_D=      5.0260891 O_OD=     76.0496604 O_TOT=    135.9417581 <-- SPRD
 Delta: O_D= -0.2400668E+01 O_OD= -0.3292169E+02 O_TOT= -0.3532235E+02 <-- DLTA
 ------------------------------------------------------------------------------
 Cycle:      2
  WF centre and spread    1  ( -0.043651,  1.182087, -1.237787 )     3.54771108
  WF centre and spread    2  ( -0.174073, -0.945622,  1.485901 )     6.67285584
  WF centre and spread    3  ( -0.262113, -1.191746, -4.711146 )     5.23753719
  WF centre and spread    4  (  0.000828,  1.145442, -1.218273 )     3.25290814
  WF centre and spread    5  (  0.213263, -1.219454,  1.363222 )     5.61039251
  WF centre and spread    6  ( -0.007764, -0.842007, -4.558388 )     9.77852881
  WF centre and spread    7  (  0.160061,  1.116456,  5.132972 )     7.99714460
  WF centre and spread    8  ( -0.218129, -1.245099,  1.784552 )     9.80878746
  WF centre and spread    9  ( -0.005193,  1.196149, -1.092254 )     3.12526542
  WF centre and spread   10  (  0.009764, -1.579546, -4.561470 )    13.13311789
  WF centre and spread   11  ( -0.082776,  3.473463,  3.222246 )    10.98178503
  WF centre and spread   12  (  0.169613,  3.585485,  3.213285 )    10.55862657
  WF centre and spread   13  ( -0.193706, -1.447392,  1.646081 )    11.41038074
  WF centre and spread   14  (  0.196200, -3.685158, -2.985475 )     9.95179205
  WF centre and spread   15  ( -0.067690, -3.422123, -2.980388 )     8.60192233
  Sum of centres and spreads ( -0.305365, -3.879066, -5.496921 )   119.66875564
 
      2    -0.163E+02     5.6455040610      119.6687598759       0.02  <-- CONV
        O_D=      3.9467006 O_OD=     60.8560506 O_TOT=    119.6687599 <-- SPRD
 Delta: O_D= -0.1079388E+01 O_OD= -0.1519361E+02 O_TOT= -0.1627300E+02 <-- DLTA
 ------------------------------------------------------------------------------
 Cycle:      3
  WF centre and spread    1  ( -0.036489,  1.181916, -1.223489 )     3.33240832
  WF centre and spread    2  ( -0.165769, -0.954817,  1.480307 )     6.25753013
  WF centre and spread    3  ( -0.247809, -1.193364, -4.704214 )     5.21536107
  WF centre and spread    4  (  0.002377,  1.154866, -1.207891 )     3.05261813
  WF centre and spread    5  (  0.201139, -1.221213,  1.362068 )     5.21285885
  WF centre and spread    6  ( -0.005983, -0.869298, -4.535532 )     9.87162657
  WF centre and spread    7  (  0.154386,  1.116674,  5.122789 )     8.13676708
  WF centre and spread    8  ( -0.214616, -1.247653,  1.798364 )     9.34104646
  WF centre and spread    9  ( -0.004696,  1.197290, -1.102384 )     2.97418276
  WF centre and spread   10  (  0.065667, -1.543218, -4.520925 )    12.26713014
  WF centre and spread   11  ( -0.076297,  3.484020,  3.195494 )     9.37657947
  WF centre and spread   12  (  0.163284,  3.590829,  3.188598 )     9.21600412
  WF centre and spread   13  ( -0.183313, -1.452670,  1.670498 )    10.66782830
  WF centre and spread   14  (  0.172636, -3.678997, -2.968931 )     9.09013097
  WF centre and spread   15  ( -0.072908, -3.445099, -2.963336 )     7.96272103
  Sum of centres and spreads ( -0.248390, -3.880733, -5.408584 )   111.97479341
 
      3    -0.769E+01     4.4905361258      111.9747976682       0.03  <-- CONV
        O_D=      3.0762947 O_OD=     54.0324944 O_TOT=    111.9747977 <-- SPRD
 Delta: O_D= -0.8704060E+00 O_OD= -0.6823556E+01 O_TOT= -0.7693962E+01 <-- DLTA
 ------------------------------------------------------------------------------
 Cycle:      4
  WF centre and spread    1  ( -0.028573,  1.182123, -1.209071 )     3.11653883
  WF centre and spread    2  ( -0.157466, -0.967132,  1.471511 )     5.93107307
  WF centre and spread    3  ( -0.233878, -1.197478, -4.696566 )     5.15625520
  WF centre and spread    4  (  0.002534,  1.165304, -1.197814 )     2.87542370
  WF centre and spread    5  (  0.184255, -1.222643,  1.358924 )     4.90345864
  WF centre and spread    6  ( -0.008539, -0.903677, -4.512982 )     9.95503741
  WF centre and spread    7  (  0.143601,  1.112524,  5.104447 )     8.22521374
  WF centre and spread    8  ( -0.215731, -1.252122,  1.817559 )     8.99488702
  WF centre and spread    9  ( -0.003676,  1.198662, -1.113127 )     2.83561100
  WF centre and spread   10  (  0.038269, -1.529231, -4.482119 )    11.70332306
  WF centre and spread   11  ( -0.068617,  3.498286,  3.160099 )     8.11556976
  WF centre and spread   12  (  0.150129,  3.593863,  3.158802 )     8.21501309
  WF centre and spread   13  ( -0.180086, -1.453364,  1.695696 )    10.18712479
  WF centre and spread   14  (  0.142638, -3.664995, -2.950770 )     8.32476371
  WF centre and spread   15  ( -0.072827, -3.470888, -2.945119 )     7.32479364
  Sum of centres and spreads ( -0.307967, -3.910767, -5.340531 )   105.86408668
 
      4    -0.611E+01     3.2261034192      105.8640909639       0.04  <-- CONV
        O_D=      2.8662593 O_OD=     48.1318231 O_TOT=    105.8640910 <-- SPRD
 Delta: O_D= -0.2100354E+00 O_OD= -0.5900671E+01 O_TOT= -0.6110707E+01 <-- DLTA
 ------------------------------------------------------------------------------
 Cycle:      5
  WF centre and spread    1  ( -0.020637,  1.182380, -1.195217 )     2.97442583
  WF centre and spread    2  ( -0.148865, -0.985261,  1.459184 )     5.71764495
  WF centre and spread    3  ( -0.217015, -1.201894, -4.688913 )     5.15692903
  WF centre and spread    4  (  0.002716,  1.175263, -1.188133 )     2.77503637
  WF centre and spread    5  (  0.162781, -1.223302,  1.351769 )     4.71332035
  WF centre and spread    6  ( -0.000395, -0.931218, -4.492397 )    10.15146637
  WF centre and spread    7  (  0.131104,  1.109165,  5.077646 )     8.43437670
  WF centre and spread    8  ( -0.220177, -1.255176,  1.838801 )     8.84722017
  WF centre and spread    9  ( -0.002547,  1.201130, -1.122861 )     2.76595767
  WF centre and spread   10  (  0.025594, -1.511217, -4.447300 )    11.83507330
  WF centre and spread   11  ( -0.052241,  3.515298,  3.117582 )     7.10351357
  WF centre and spread   12  (  0.128387,  3.594305,  3.120034 )     7.40192514
  WF centre and spread   13  ( -0.181551, -1.439817,  1.716314 )     9.84648203
  WF centre and spread   14  (  0.110793, -3.647620, -2.931886 )     7.57509094
  WF centre and spread   15  ( -0.067103, -3.495449, -2.927741 )     6.71868957
  Sum of centres and spreads ( -0.349156, -3.913411, -5.313118 )   102.01715200
 
      5    -0.385E+01     2.5927154555      102.0171563053       0.04  <-- CONV
        O_D=      2.8661755 O_OD=     44.2849721 O_TOT=    102.0171563 <-- SPRD
 Delta: O_D= -0.8372223E-04 O_OD= -0.3846851E+01 O_TOT= -0.3846935E+01 <-- DLTA
 ------------------------------------------------------------------------------
 Cycle:      6
  WF centre and spread    1  ( -0.014503,  1.181932, -1.183936 )     2.89820690
  WF centre and spread    2  ( -0.141568, -1.005152,  1.447247 )     5.55741708
  WF centre and spread    3  ( -0.200417, -1.205532, -4.682600 )     5.18661225
  WF centre and spread    4  (  0.003370,  1.182803, -1.179953 )     2.73646761
  WF centre and spread    5  (  0.142241, -1.222675,  1.341737 )     4.57229889
  WF centre and spread    6  (  0.011073, -0.951863, -4.477202 )    10.38483027
  WF centre and spread    7  (  0.119163,  1.105731,  5.049270 )     8.65725675
  WF centre and spread    8  ( -0.227377, -1.256572,  1.859666 )     8.79543014
  WF centre and spread    9  ( -0.001736,  1.203375, -1.128539 )     2.74995312
  WF centre and spread   10  (  0.025887, -1.500229, -4.418832 )    11.89500300
  WF centre and spread   11  ( -0.035157,  3.532964,  3.076812 )     6.40804392
  WF centre and spread   12  (  0.104805,  3.592148,  3.082045 )     6.75062286
  WF centre and spread   13  ( -0.182790, -1.424304,  1.733369 )     9.56846801
  WF centre and spread   14  (  0.083115, -3.632869, -2.917055 )     6.92930834
  WF centre and spread   15  ( -0.058905, -3.517888, -2.913992 )     6.17267464
  Sum of centres and spreads ( -0.372798, -3.918131, -5.311963 )    99.26259377
 
      6    -0.275E+01     2.3824132689       99.2625981020       0.05  <-- CONV
        O_D=      2.9062729 O_OD=     41.4903165 O_TOT=     99.2625981 <-- SPRD
 Delta: O_D=  0.4009738E-01 O_OD= -0.2794656E+01 O_TOT= -0.2754558E+01 <-- DLTA
 ------------------------------------------------------------------------------
 Cycle:      7
  WF centre and spread    1  ( -0.013093,  1.181679, -1.181204 )     2.84195346
  WF centre and spread    2  ( -0.139187, -1.008815,  1.443815 )     5.44367960
  WF centre and spread    3  ( -0.196927, -1.206940, -4.681728 )     5.15230321
  WF centre and spread    4  (  0.003751,  1.184013, -1.177726 )     2.68651237
  WF centre and spread    5  (  0.137770, -1.222362,  1.337662 )     4.48254782
  WF centre and spread    6  (  0.011394, -0.961013, -4.472476 )    10.30894236
  WF centre and spread    7  (  0.114997,  1.101931,  5.042764 )     8.60933477
  WF centre and spread    8  ( -0.228598, -1.255635,  1.865556 )     8.68396597
  WF centre and spread    9  ( -0.001492,  1.203186, -1.127988 )     2.69357874
  WF centre and spread   10  (  0.018136, -1.504160, -4.408193 )    11.78210249
  WF centre and spread   11  ( -0.031047,  3.538393,  3.066441 )     6.09824174
  WF centre and spread   12  (  0.098636,  3.592616,  3.072931 )     6.40490133
  WF centre and spread   13  ( -0.179828, -1.421055,  1.737686 )     9.31841763
  WF centre and spread   14  (  0.078278, -3.630394, -2.916039 )     6.66441013
  WF centre and spread   15  ( -0.056539, -3.524444, -2.912086 )     5.92204815
  Sum of centres and spreads ( -0.383749, -3.933000, -5.310585 )    97.09293976
 
      7    -0.217E+01     2.0740275394       97.0929440945       0.05  <-- CONV
        O_D=      2.8368285 O_OD=     39.3901070 O_TOT=     97.0929441 <-- SPRD
 Delta: O_D= -0.6944441E-01 O_OD= -0.2100210E+01 O_TOT= -0.2169654E+01 <-- DLTA
 ------------------------------------------------------------------------------
 Cycle:      8
  WF centre and spread    1  ( -0.010827,  1.181807, -1.176929 )     2.81688655
  WF centre and spread    2  ( -0.135027, -1.016251,  1.436395 )     5.39778765
  WF centre and spread    3  ( -0.190610, -1.209113, -4.680126 )     5.16261037
  WF centre and spread    4  (  0.004102,  1.186091, -1.174381 )     2.67273617
  WF centre and spread    5  (  0.128927, -1.221291,  1.329774 )     4.44284767
  WF centre and spread    6  (  0.018317, -0.970247, -4.466468 )    10.35743480
  WF centre and spread    7  (  0.108411,  1.096229,  5.030514 )     8.69031982
  WF centre and spread    8  ( -0.230056, -1.252684,  1.874130 )     8.73867353
  WF centre and spread    9  ( -0.001397,  1.203331, -1.127378 )     2.67013469
  WF centre and spread   10  (  0.014669, -1.511354, -4.391144 )    11.85590808
  WF centre and spread   11  ( -0.021978,  3.548391,  3.047844 )     5.82503277
  WF centre and spread   12  (  0.086715,  3.591839,  3.055796 )     6.09007962
  WF centre and spread   13  ( -0.176900, -1.412000,  1.742481 )     9.21777682
  WF centre and spread   14  (  0.068260, -3.625746, -2.914278 )     6.36168465
  WF centre and spread   15  ( -0.051236, -3.534443, -2.909252 )     5.66494553
  Sum of centres and spreads ( -0.388630, -3.945438, -5.323022 )    95.96485871
 
      8    -0.113E+01     1.2558753547       95.9648630599       0.06  <-- CONV
        O_D=      2.8543942 O_OD=     38.2444602 O_TOT=     95.9648631 <-- SPRD
 Delta: O_D=  0.1756574E-01 O_OD= -0.1145647E+01 O_TOT= -0.1128081E+01 <-- DLTA
 ------------------------------------------------------------------------------
 Cycle:      9
  WF centre and spread    1  ( -0.007238,  1.182481, -1.170212 )     2.80589339
  WF centre and spread    2  ( -0.128363, -1.030568,  1.421736 )     5.37937194
  WF centre and spread    3  ( -0.180043, -1.212887, -4.676752 )     5.16600976
  WF centre and spread    4  (  0.003881,  1.189711, -1.169536 )     2.68881506
  WF centre and spread    5  (  0.111097, -1.219444,  1.315094 )     4.41467271
  WF centre and spread    6  (  0.021342, -0.992411, -4.459717 )    10.45114235
  WF centre and spread    7  (  0.089639,  1.083165,  5.006997 )     8.82622173
  WF centre and spread    8  ( -0.236011, -1.247574,  1.892848 )     8.97290714
  WF centre and spread    9  ( -0.001224,  1.203961, -1.126570 )     2.65857399
  WF centre and spread   10  ( -0.012621, -1.533107, -4.360206 )    12.06706488
  WF centre and spread   11  ( -0.007311,  3.564466,  3.016260 )     5.39745523
  WF centre and spread   12  (  0.064845,  3.588862,  3.026814 )     5.63747211
  WF centre and spread   13  ( -0.176545, -1.394128,  1.751940 )     9.22908421
  WF centre and spread   14  (  0.048315, -3.616856, -2.911222 )     5.86006926
  WF centre and spread   15  ( -0.040969, -3.548923, -2.905790 )     5.25580939
  Sum of centres and spreads ( -0.451207, -3.983252, -5.348318 )    94.81056314
 
      9    -0.115E+01     1.0885593776       94.8105675038       0.07  <-- CONV
        O_D=      3.1549465 O_OD=     36.7896123 O_TOT=     94.8105675 <-- SPRD
 Delta: O_D=  0.3005523E+00 O_OD= -0.1454848E+01 O_TOT= -0.1154296E+01 <-- DLTA
 ------------------------------------------------------------------------------
 Cycle:     10
  WF centre and spread    1  ( -0.003174,  1.183394, -1.162937 )     2.82691234
  WF centre and spread    2  ( -0.119248, -1.050294,  1.400927 )     5.37083642
  WF centre and spread    3  ( -0.165424, -1.216609, -4.671988 )     5.19596840
  WF centre and spread    4  (  0.003177,  1.194230, -1.164453 )     2.75056291
  WF centre and spread    5  (  0.086119, -1.216704,  1.294557 )     4.38564211
  WF centre and spread    6  (  0.026525, -1.019178, -4.456010 )    10.60508950
  WF centre and spread    7  (  0.059702,  1.065499,  4.974686 )     8.99446395
  WF centre and spread    8  ( -0.244310, -1.237416,  1.923986 )     9.37980662
  WF centre and spread    9  ( -0.000680,  1.204813, -1.125464 )     2.66424813
  WF centre and spread   10  ( -0.026635, -1.554497, -4.320368 )    11.95332920
  WF centre and spread   11  (  0.010117,  3.582000,  2.979089 )     4.87744394
  WF centre and spread   12  (  0.035450,  3.582769,  2.993106 )     5.08533999
  WF centre and spread   13  ( -0.177822, -1.366735,  1.766198 )     9.36361735
  WF centre and spread   14  (  0.025804, -3.606507, -2.908799 )     5.23113664
  WF centre and spread   15  ( -0.028931, -3.562645, -2.905011 )     4.79279190
  Sum of centres and spreads ( -0.519330, -4.017879, -5.382482 )    93.47718940
 
     10    -0.133E+01     1.2894679914       93.4771937803       0.07  <-- CONV
        O_D=      3.3344520 O_OD=     35.2767331 O_TOT=     93.4771938 <-- SPRD
 Delta: O_D=  0.1795055E+00 O_OD= -0.1512879E+01 O_TOT= -0.1333374E+01 <-- DLTA
 ------------------------------------------------------------------------------
 Cycle:     11
  WF centre and spread    1  ( -0.000901,  1.183661, -1.158902 )     2.86333872
  WF centre and spread    2  ( -0.112684, -1.064753,  1.384542 )     5.33280179
  WF centre and spread    3  ( -0.154218, -1.216973, -4.668680 )     5.22840446
  WF centre and spread    4  (  0.002946,  1.197428, -1.161519 )     2.82227965
  WF centre and spread    5  (  0.067022, -1.214414,  1.278021 )     4.33865839
  WF centre and spread    6  (  0.021588, -1.038664, -4.456539 )    10.71045753
  WF centre and spread    7  (  0.031196,  1.052880,  4.950322 )     9.04406389
  WF centre and spread    8  ( -0.254197, -1.223702,  1.956091 )     9.65043667
  WF centre and spread    9  (  0.000082,  1.205269, -1.124792 )     2.68558048
  WF centre and spread   10  ( -0.048910, -1.580406, -4.289233 )    11.74959205
  WF centre and spread   11  (  0.020874,  3.591903,  2.956278 )     4.57868957
  WF centre and spread   12  (  0.013427,  3.575922,  2.971589 )     4.70832760
  WF centre and spread   13  ( -0.181961, -1.341886,  1.779280 )     9.45771702
  WF centre and spread   14  (  0.013909, -3.602102, -2.908517 )     4.81408443
  WF centre and spread   15  ( -0.022150, -3.568497, -2.907366 )     4.53706532
  Sum of centres and spreads ( -0.603978, -4.044335, -5.399426 )    92.52149757
 
     11    -0.956E+00     1.2014741692       92.5215019496       0.08  <-- CONV
        O_D=      3.3738136 O_OD=     34.2816798 O_TOT=     92.5215019 <-- SPRD
 Delta: O_D=  0.3936156E-01 O_OD= -0.9950534E+00 O_TOT= -0.9556918E+00 <-- DLTA
 ------------------------------------------------------------------------------
 Cycle:     12
  WF centre and spread    1  (  0.000120,  1.183364, -1.156955 )     2.88860208
  WF centre and spread    2  ( -0.107332, -1.073482,  1.370548 )     5.22678562
  WF centre and spread    3  ( -0.145316, -1.214683, -4.667173 )     5.25230039
  WF centre and spread    4  (  0.003329,  1.199696, -1.159785 )     2.88278754
  WF centre and spread    5  (  0.053298, -1.211943,  1.264059 )     4.25450276
  WF centre and spread    6  (  0.015034, -1.049026, -4.458662 )    10.76470480
  WF centre and spread    7  (  0.008088,  1.045414,  4.931690 )     9.00954895
  WF centre and spread    8  ( -0.267504, -1.203216,  1.988853 )     9.83039456
  WF centre and spread    9  (  0.000964,  1.205228, -1.124591 )     2.71992157
  WF centre and spread   10  ( -0.050791, -1.594729, -4.264331 )    11.55021913
  WF centre and spread   11  (  0.025699,  3.597293,  2.942531 )     4.44040847
  WF centre and spread   12  ( -0.002678,  3.569866,  2.956315 )     4.47773209
  WF centre and spread   13  ( -0.188944, -1.315445,  1.790576 )     9.50923466
  WF centre and spread   14  (  0.008305, -3.602371, -2.909392 )     4.55481776
  WF centre and spread   15  ( -0.019155, -3.570281, -2.910527 )     4.44679473
  Sum of centres and spreads ( -0.666885, -4.034314, -5.406843 )    91.80875510
 
     12    -0.713E+00     1.0095896656       91.8087594803       0.09  <-- CONV
        O_D=      3.3391273 O_OD=     33.6036236 O_TOT=     91.8087595 <-- SPRD
 Delta: O_D= -0.3468627E-01 O_OD= -0.6780562E+00 O_TOT= -0.7127425E+00 <-- DLTA
 ------------------------------------------------------------------------------
 Cycle:     13
  WF centre and spread    1  (  0.000066,  1.183376, -1.157075 )     2.87551362
  WF centre and spread    2  ( -0.106426, -1.073447,  1.369080 )     5.17586669
  WF centre and spread    3  ( -0.144607, -1.214426, -4.667613 )     5.22968314
  WF centre and spread    4  (  0.003586,  1.199553, -1.159718 )     2.87411383
  WF centre and spread    5  (  0.053323, -1.211619,  1.263048 )     4.22207502
  WF centre and spread    6  (  0.012268, -1.049382, -4.458951 )    10.73393900
  WF centre and spread    7  (  0.005915,  1.043162,  4.930775 )     8.95061665
  WF centre and spread    8  ( -0.265555, -1.204034,  1.992894 )     9.82241016
  WF centre and spread    9  (  0.001024,  1.205131, -1.124663 )     2.72129196
  WF centre and spread   10  ( -0.056537, -1.605407, -4.261670 )    11.50800543
  WF centre and spread   11  (  0.025847,  3.597983,  2.941528 )     4.42521801
  WF centre and spread   12  ( -0.003559,  3.569746,  2.954653 )     4.45871506
  WF centre and spread   13  ( -0.186243, -1.315672,  1.791937 )     9.49574106
  WF centre and spread   14  (  0.008675, -3.602502, -2.909236 )     4.53481949
  WF centre and spread   15  ( -0.019124, -3.570247, -2.910188 )     4.44776701
  Sum of centres and spreads ( -0.671347, -4.047785, -5.405199 )    91.47577611
 
     13    -0.333E+00     0.9192955809       91.4757804957       0.09  <-- CONV
        O_D=      3.3133922 O_OD=     33.2963796 O_TOT=     91.4757805 <-- SPRD
 Delta: O_D= -0.2573506E-01 O_OD= -0.3072439E+00 O_TOT= -0.3329790E+00 <-- DLTA
 ------------------------------------------------------------------------------
 Cycle:     14
  WF centre and spread    1  ( -0.000083,  1.183556, -1.157511 )     2.85661300
  WF centre and spread    2  ( -0.105113, -1.073227,  1.365364 )     5.08335215
  WF centre and spread    3  ( -0.143170, -1.213740, -4.669051 )     5.20270580
  WF centre and spread    4  (  0.004179,  1.199220, -1.159720 )     2.86475538
  WF centre and spread    5  (  0.053011, -1.210642,  1.260325 )     4.16740909
  WF centre and spread    6  (  0.005920, -1.049604, -4.460393 )    10.73681732
  WF centre and spread    7  (  0.002050,  1.039221,  4.927921 )     8.86897585
  WF centre and spread    8  ( -0.273382, -1.192459,  2.008523 )     9.88998870
  WF centre and spread    9  (  0.001151,  1.204979, -1.124849 )     2.73583335
  WF centre and spread   10  ( -0.051170, -1.614206, -4.257794 )    11.40901954
  WF centre and spread   11  (  0.026248,  3.599328,  2.939424 )     4.43475682
  WF centre and spread   12  ( -0.005644,  3.568753,  2.951129 )     4.45475062
  WF centre and spread   13  ( -0.190289, -1.306886,  1.797257 )     9.53903841
  WF centre and spread   14  (  0.009645, -3.603055, -2.908941 )     4.51987038
  WF centre and spread   15  ( -0.019095, -3.569758, -2.909659 )     4.47177267
  Sum of centres and spreads ( -0.685741, -4.038519, -5.397975 )    91.23565907
 
     14    -0.240E+00     0.5743211879       91.2356634504       0.10  <-- CONV
        O_D=      3.2945076 O_OD=     33.0751472 O_TOT=     91.2356635 <-- SPRD
 Delta: O_D= -0.1888465E-01 O_OD= -0.2212324E+00 O_TOT= -0.2401170E+00 <-- DLTA
 ------------------------------------------------------------------------------
 Cycle:     15
  WF centre and spread    1  ( -0.000242,  1.183930, -1.158210 )     2.83955141
  WF centre and spread    2  ( -0.102961, -1.074148,  1.360207 )     4.99051817
  WF centre and spread    3  ( -0.141324, -1.213345, -4.670971 )     5.17870107
  WF centre and spread    4  (  0.004749,  1.198801, -1.159973 )     2.85760696
  WF centre and spread    5  (  0.052667, -1.209814,  1.256798 )     4.11434042
  WF centre and spread    6  ( -0.002435, -1.051044, -4.462919 )    10.76092694
  WF centre and spread    7  ( -0.003021,  1.033506,  4.924464 )     8.76705883
  WF centre and spread    8  ( -0.273363, -1.190549,  2.022649 )     9.94782339
  WF centre and spread    9  (  0.001259,  1.204908, -1.125032 )     2.75254471
  WF centre and spread   10  ( -0.049918, -1.633458, -4.252243 )    11.36386093
  WF centre and spread   11  (  0.026840,  3.600503,  2.937385 )     4.44916041
  WF centre and spread   12  ( -0.007904,  3.567198,  2.947547 )     4.45251291
  WF centre and spread   13  ( -0.187576, -1.303868,  1.802394 )     9.59302669
  WF centre and spread   14  (  0.010844, -3.604061, -2.908807 )     4.50824769
  WF centre and spread   15  ( -0.019129, -3.568832, -2.909395 )     4.49129819
  Sum of centres and spreads ( -0.691515, -4.060275, -5.396106 )    91.06717873
 
     15    -0.168E+00     0.5390201122       91.0671831067       0.10  <-- CONV
        O_D=      3.2870846 O_OD=     32.9140899 O_TOT=     91.0671831 <-- SPRD
 Delta: O_D= -0.7423012E-02 O_OD= -0.1610573E+00 O_TOT= -0.1684803E+00 <-- DLTA
 ------------------------------------------------------------------------------
 Cycle:     16
  WF centre and spread    1  ( -0.000404,  1.184589, -1.159268 )     2.82157492
  WF centre and spread    2  ( -0.100657, -1.075813,  1.352763 )     4.86940624
  WF centre and spread    3  ( -0.138810, -1.213614, -4.674030 )     5.14683680
  WF centre and spread    4  (  0.005261,  1.198230, -1.160499 )     2.85130491
  WF centre and spread    5  (  0.051599, -1.208698,  1.251683 )     4.04934905
  WF centre and spread    6  ( -0.013768, -1.054771, -4.467854 )    10.80640897
  WF centre and spread    7  ( -0.010290,  1.024488,  4.919648 )     8.61624051
  WF centre and spread    8  ( -0.287715, -1.174890,  2.050404 )    10.06622683
  WF centre and spread    9  (  0.001337,  1.204905, -1.125140 )     2.76766678
  WF centre and spread   10  ( -0.050506, -1.666127, -4.244499 )    11.34056621
  WF centre and spread   11  (  0.027683,  3.601687,  2.935281 )     4.46792478
  WF centre and spread   12  ( -0.010593,  3.565024,  2.943549 )     4.44723109
  WF centre and spread   13  ( -0.194038, -1.291533,  1.811410 )     9.65974019
  WF centre and spread   14  (  0.012240, -3.605683, -2.908947 )     4.49664359
  WF centre and spread   15  ( -0.019218, -3.567528, -2.909517 )     4.50400022
  Sum of centres and spreads ( -0.727879, -4.079734, -5.385016 )    90.91112109
 
     16    -0.156E+00     0.5088163809       90.9111254680       0.11  <-- CONV
        O_D=      3.3060368 O_OD=     32.7390800 O_TOT=     90.9111255 <-- SPRD
 Delta: O_D=  0.1895227E-01 O_OD= -0.1750099E+00 O_TOT= -0.1560576E+00 <-- DLTA
 ------------------------------------------------------------------------------
 Cycle:     17
  WF centre and spread    1  ( -0.000557,  1.185659, -1.160790 )     2.80129056
  WF centre and spread    2  ( -0.096326, -1.079298,  1.340811 )     4.71158922
  WF centre and spread    3  ( -0.134201, -1.214750, -4.678822 )     5.10153088
  WF centre and spread    4  (  0.005729,  1.197428, -1.161274 )     2.84552080
  WF centre and spread    5  (  0.050172, -1.207207,  1.243851 )     3.96625159
  WF centre and spread    6  ( -0.026704, -1.061326, -4.475893 )    10.91542709
  WF centre and spread    7  ( -0.018127,  1.011960,  4.913290 )     8.39459204
  WF centre and spread    8  ( -0.297337, -1.162545,  2.087476 )    10.20550522
  WF centre and spread    9  (  0.001330,  1.205003, -1.125021 )     2.77592012
  WF centre and spread   10  ( -0.047567, -1.714400, -4.230958 )    11.38480965
  WF centre and spread   11  (  0.028936,  3.603046,  2.933019 )     4.49105656
  WF centre and spread   12  ( -0.013714,  3.561953,  2.938709 )     4.43567356
  WF centre and spread   13  ( -0.195780, -1.280326,  1.821584 )     9.73305754
  WF centre and spread   14  (  0.013669, -3.608129, -2.909589 )     4.48384927
  WF centre and spread   15  ( -0.018983, -3.565946, -2.910111 )     4.50861632
  Sum of centres and spreads ( -0.749459, -4.128877, -5.373718 )    90.75469046
 
     17    -0.156E+00     0.4946178538       90.7546948473       0.11  <-- CONV
        O_D=      3.3323475 O_OD=     32.5563387 O_TOT=     90.7546948 <-- SPRD
 Delta: O_D=  0.2631067E-01 O_OD= -0.1827413E+00 O_TOT= -0.1564306E+00 <-- DLTA
 ------------------------------------------------------------------------------
 Cycle:     18
  WF centre and spread    1  ( -0.000590,  1.186656, -1.162108 )     2.78603504
  WF centre and spread    2  ( -0.091517, -1.082801,  1.328093 )     4.55898832
  WF centre and spread    3  ( -0.128327, -1.216013, -4.684038 )     5.05332475
  WF centre and spread    4  (  0.006050,  1.196753, -1.161809 )     2.84033542
  WF centre and spread    5  (  0.048892, -1.205393,  1.235719 )     3.88573961
  WF centre and spread    6  ( -0.035212, -1.066093, -4.484799 )    11.05515411
  WF centre and spread    7  ( -0.022338,  1.002703,  4.907319 )     8.17585197
  WF centre and spread    8  ( -0.311506, -1.142960,  2.125542 )    10.36467366
  WF centre and spread    9  (  0.001258,  1.205147, -1.124652 )     2.77132250
  WF centre and spread   10  ( -0.043229, -1.761248, -4.214740 )    11.47326452
  WF centre and spread   11  (  0.030070,  3.604191,  2.931317 )     4.50293530
  WF centre and spread   12  ( -0.016079,  3.559376,  2.934616 )     4.41527768
  WF centre and spread   13  ( -0.198344, -1.265912,  1.829213 )     9.77783190
  WF centre and spread   14  (  0.014568, -3.610351, -2.910585 )     4.47288944
  WF centre and spread   15  ( -0.018209, -3.564890, -2.910920 )     4.50178225
  Sum of centres and spreads ( -0.764513, -4.160836, -5.361833 )    90.63540646
 
     18    -0.119E+00     0.4833223956       90.6354108499       0.12  <-- CONV
        O_D=      3.3883658 O_OD=     32.3810365 O_TOT=     90.6354108 <-- SPRD
 Delta: O_D=  0.5601825E-01 O_OD= -0.1753022E+00 O_TOT= -0.1192840E+00 <-- DLTA
 ------------------------------------------------------------------------------
 Cycle:     19
  WF centre and spread    1  ( -0.000440,  1.186659, -1.162015 )     2.78547054
  WF centre and spread    2  ( -0.090131, -1.083403,  1.324561 )     4.52193886
  WF centre and spread    3  ( -0.125977, -1.216706, -4.685550 )     5.03833764
  WF centre and spread    4  (  0.006068,  1.196866, -1.161610 )     2.83802107
  WF centre and spread    5  (  0.048963, -1.204540,  1.233533 )     3.86496828
  WF centre and spread    6  ( -0.032558, -1.066975, -4.487420 )    11.09485004
  WF centre and spread    7  ( -0.020985,  1.002319,  4.905800 )     8.12752469
  WF centre and spread    8  ( -0.317023, -1.135431,  2.134667 )    10.38496165
  WF centre and spread    9  (  0.001298,  1.205152, -1.124503 )     2.75926431
  WF centre and spread   10  ( -0.042968, -1.772201, -4.208657 )    11.46208572
  WF centre and spread   11  (  0.030160,  3.604132,  2.931273 )     4.49367258
  WF centre and spread   12  ( -0.016150,  3.559709,  2.934253 )     4.38934643
  WF centre and spread   13  ( -0.199789, -1.259488,  1.829779 )     9.76682506
  WF centre and spread   14  (  0.014428, -3.610602, -2.910987 )     4.46710104
  WF centre and spread   15  ( -0.017661, -3.565221, -2.911187 )     4.48814617
  Sum of centres and spreads ( -0.762765, -4.159730, -5.358064 )    90.48251408
 
     19    -0.153E+00     0.4835325762       90.4825184750       0.13  <-- CONV
        O_D=      3.4036893 O_OD=     32.2128205 O_TOT=     90.4825185 <-- SPRD
 Delta: O_D=  0.1532357E-01 O_OD= -0.1682159E+00 O_TOT= -0.1528924E+00 <-- DLTA
 ------------------------------------------------------------------------------
 Cycle:     20
  WF centre and spread    1  ( -0.000234,  1.186817, -1.161990 )     2.78712154
  WF centre and spread    2  ( -0.087813, -1.084737,  1.318154 )     4.46705185
  WF centre and spread    3  ( -0.122163, -1.218055, -4.688303 )     5.01360413
  WF centre and spread    4  (  0.006033,  1.197058, -1.161371 )     2.83796146
  WF centre and spread    5  (  0.048907, -1.203205,  1.229770 )     3.83608142
  WF centre and spread    6  ( -0.030214, -1.067833, -4.492292 )    11.17372173
  WF centre and spread    7  ( -0.019462,  1.002174,  4.903015 )     8.04238599
  WF centre and spread    8  ( -0.325521, -1.123635,  2.149934 )    10.41691536
  WF centre and spread    9  (  0.001347,  1.205193, -1.124318 )     2.74316655
  WF centre and spread   10  ( -0.044330, -1.787055, -4.198579 )    11.52200792
  WF centre and spread   11  (  0.030249,  3.603910,  2.931358 )     4.48585765
  WF centre and spread   12  ( -0.016457,  3.559977,  2.933703 )     4.36012144
  WF centre and spread   13  ( -0.200223, -1.252676,  1.828929 )     9.74543803
  WF centre and spread   14  (  0.013999, -3.610929, -2.911710 )     4.46175918
  WF centre and spread   15  ( -0.016733, -3.565581, -2.911728 )     4.47069354
  Sum of centres and spreads ( -0.762614, -4.158577, -5.355428 )    90.36388778
 
     20    -0.119E+00     0.4069525243       90.3638921716       0.13  <-- CONV
        O_D=      3.4108413 O_OD=     32.0870422 O_TOT=     90.3638922 <-- SPRD
 Delta: O_D=  0.7151976E-02 O_OD= -0.1257783E+00 O_TOT= -0.1186263E+00 <-- DLTA
 ------------------------------------------------------------------------------
 Cycle:     21
  WF centre and spread    1  (  0.000021,  1.187177, -1.162148 )     2.79076249
  WF centre and spread    2  ( -0.084673, -1.086988,  1.307908 )     4.36827359
  WF centre and spread    3  ( -0.116502, -1.220642, -4.692829 )     4.96361360
  WF centre and spread    4  (  0.005855,  1.197341, -1.161185 )     2.84094516
  WF centre and spread    5  (  0.048350, -1.201131,  1.223962 )     3.78683849
  WF centre and spread    6  ( -0.028875, -1.070485, -4.499954 )    11.27926941
  WF centre and spread    7  ( -0.018214,  1.000851,  4.898920 )     7.87192846
  WF centre and spread    8  ( -0.346637, -1.097453,  2.176326 )    10.48862224
  WF centre and spread    9  (  0.001410,  1.205281, -1.124150 )     2.72549949
  WF centre and spread   10  ( -0.045657, -1.821715, -4.179905 )    11.68324378
  WF centre and spread   11  (  0.030392,  3.603570,  2.931692 )     4.48230747
  WF centre and spread   12  ( -0.017279,  3.560221,  2.932863 )     4.33431765
  WF centre and spread   13  ( -0.207805, -1.231458,  1.828946 )     9.73138699
  WF centre and spread   14  (  0.013154, -3.611295, -2.912802 )     4.45596035
  WF centre and spread   15  ( -0.015612, -3.565860, -2.912626 )     4.44833914
  Sum of centres and spreads ( -0.782072, -4.152587, -5.344981 )    90.25130832
 
     21    -0.113E+00     0.3557554623       90.2513127080       0.14  <-- CONV
        O_D=      3.5071827 O_OD=     31.8781214 O_TOT=     90.2513127 <-- SPRD
 Delta: O_D=  0.9634138E-01 O_OD= -0.2089208E+00 O_TOT= -0.1125795E+00 <-- DLTA
 ------------------------------------------------------------------------------
 Cycle:     22
  WF centre and spread    1  (  0.000332,  1.187909, -1.162691 )     2.79857107
  WF centre and spread    2  ( -0.079116, -1.091581,  1.289428 )     4.18981787
  WF centre and spread    3  ( -0.106332, -1.225020, -4.701505 )     4.87706703
  WF centre and spread    4  (  0.005518,  1.197813, -1.161003 )     2.85066761
  WF centre and spread    5  (  0.047000, -1.197460,  1.213781 )     3.69703771
  WF centre and spread    6  ( -0.029668, -1.074902, -4.514251 )    11.51464760
  WF centre and spread    7  ( -0.016254,  0.999286,  4.891324 )     7.54898101
  WF centre and spread    8  ( -0.382049, -1.048559,  2.225958 )    10.59683519
  WF centre and spread    9  (  0.001535,  1.205456, -1.123955 )     2.70802526
  WF centre and spread   10  ( -0.047815, -1.890284, -4.141674 )    11.91475824
  WF centre and spread   11  (  0.030480,  3.603140,  2.932363 )     4.49080763
  WF centre and spread   12  ( -0.019002,  3.560164,  2.931310 )     4.31471413
  WF centre and spread   13  ( -0.215643, -1.199623,  1.825333 )     9.70701601
  WF centre and spread   14  (  0.011540, -3.611878, -2.914709 )     4.45400004
  WF centre and spread   15  ( -0.014166, -3.565940, -2.914295 )     4.42355709
  Sum of centres and spreads ( -0.813637, -4.151478, -5.324586 )    90.08650351
 
     22    -0.165E+00     0.4260926213       90.0865079040       0.14  <-- CONV
        O_D=      3.5860789 O_OD=     31.6344204 O_TOT=     90.0865079 <-- SPRD
 Delta: O_D=  0.7889622E-01 O_OD= -0.2437010E+00 O_TOT= -0.1648048E+00 <-- DLTA
 ------------------------------------------------------------------------------
 Cycle:     23
  WF centre and spread    1  (  0.000663,  1.189550, -1.164177 )     2.82036234
  WF centre and spread    2  ( -0.067327, -1.104116,  1.253001 )     3.78420275
  WF centre and spread    3  ( -0.084853, -1.232691, -4.720465 )     4.71031667
  WF centre and spread    4  (  0.004969,  1.198675, -1.160709 )     2.87806855
  WF centre and spread    5  (  0.043163, -1.191713,  1.194532 )     3.49474007
  WF centre and spread    6  ( -0.040939, -1.087682, -4.545429 )    12.06048093
  WF centre and spread    7  ( -0.013075,  0.999399,  4.876072 )     6.83939450
  WF centre and spread    8  ( -0.481892, -0.908982,  2.344214 )    10.99224684
  WF centre and spread    9  (  0.001826,  1.205807, -1.123571 )     2.69944724
  WF centre and spread   10  ( -0.058764, -2.046958, -4.048730 )    12.10144907
  WF centre and spread   11  (  0.029990,  3.603027,  2.933505 )     4.53287701
  WF centre and spread   12  ( -0.022532,  3.559183,  2.928013 )     4.32478392
  WF centre and spread   13  ( -0.244288, -1.101576,  1.816690 )     9.79868572
  WF centre and spread   14  (  0.007878, -3.613155, -2.918687 )     4.46907886
  WF centre and spread   15  ( -0.012024, -3.565733, -2.917850 )     4.41029246
  Sum of centres and spreads ( -0.937204, -4.096966, -5.253593 )    89.91642693
 
     23    -0.170E+00     0.5740860694       89.9164313183       0.15  <-- CONV
        O_D=      3.9916458 O_OD=     31.0587769 O_TOT=     89.9164313 <-- SPRD
 Delta: O_D=  0.4055669E+00 O_OD= -0.5756434E+00 O_TOT= -0.1700766E+00 <-- DLTA
 ------------------------------------------------------------------------------
 Cycle:     24
  WF centre and spread    1  (  0.000561,  1.189436, -1.164184 )     2.80862266
  WF centre and spread    2  ( -0.067120, -1.104488,  1.251505 )     3.74905109
  WF centre and spread    3  ( -0.082973, -1.232811, -4.721986 )     4.66900204
  WF centre and spread    4  (  0.005255,  1.198649, -1.160402 )     2.87092402
  WF centre and spread    5  (  0.043060, -1.191788,  1.193797 )     3.48175949
  WF centre and spread    6  ( -0.041551, -1.085059, -4.546791 )    12.01795519
  WF centre and spread    7  ( -0.012051,  1.000433,  4.874842 )     6.72322974
  WF centre and spread    8  ( -0.488131, -0.922898,  2.341797 )    10.88949077
  WF centre and spread    9  (  0.001971,  1.205691, -1.123787 )     2.70553793
  WF centre and spread   10  ( -0.055010, -2.060674, -4.037497 )    12.14048707
  WF centre and spread   11  (  0.029579,  3.603990,  2.932690 )     4.52834374
  WF centre and spread   12  ( -0.022625,  3.559070,  2.927193 )     4.32743281
  WF centre and spread   13  ( -0.239792, -1.126702,  1.808607 )     9.61691909
  WF centre and spread   14  (  0.008051, -3.613191, -2.918193 )     4.45127944
  WF centre and spread   15  ( -0.012483, -3.565717, -2.917157 )     4.41643493
  Sum of centres and spreads ( -0.933258, -4.146060, -5.259566 )    89.39647000
 
     24    -0.520E+00     1.2305619459       89.3964744014       0.16  <-- CONV
        O_D=      3.9192252 O_OD=     30.6112406 O_TOT=     89.3964744 <-- SPRD
 Delta: O_D= -0.7242060E-01 O_OD= -0.4475363E+00 O_TOT= -0.5199569E+00 <-- DLTA
 ------------------------------------------------------------------------------
 Cycle:     25
  WF centre and spread    1  (  0.000332,  1.189329, -1.164313 )     2.79870992
  WF centre and spread    2  ( -0.067096, -1.104148,  1.249020 )     3.72017522
  WF centre and spread    3  ( -0.079988, -1.233575, -4.724670 )     4.62158177
  WF centre and spread    4  (  0.005670,  1.198508, -1.159937 )     2.86742982
  WF centre and spread    5  (  0.043055, -1.190861,  1.192357 )     3.48593982
  WF centre and spread    6  ( -0.050202, -1.086165, -4.549984 )    12.03795875
  WF centre and spread    7  ( -0.011258,  1.001294,  4.872850 )     6.58260949
  WF centre and spread    8  ( -0.532277, -0.873703,  2.370981 )    10.80912440
  WF centre and spread    9  (  0.002180,  1.205498, -1.124100 )     2.72259112
  WF centre and spread   10  ( -0.076160, -2.097721, -4.016504 )    12.38724248
  WF centre and spread   11  (  0.028926,  3.605713,  2.931469 )     4.54945753
  WF centre and spread   12  ( -0.022845,  3.558565,  2.926010 )     4.35485652
  WF centre and spread   13  ( -0.263324, -1.098001,  1.803188 )     9.46504311
  WF centre and spread   14  (  0.008355, -3.613551, -2.917501 )     4.44419767
  WF centre and spread   15  ( -0.013245, -3.565365, -2.916265 )     4.44454101
  Sum of centres and spreads ( -1.027876, -4.104184, -5.227397 )    89.29145865
 
     25    -0.105E+00     1.4242624000       89.2914630501       0.16  <-- CONV
        O_D=      3.8966038 O_OD=     30.5288507 O_TOT=     89.2914631 <-- SPRD
 Delta: O_D= -0.2262140E-01 O_OD= -0.8238995E-01 O_TOT= -0.1050114E+00 <-- DLTA
 ------------------------------------------------------------------------------
 Cycle:     26
  WF centre and spread    1  (  0.000267,  1.189336, -1.164437 )     2.79645667
  WF centre and spread    2  ( -0.066774, -1.104407,  1.247819 )     3.70238009
  WF centre and spread    3  ( -0.078534, -1.233900, -4.725899 )     4.60733622
  WF centre and spread    4  (  0.005851,  1.198432, -1.159791 )     2.86760962
  WF centre and spread    5  (  0.043128, -1.190539,  1.191794 )     3.48478359
  WF centre and spread    6  ( -0.052381, -1.084500, -4.551301 )    12.08810436
  WF centre and spread    7  ( -0.010475,  1.002214,  4.871956 )     6.53856877
  WF centre and spread    8  ( -0.544152, -0.859789,  2.379655 )    10.84211931
  WF centre and spread    9  (  0.002271,  1.205435, -1.124234 )     2.73104966
  WF centre and spread   10  ( -0.063236, -2.102957, -4.009854 )    12.23203236
  WF centre and spread   11  (  0.028733,  3.606361,  2.931031 )     4.55883312
  WF centre and spread   12  ( -0.022886,  3.558285,  2.925580 )     4.36829844
  WF centre and spread   13  ( -0.267317, -1.090672,  1.799812 )     9.45382025
  WF centre and spread   14  (  0.008565, -3.613679, -2.917275 )     4.44541985
  WF centre and spread   15  ( -0.013461, -3.565170, -2.915968 )     4.45845511
  Sum of centres and spreads ( -1.030402, -4.085550, -5.221113 )    89.17526744
 
     26    -0.116E+00     2.0562564588       89.1752718403       0.17  <-- CONV
        O_D=      3.7968550 O_OD=     30.5124082 O_TOT=     89.1752718 <-- SPRD
 Delta: O_D= -0.9974880E-01 O_OD= -0.1644241E-01 O_TOT= -0.1161912E+00 <-- DLTA
 ------------------------------------------------------------------------------
 Cycle:     27
  WF centre and spread    1  (  0.000236,  1.189384, -1.164647 )     2.79367165
  WF centre and spread    2  ( -0.066113, -1.105397,  1.246127 )     3.65850749
  WF centre and spread    3  ( -0.076505, -1.234502, -4.727611 )     4.58623164
  WF centre and spread    4  (  0.006056,  1.198322, -1.159676 )     2.86731651
  WF centre and spread    5  (  0.043281, -1.190336,  1.191168 )     3.46995409
  WF centre and spread    6  ( -0.054862, -1.082724, -4.553357 )    12.14551165
  WF centre and spread    7  ( -0.009455,  1.003431,  4.870850 )     6.46887182
  WF centre and spread    8  ( -0.551736, -0.848329,  2.389737 )    10.79274464
  WF centre and spread    9  (  0.002402,  1.205365, -1.124398 )     2.74022728
  WF centre and spread   10  ( -0.046564, -2.112907, -4.000100 )    12.08588845
  WF centre and spread   11  (  0.028598,  3.607004,  2.930604 )     4.56126311
  WF centre and spread   12  ( -0.022889,  3.557835,  2.925130 )     4.37910444
  WF centre and spread   13  ( -0.265192, -1.087217,  1.794224 )     9.34962636
  WF centre and spread   14  (  0.008852, -3.613888, -2.917088 )     4.44508108
  WF centre and spread   15  ( -0.013614, -3.564982, -2.915670 )     4.47021392
  Sum of centres and spreads ( -1.017507, -4.078939, -5.214707 )    88.81421412
 
     27    -0.361E+00     1.4313352461       88.8142185280       0.17  <-- CONV
        O_D=      3.6635954 O_OD=     30.2846145 O_TOT=     88.8142185 <-- SPRD
 Delta: O_D= -0.1332596E+00 O_OD= -0.2277937E+00 O_TOT= -0.3610533E+00 <-- DLTA
 ------------------------------------------------------------------------------
 Cycle:     28
  WF centre and spread    1  (  0.000234,  1.189470, -1.164925 )     2.79104641
  WF centre and spread    2  ( -0.065192, -1.107183,  1.243818 )     3.59519226
  WF centre and spread    3  ( -0.074033, -1.235748, -4.729854 )     4.55597987
  WF centre and spread    4  (  0.006253,  1.198168, -1.159627 )     2.86676967
  WF centre and spread    5  (  0.043457, -1.190240,  1.190410 )     3.44632730
  WF centre and spread    6  ( -0.064944, -1.089944, -4.556594 )    12.19096600
  WF centre and spread    7  ( -0.009113,  1.003743,  4.869711 )     6.36428233
  WF centre and spread    8  ( -0.557254, -0.835724,  2.402445 )    10.83948443
  WF centre and spread    9  (  0.002577,  1.205292, -1.124575 )     2.74937032
  WF centre and spread   10  ( -0.048492, -2.144753, -3.983308 )    11.91680223
  WF centre and spread   11  (  0.028512,  3.607553,  2.930226 )     4.56267380
  WF centre and spread   12  ( -0.022896,  3.557163,  2.924741 )     4.38883993
  WF centre and spread   13  ( -0.259398, -1.085111,  1.785640 )     9.28068052
  WF centre and spread   14  (  0.009096, -3.614326, -2.917032 )     4.44473513
  WF centre and spread   15  ( -0.013747, -3.564871, -2.915400 )     4.47872712
  Sum of centres and spreads ( -1.024940, -4.106510, -5.204322 )    88.47187731
 
     28    -0.342E+00     1.1715806503       88.4718817218       0.18  <-- CONV
        O_D=      3.6708503 O_OD=     29.9350228 O_TOT=     88.4718817 <-- SPRD
 Delta: O_D=  0.7254946E-02 O_OD= -0.3495918E+00 O_TOT= -0.3423368E+00 <-- DLTA
 ------------------------------------------------------------------------------
 Cycle:     29
  WF centre and spread    1  (  0.000286,  1.189652, -1.165302 )     2.79022702
  WF centre and spread    2  ( -0.064330, -1.109335,  1.240723 )     3.53089907
  WF centre and spread    3  ( -0.070736, -1.237491, -4.733030 )     4.52060014
  WF centre and spread    4  (  0.006458,  1.197981, -1.159636 )     2.86788712
  WF centre and spread    5  (  0.043447, -1.189892,  1.189238 )     3.42882601
  WF centre and spread    6  ( -0.066592, -1.097282, -4.563101 )    12.14467678
  WF centre and spread    7  ( -0.008616,  1.004367,  4.868000 )     6.23861458
  WF centre and spread    8  ( -0.584200, -0.800913,  2.423183 )    10.90559445
  WF centre and spread    9  (  0.002796,  1.205227, -1.124763 )     2.75895159
  WF centre and spread   10  ( -0.053173, -2.190355, -3.960228 )    11.88786403
  WF centre and spread   11  (  0.028384,  3.608291,  2.929845 )     4.57231867
  WF centre and spread   12  ( -0.022949,  3.556299,  2.924387 )     4.40148975
  WF centre and spread   13  ( -0.263574, -1.071031,  1.774262 )     9.24279012
  WF centre and spread   14  (  0.009366, -3.614890, -2.917149 )     4.44835911
  WF centre and spread   15  ( -0.013945, -3.564679, -2.915275 )     4.48760534
  Sum of centres and spreads ( -1.057376, -4.114051, -5.188847 )    88.22670379
 
     29    -0.245E+00     1.0933374807       88.2267082064       0.19  <-- CONV
        O_D=      3.6917458 O_OD=     29.6689538 O_TOT=     88.2267082 <-- SPRD
 Delta: O_D=  0.2089546E-01 O_OD= -0.2660690E+00 O_TOT= -0.2451735E+00 <-- DLTA
 ------------------------------------------------------------------------------
 Cycle:     30
  WF centre and spread    1  (  0.000319,  1.189726, -1.165367 )     2.78889918
  WF centre and spread    2  ( -0.064594, -1.109432,  1.240106 )     3.51375811
  WF centre and spread    3  ( -0.069972, -1.237873, -4.733854 )     4.50382079
  WF centre and spread    4  (  0.006462,  1.197963, -1.159639 )     2.86717894
  WF centre and spread    5  (  0.043272, -1.189528,  1.188836 )     3.42335961
  WF centre and spread    6  ( -0.063968, -1.095515, -4.564786 )    12.09035187
  WF centre and spread    7  ( -0.008267,  1.004924,  4.867478 )     6.18918963
  WF centre and spread    8  ( -0.601247, -0.789976,  2.421776 )    10.84612819
  WF centre and spread    9  (  0.002826,  1.205224, -1.124760 )     2.75691278
  WF centre and spread   10  ( -0.052892, -2.191074, -3.956954 )    11.85331332
  WF centre and spread   11  (  0.028278,  3.608609,  2.929789 )     4.56475005
  WF centre and spread   12  ( -0.022998,  3.556223,  2.924372 )     4.39493737
  WF centre and spread   13  ( -0.272509, -1.060233,  1.773599 )     9.24143418
  WF centre and spread   14  (  0.009364, -3.614972, -2.917290 )     4.44343852
  WF centre and spread   15  ( -0.014017, -3.564629, -2.915396 )     4.47976228
  Sum of centres and spreads ( -1.079944, -4.090562, -5.192090 )    87.95723484
 
     30    -0.269E+00     1.1757640352       87.9572392583       0.19  <-- CONV
        O_D=      3.6200880 O_OD=     29.4711427 O_TOT=     87.9572393 <-- SPRD
 Delta: O_D= -0.7165780E-01 O_OD= -0.1978112E+00 O_TOT= -0.2694689E+00 <-- DLTA
 ------------------------------------------------------------------------------
 Cycle:     31
  WF centre and spread    1  (  0.000457,  1.189978, -1.165558 )     2.78873049
  WF centre and spread    2  ( -0.064597, -1.110978,  1.237611 )     3.48331152
  WF centre and spread    3  ( -0.066946, -1.239553, -4.736769 )     4.46141829
  WF centre and spread    4  (  0.006519,  1.197876, -1.159704 )     2.86759750
  WF centre and spread    5  (  0.043060, -1.188986,  1.187638 )     3.42253373
  WF centre and spread    6  ( -0.064263, -1.103532, -4.570403 )    12.07546670
  WF centre and spread    7  ( -0.007521,  1.005345,  4.866118 )     6.06414786
  WF centre and spread    8  ( -0.617667, -0.773961,  2.430566 )    10.77304017
  WF centre and spread    9  (  0.002974,  1.205223, -1.124746 )     2.75213743
  WF centre and spread   10  ( -0.057935, -2.227839, -3.936722 )    11.89834565
  WF centre and spread   11  (  0.028059,  3.609311,  2.929650 )     4.56375110
  WF centre and spread   12  ( -0.023130,  3.555751,  2.924333 )     4.38704551
  WF centre and spread   13  ( -0.277038, -1.055152,  1.763955 )     9.21714625
  WF centre and spread   14  (  0.009326, -3.615464, -2.917896 )     4.44101721
  WF centre and spread   15  ( -0.014151, -3.564633, -2.915735 )     4.46700993
  Sum of centres and spreads ( -1.102853, -4.116614, -5.187661 )    87.66269934
 
     31    -0.295E+00     0.7070940345       87.6627037649       0.20  <-- CONV
        O_D=      3.5300377 O_OD=     29.2666574 O_TOT=     87.6627038 <-- SPRD
 Delta: O_D= -0.9005023E-01 O_OD= -0.2044853E+00 O_TOT= -0.2945355E+00 <-- DLTA
 ------------------------------------------------------------------------------
 Cycle:     32
  WF centre and spread    1  (  0.000671,  1.190758, -1.166135 )     2.79444918
  WF centre and spread    2  ( -0.064355, -1.115630,  1.230740 )     3.39839308
  WF centre and spread    3  ( -0.057611, -1.243446, -4.745336 )     4.36724470
  WF centre and spread    4  (  0.006897,  1.197594, -1.159994 )     2.87282582
  WF centre and spread    5  (  0.042094, -1.188020,  1.184040 )     3.41718074
  WF centre and spread    6  ( -0.068223, -1.129393, -4.587940 )    12.14034444
  WF centre and spread    7  ( -0.006038,  1.006619,  4.862118 )     5.76074960
  WF centre and spread    8  ( -0.701955, -0.680842,  2.465523 )    10.87963426
  WF centre and spread    9  (  0.003463,  1.205217, -1.124824 )     2.74468932
  WF centre and spread   10  ( -0.065167, -2.346121, -3.876483 )    12.14102415
  WF centre and spread   11  (  0.026975,  3.611313,  2.929272 )     4.56905896
  WF centre and spread   12  ( -0.023852,  3.554283,  2.924150 )     4.37574525
  WF centre and spread   13  ( -0.303873, -1.005510,  1.726049 )     9.29020222
  WF centre and spread   14  (  0.009366, -3.616949, -2.919749 )     4.44822106
  WF centre and spread   15  ( -0.014946, -3.564252, -2.916920 )     4.44364531
  Sum of centres and spreads ( -1.216554, -4.124380, -5.175489 )    87.64340809
 
     32    -0.193E-01     0.9120453852       87.6434125387       0.20  <-- CONV
        O_D=      3.9020111 O_OD=     28.8753929 O_TOT=     87.6434125 <-- SPRD
 Delta: O_D=  0.3719733E+00 O_OD= -0.3912645E+00 O_TOT= -0.1929123E-01 <-- DLTA
 ------------------------------------------------------------------------------
 Cycle:     33
  WF centre and spread    1  (  0.000645,  1.190921, -1.166288 )     2.79566298
  WF centre and spread    2  ( -0.064165, -1.116402,  1.229587 )     3.34744432
  WF centre and spread    3  ( -0.056081, -1.244502, -4.746634 )     4.36142698
  WF centre and spread    4  (  0.007014,  1.197467, -1.160000 )     2.87256975
  WF centre and spread    5  (  0.041959, -1.188138,  1.183447 )     3.39415800
  WF centre and spread    6  ( -0.068386, -1.129783, -4.590417 )    12.13593879
  WF centre and spread    7  ( -0.006401,  1.006408,  4.861634 )     5.73154742
  WF centre and spread    8  ( -0.697086, -0.697700,  2.470589 )    10.82651403
  WF centre and spread    9  (  0.003583,  1.205150, -1.124806 )     2.74397514
  WF centre and spread   10  ( -0.058742, -2.348108, -3.869346 )    11.63182363
  WF centre and spread   11  (  0.026916,  3.611537,  2.929119 )     4.56224118
  WF centre and spread   12  ( -0.024057,  3.553983,  2.924050 )     4.36729685
  WF centre and spread   13  ( -0.293842, -1.023449,  1.730533 )     9.00665134
  WF centre and spread   14  (  0.009384, -3.617264, -2.920137 )     4.45102306
  WF centre and spread   15  ( -0.014948, -3.564150, -2.917102 )     4.44264824
  Sum of centres and spreads ( -1.194206, -4.164029, -5.165770 )    86.67092170
 
     33    -0.972E+00     2.0378310097       86.6709261636       0.21  <-- CONV
        O_D=      3.3932060 O_OD=     28.4117115 O_TOT=     86.6709262 <-- SPRD
 Delta: O_D= -0.5088050E+00 O_OD= -0.4636814E+00 O_TOT= -0.9724864E+00 <-- DLTA
 ------------------------------------------------------------------------------
 Cycle:     34
  WF centre and spread    1  (  0.000568,  1.191297, -1.166576 )     2.79921293
  WF centre and spread    2  ( -0.064400, -1.117137,  1.228031 )     3.31507751
  WF centre and spread    3  ( -0.053363, -1.245311, -4.749057 )     4.35795359
  WF centre and spread    4  (  0.007263,  1.197303, -1.160061 )     2.87505935
  WF centre and spread    5  (  0.041611, -1.187813,  1.182198 )     3.38429055
  WF centre and spread    6  ( -0.068298, -1.125834, -4.595737 )    11.98961765
  WF centre and spread    7  ( -0.005836,  1.007556,  4.860180 )     5.70607421
  WF centre and spread    8  ( -0.739981, -0.651566,  2.486126 )    10.72995922
  WF centre and spread    9  (  0.003790,  1.205102, -1.124900 )     2.74523318
  WF centre and spread   10  ( -0.054936, -2.363743, -3.857529 )    11.50806445
  WF centre and spread   11  (  0.026475,  3.612370,  2.928842 )     4.56916549
  WF centre and spread   12  ( -0.024506,  3.553598,  2.923883 )     4.36984079
  WF centre and spread   13  ( -0.310609, -1.003280,  1.721399 )     8.91246024
  WF centre and spread   14  (  0.009636, -3.617468, -2.920847 )     4.46424823
  WF centre and spread   15  ( -0.015503, -3.563604, -2.917539 )     4.44434912
  Sum of centres and spreads ( -1.248088, -4.108530, -5.161587 )    86.17060652
 
     34    -0.500E+00     1.4722307938       86.1706109764       0.21  <-- CONV
        O_D=      3.1525605 O_OD=     28.1520418 O_TOT=     86.1706110 <-- SPRD
 Delta: O_D= -0.2406455E+00 O_OD= -0.2596697E+00 O_TOT= -0.5003152E+00 <-- DLTA
 ------------------------------------------------------------------------------
 Cycle:     35
  WF centre and spread    1  ( -0.000046,  1.193343, -1.167921 )     2.81477349
  WF centre and spread    2  ( -0.061705, -1.123344,  1.217385 )     3.16925579
  WF centre and spread    3  ( -0.034959, -1.248996, -4.761695 )     4.31507888
  WF centre and spread    4  (  0.008736,  1.196268, -1.160455 )     2.89515353
  WF centre and spread    5  (  0.039416, -1.189636,  1.176226 )     3.32391438
  WF centre and spread    6  ( -0.075600, -1.136339, -4.624068 )    11.54426052
  WF centre and spread    7  (  0.001583,  1.015157,  4.853318 )     5.40142844
  WF centre and spread    8  ( -0.869341, -0.561810,  2.580101 )    10.67459468
  WF centre and spread    9  (  0.004886,  1.204919, -1.125237 )     2.75409026
  WF centre and spread   10  ( -0.049561, -2.521309, -3.762476 )    11.53643895
  WF centre and spread   11  (  0.026277,  3.614696,  2.927728 )     4.58199622
  WF centre and spread   12  ( -0.027547,  3.550954,  2.922828 )     4.38568641
  WF centre and spread   13  ( -0.339412, -0.988335,  1.677104 )     8.73158429
  WF centre and spread   14  (  0.010606, -3.618458, -2.924615 )     4.50769419
  WF centre and spread   15  ( -0.016364, -3.562171, -2.919432 )     4.43787602
  Sum of centres and spreads ( -1.383030, -4.175062, -5.091210 )    85.07382607
 
     35    -0.110E+01     0.9867250890       85.0738305824       0.22  <-- CONV
        O_D=      3.3851427 O_OD=     26.8226792 O_TOT=     85.0738306 <-- SPRD
 Delta: O_D=  0.2325822E+00 O_OD= -0.1329363E+01 O_TOT= -0.1096780E+01 <-- DLTA
 ------------------------------------------------------------------------------
 Cycle:     36
  WF centre and spread    1  (  0.000055,  1.193359, -1.167844 )     2.81142355
  WF centre and spread    2  ( -0.061091, -1.123972,  1.216127 )     3.14053649
  WF centre and spread    3  ( -0.033078, -1.249386, -4.762686 )     4.29046390
  WF centre and spread    4  (  0.008874,  1.196333, -1.160530 )     2.89183641
  WF centre and spread    5  (  0.039037, -1.190138,  1.175770 )     3.30987536
  WF centre and spread    6  ( -0.068379, -1.134925, -4.626809 )    11.43741693
  WF centre and spread    7  (  0.001557,  1.014431,  4.853222 )     5.31339113
  WF centre and spread    8  ( -0.883506, -0.551896,  2.590313 )    10.49396993
  WF centre and spread    9  (  0.005019,  1.204949, -1.125261 )     2.75252710
  WF centre and spread   10  ( -0.035529, -2.502934, -3.763982 )    11.10711285
  WF centre and spread   11  (  0.026256,  3.614388,  2.927828 )     4.56057439
  WF centre and spread   12  ( -0.027954,  3.550772,  2.922715 )     4.37104289
  WF centre and spread   13  ( -0.336155, -0.992992,  1.671766 )     8.26373422
  WF centre and spread   14  (  0.010336, -3.618645, -2.924840 )     4.48887665
  WF centre and spread   15  ( -0.016091, -3.562329, -2.919519 )     4.42366075
  Sum of centres and spreads ( -1.370649, -4.152986, -5.093729 )    83.65644253
 
     36    -0.142E+01     2.4472450786       83.6564470419       0.23  <-- CONV
        O_D=      2.5379674 O_OD=     26.2524710 O_TOT=     83.6564470 <-- SPRD
 Delta: O_D= -0.8471753E+00 O_OD= -0.5702082E+00 O_TOT= -0.1417384E+01 <-- DLTA
 ------------------------------------------------------------------------------
 Cycle:     37
  WF centre and spread    1  ( -0.000250,  1.193512, -1.167870 )     2.81176304
  WF centre and spread    2  ( -0.059800, -1.125283,  1.213505 )     3.11470568
  WF centre and spread    3  ( -0.029593, -1.250598, -4.764287 )     4.25794517
  WF centre and spread    4  (  0.009095,  1.196348, -1.160663 )     2.89086313
  WF centre and spread    5  (  0.038336, -1.191101,  1.174859 )     3.29930874
  WF centre and spread    6  ( -0.091015, -1.161074, -4.629786 )    11.59539459
  WF centre and spread    7  (  0.001158,  1.011816,  4.853936 )     5.15919720
  WF centre and spread    8  ( -0.911277, -0.536161,  2.608122 )    10.43552973
  WF centre and spread    9  (  0.005247,  1.205031, -1.125347 )     2.75274969
  WF centre and spread   10  ( -0.053130, -2.563705, -3.731055 )    10.77691103
  WF centre and spread   11  (  0.026381,  3.613345,  2.927959 )     4.54417812
  WF centre and spread   12  ( -0.028950,  3.550050,  2.922562 )     4.36202372
  WF centre and spread   13  ( -0.334489, -0.999574,  1.660712 )     8.15709807
  WF centre and spread   14  (  0.009570, -3.619645, -2.925276 )     4.46793980
  WF centre and spread   15  ( -0.015771, -3.562602, -2.919693 )     4.41012073
  Sum of centres and spreads ( -1.434487, -4.239642, -5.062321 )    83.03572844
 
[...]
  WF centre and spread    6  (  0.017476, -1.043944, -4.792411 )     7.43014595
  WF centre and spread    7  (  0.049430,  1.223415,  4.781359 )     4.05806649
  WF centre and spread    8  ( -1.918593,  0.086249,  3.072061 )     8.00224246
  WF centre and spread    9  (  0.024067,  1.225879, -1.134021 )     2.85961645
  WF centre and spread   10  (  0.098046, -3.536738, -2.997285 )     7.92836662
  WF centre and spread   11  (  0.050071,  3.618116,  2.927635 )     4.60422935
  WF centre and spread   12  ( -0.030158,  3.560578,  2.914955 )     4.41277140
  WF centre and spread   13  ( -0.013381, -1.210424,  1.140333 )     2.90456694
  WF centre and spread   14  (  0.049254, -3.611924, -2.949074 )     4.58562993
  WF centre and spread   15  (  0.013717, -3.523742, -2.955397 )     4.73915048
  Sum of centres and spreads ( -1.460189, -4.448345, -4.785772 )    70.96405437
 
   1991    -0.257E-04     0.0051457593       70.9640595533      14.97  <-- CONV
        O_D=      1.1160310 O_OD=     14.9820199 O_TOT=     70.9640596 <-- SPRD
 Delta: O_D=  0.9107586E-04 O_OD= -0.1167264E-03 O_TOT= -0.2565053E-04 <-- DLTA
 ------------------------------------------------------------------------------
 Cycle:   1992
  WF centre and spread    1  (  0.000910,  1.180638, -1.157524 )     3.00808084
  WF centre and spread    2  (  0.002747, -1.146114,  1.148517 )     3.05502284
  WF centre and spread    3  (  0.146352, -1.254458, -4.779474 )     7.32075611
  WF centre and spread    4  (  0.006850,  1.195619, -1.160499 )     3.02587246
  WF centre and spread    5  (  0.043002, -1.211476,  1.155035 )     3.02936333
  WF centre and spread    6  (  0.017468, -1.043942, -4.792415 )     7.43016802
  WF centre and spread    7  (  0.049428,  1.223412,  4.781357 )     4.05805536
  WF centre and spread    8  ( -1.918595,  0.086243,  3.072058 )     8.00225961
  WF centre and spread    9  (  0.024067,  1.225879, -1.134020 )     2.85959615
  WF centre and spread   10  (  0.098054, -3.536732, -2.997286 )     7.92849663
  WF centre and spread   11  (  0.050066,  3.618117,  2.927636 )     4.60419709
  WF centre and spread   12  ( -0.030160,  3.560577,  2.914952 )     4.41278945
  WF centre and spread   13  ( -0.013382, -1.210423,  1.140333 )     2.90455146
  WF centre and spread   14  (  0.049255, -3.611922, -2.949073 )     4.58565824
  WF centre and spread   15  (  0.013716, -3.523743, -2.955398 )     4.73916115
  Sum of centres and spreads ( -1.460222, -4.448326, -4.785800 )    70.96402874
 
   1992    -0.256E-04     0.0100983104       70.9640339246      14.98  <-- CONV
        O_D=      1.1159174 O_OD=     14.9821079 O_TOT=     70.9640339 <-- SPRD
 Delta: O_D= -0.1135854E-03 O_OD=  0.8795673E-04 O_TOT= -0.2562872E-04 <-- DLTA
 ------------------------------------------------------------------------------
 Cycle:   1993
  WF centre and spread    1  (  0.000907,  1.180638, -1.157525 )     3.00805466
  WF centre and spread    2  (  0.002745, -1.146110,  1.148514 )     3.05501150
  WF centre and spread    3  (  0.146363, -1.254474, -4.779472 )     7.32091539
  WF centre and spread    4  (  0.006847,  1.195617, -1.160499 )     3.02582445
  WF centre and spread    5  (  0.043003, -1.211479,  1.155034 )     3.02929140
  WF centre and spread    6  (  0.017451, -1.043936, -4.792422 )     7.43023750
  WF centre and spread    7  (  0.049422,  1.223406,  4.781354 )     4.05804008
  WF centre and spread    8  ( -1.918600,  0.086226,  3.072054 )     8.00214334
  WF centre and spread    9  (  0.024067,  1.225879, -1.134020 )     2.85953772
  WF centre and spread   10  (  0.098072, -3.536728, -2.997287 )     7.92873354
  WF centre and spread   11  (  0.050054,  3.618112,  2.927639 )     4.60405278
  WF centre and spread   12  ( -0.030167,  3.560575,  2.914944 )     4.41281372
  WF centre and spread   13  ( -0.013386, -1.210422,  1.140332 )     2.90451726
  WF centre and spread   14  (  0.049260, -3.611920, -2.949072 )     4.58567750
  WF centre and spread   15  (  0.013715, -3.523743, -2.955400 )     4.73916347
  Sum of centres and spreads ( -1.460246, -4.448358, -4.785826 )    70.96401430
 
   1993    -0.144E-04     0.0051425466       70.9640194820      14.99  <-- CONV
        O_D=      1.1160117 O_OD=     14.9819991 O_TOT=     70.9640195 <-- SPRD
 Delta: O_D=  0.9431933E-04 O_OD= -0.1087619E-03 O_TOT= -0.1444254E-04 <-- DLTA
 ------------------------------------------------------------------------------
 Cycle:   1994
  WF centre and spread    1  (  0.000906,  1.180638, -1.157526 )     3.00802696
  WF centre and spread    2  (  0.002743, -1.146107,  1.148512 )     3.05498860
  WF centre and spread    3  (  0.146340, -1.254517, -4.779463 )     7.32100409
  WF centre and spread    4  (  0.006840,  1.195613, -1.160500 )     3.02576549
  WF centre and spread    5  (  0.043003, -1.211484,  1.155033 )     3.02922806
  WF centre and spread    6  (  0.017433, -1.043931, -4.792428 )     7.43037540
  WF centre and spread    7  (  0.049412,  1.223397,  4.781350 )     4.05805061
  WF centre and spread    8  ( -1.918615,  0.086201,  3.072050 )     8.00200413
  WF centre and spread    9  (  0.024068,  1.225878, -1.134019 )     2.85946218
  WF centre and spread   10  (  0.098093, -3.536725, -2.997288 )     7.92903083
  WF centre and spread   11  (  0.050039,  3.618104,  2.927646 )     4.60386430
  WF centre and spread   12  ( -0.030178,  3.560571,  2.914933 )     4.41284108
  WF centre and spread   13  ( -0.013391, -1.210420,  1.140331 )     2.90448777
  WF centre and spread   14  (  0.049260, -3.611919, -2.949070 )     4.58570794
  WF centre and spread   15  (  0.013715, -3.523744, -2.955404 )     4.73916638
  Sum of centres and spreads ( -1.460332, -4.448444, -4.785843 )    70.96400383
 
   1994    -0.105E-04     0.0042799109       70.9640090196      14.99  <-- CONV
        O_D=      1.1160563 O_OD=     14.9819441 O_TOT=     70.9640090 <-- SPRD
 Delta: O_D=  0.4455751E-04 O_OD= -0.5501994E-04 O_TOT= -0.1046244E-04 <-- DLTA
 ------------------------------------------------------------------------------
 Cycle:   1995
  WF centre and spread    1  (  0.000906,  1.180637, -1.157526 )     3.00800671
  WF centre and spread    2  (  0.002741, -1.146105,  1.148512 )     3.05495577
  WF centre and spread    3  (  0.146317, -1.254539, -4.779463 )     7.32099080
  WF centre and spread    4  (  0.006831,  1.195611, -1.160500 )     3.02569610
  WF centre and spread    5  (  0.043003, -1.211490,  1.155031 )     3.02918828
  WF centre and spread    6  (  0.017422, -1.043927, -4.792431 )     7.43057287
  WF centre and spread    7  (  0.049400,  1.223388,  4.781346 )     4.05809276
  WF centre and spread    8  ( -1.918636,  0.086175,  3.072045 )     8.00186821
  WF centre and spread    9  (  0.024070,  1.225877, -1.134019 )     2.85938317
  WF centre and spread   10  (  0.098116, -3.536720, -2.997289 )     7.92933604
  WF centre and spread   11  (  0.050024,  3.618094,  2.927654 )     4.60365559
  WF centre and spread   12  ( -0.030189,  3.560567,  2.914921 )     4.41286302
  WF centre and spread   13  ( -0.013398, -1.210420,  1.140330 )     2.90448083
  WF centre and spread   14  (  0.049258, -3.611916, -2.949067 )     4.58574015
  WF centre and spread   15  (  0.013717, -3.523746, -2.955410 )     4.73916467
  Sum of centres and spreads ( -1.460419, -4.448513, -4.785865 )    70.96399498
 
   1995    -0.885E-05     0.0038500471       70.9640001694      15.00  <-- CONV
        O_D=      1.1160141 O_OD=     14.9819774 O_TOT=     70.9640002 <-- SPRD
 Delta: O_D= -0.4219239E-04 O_OD=  0.3334223E-04 O_TOT= -0.8850163E-05 <-- DLTA
 ------------------------------------------------------------------------------
 Cycle:   1996
  WF centre and spread    1  (  0.000907,  1.180636, -1.157524 )     3.00799708
  WF centre and spread    2  (  0.002739, -1.146103,  1.148513 )     3.05492283
  WF centre and spread    3  (  0.146332, -1.254557, -4.779453 )     7.32116953
  WF centre and spread    4  (  0.006821,  1.195609, -1.160501 )     3.02562340
  WF centre and spread    5  (  0.043005, -1.211496,  1.155028 )     3.02913979
  WF centre and spread    6  (  0.017422, -1.043924, -4.792432 )     7.43074370
  WF centre and spread    7  (  0.049391,  1.223380,  4.781342 )     4.05813871
  WF centre and spread    8  ( -1.918655,  0.086155,  3.072041 )     8.00169280
  WF centre and spread    9  (  0.024075,  1.225876, -1.134020 )     2.85932463
  WF centre and spread   10  (  0.098134, -3.536719, -2.997289 )     7.92952144
  WF centre and spread   11  (  0.050014,  3.618084,  2.927661 )     4.60346400
  WF centre and spread   12  ( -0.030196,  3.560564,  2.914912 )     4.41286501
  WF centre and spread   13  ( -0.013403, -1.210419,  1.140331 )     2.90449746
  WF centre and spread   14  (  0.049256, -3.611915, -2.949065 )     4.58574089
  WF centre and spread   15  (  0.013720, -3.523747, -2.955414 )     4.73914682
  Sum of centres and spreads ( -1.460438, -4.448574, -4.785871 )    70.96398809
 
   1996    -0.690E-05     0.0035543957       70.9639932744      15.00  <-- CONV
        O_D=      1.1161021 O_OD=     14.9818826 O_TOT=     70.9639933 <-- SPRD
 Delta: O_D=  0.8796594E-04 O_OD= -0.9486097E-04 O_TOT= -0.6895026E-05 <-- DLTA
 ------------------------------------------------------------------------------
 Cycle:   1997
  WF centre and spread    1  (  0.000908,  1.180636, -1.157524 )     3.00799746
  WF centre and spread    2  (  0.002739, -1.146102,  1.148513 )     3.05491114
  WF centre and spread    3  (  0.146306, -1.254574, -4.779451 )     7.32109341
  WF centre and spread    4  (  0.006814,  1.195608, -1.160500 )     3.02559802
  WF centre and spread    5  (  0.043005, -1.211501,  1.155026 )     3.02913441
  WF centre and spread    6  (  0.017424, -1.043923, -4.792432 )     7.43081669
  WF centre and spread    7  (  0.049387,  1.223377,  4.781340 )     4.05815882
  WF centre and spread    8  ( -1.918665,  0.086146,  3.072040 )     8.00165629
  WF centre and spread    9  (  0.024080,  1.225877, -1.134021 )     2.85931566
  WF centre and spread   10  (  0.098139, -3.536718, -2.997290 )     7.92960323
  WF centre and spread   11  (  0.050010,  3.618080,  2.927664 )     4.60340726
  WF centre and spread   12  ( -0.030198,  3.560563,  2.914909 )     4.41287061
  WF centre and spread   13  ( -0.013407, -1.210416,  1.140333 )     2.90452046
  WF centre and spread   14  (  0.049253, -3.611915, -2.949064 )     4.58575811
  WF centre and spread   15  (  0.013721, -3.523748, -2.955416 )     4.73914258
  Sum of centres and spreads ( -1.460483, -4.448610, -4.785872 )    70.96398417
 
   1997    -0.392E-05     0.0028202023       70.9639893531      15.01  <-- CONV
        O_D=      1.1160425 O_OD=     14.9819383 O_TOT=     70.9639894 <-- SPRD
 Delta: O_D= -0.5961452E-04 O_OD=  0.5569319E-04 O_TOT= -0.3921337E-05 <-- DLTA
 ------------------------------------------------------------------------------
 Cycle:   1998
  WF centre and spread    1  (  0.000907,  1.180636, -1.157524 )     3.00799546
  WF centre and spread    2  (  0.002739, -1.146102,  1.148512 )     3.05492080
  WF centre and spread    3  (  0.146332, -1.254557, -4.779453 )     7.32115171
  WF centre and spread    4  (  0.006813,  1.195609, -1.160499 )     3.02560646
  WF centre and spread    5  (  0.043008, -1.211502,  1.155024 )     3.02912499
  WF centre and spread    6  (  0.017422, -1.043923, -4.792432 )     7.43074506
  WF centre and spread    7  (  0.049391,  1.223380,  4.781342 )     4.05813593
  WF centre and spread    8  ( -1.918656,  0.086154,  3.072041 )     8.00168163
  WF centre and spread    9  (  0.024084,  1.225878, -1.134023 )     2.85935398
  WF centre and spread   10  (  0.098134, -3.536718, -2.997289 )     7.92951707
  WF centre and spread   11  (  0.050012,  3.618084,  2.927661 )     4.60345748
  WF centre and spread   12  ( -0.030194,  3.560565,  2.914913 )     4.41287334
  WF centre and spread   13  ( -0.013406, -1.210413,  1.140335 )     2.90452987
  WF centre and spread   14  (  0.049257, -3.611914, -2.949065 )     4.58574926
  WF centre and spread   15  (  0.013719, -3.523748, -2.955414 )     4.73913723
  Sum of centres and spreads ( -1.460439, -4.448574, -4.785871 )    70.96398025
 
   1998    -0.391E-05     0.0024359405       70.9639854386      15.01  <-- CONV
        O_D=      1.1160989 O_OD=     14.9818779 O_TOT=     70.9639854 <-- SPRD
 Delta: O_D=  0.5641625E-04 O_OD= -0.6033073E-04 O_TOT= -0.3914484E-05 <-- DLTA
 ------------------------------------------------------------------------------
 Cycle:   1999
  WF centre and spread    1  (  0.000905,  1.180635, -1.157523 )     3.00800151
  WF centre and spread    2  (  0.002740, -1.146103,  1.148510 )     3.05494878
  WF centre and spread    3  (  0.146315, -1.254538, -4.779463 )     7.32094286
  WF centre and spread    4  (  0.006808,  1.195610, -1.160496 )     3.02564964
  WF centre and spread    5  (  0.043012, -1.211507,  1.155021 )     3.02914780
  WF centre and spread    6  (  0.017423, -1.043925, -4.792431 )     7.43057663
  WF centre and spread    7  (  0.049400,  1.223388,  4.781345 )     4.05808507
  WF centre and spread    8  ( -1.918638,  0.086174,  3.072044 )     8.00183693
  WF centre and spread    9  (  0.024095,  1.225881, -1.134026 )     2.85946461
  WF centre and spread   10  (  0.098116, -3.536720, -2.997289 )     7.92932363
  WF centre and spread   11  (  0.050018,  3.618092,  2.927652 )     4.60363755
  WF centre and spread   12  ( -0.030183,  3.560569,  2.914922 )     4.41288762
  WF centre and spread   13  ( -0.013406, -1.210404,  1.140342 )     2.90457076
  WF centre and spread   14  (  0.049261, -3.611915, -2.949067 )     4.58576255
  WF centre and spread   15  (  0.013714, -3.523748, -2.955408 )     4.73913743
  Sum of centres and spreads ( -1.460421, -4.448512, -4.785865 )    70.96397337
 
   1999    -0.688E-05     0.0028155287       70.9639785541      15.02  <-- CONV
        O_D=      1.1160060 O_OD=     14.9819639 O_TOT=     70.9639786 <-- SPRD
 Delta: O_D= -0.9284636E-04 O_OD=  0.8596191E-04 O_TOT= -0.6884459E-05 <-- DLTA
 ------------------------------------------------------------------------------
 Cycle:   2000
  WF centre and spread    1  (  0.000904,  1.180634, -1.157522 )     3.00801584
  WF centre and spread    2  (  0.002742, -1.146103,  1.148509 )     3.05497280
  WF centre and spread    3  (  0.146337, -1.254515, -4.779463 )     7.32091783
  WF centre and spread    4  (  0.006798,  1.195611, -1.160492 )     3.02568179
  WF centre and spread    5  (  0.043020, -1.211515,  1.155015 )     3.02915556
  WF centre and spread    6  (  0.017434, -1.043929, -4.792428 )     7.43038253
  WF centre and spread    7  (  0.049412,  1.223397,  4.781350 )     4.05803584
  WF centre and spread    8  ( -1.918618,  0.086198,  3.072048 )     8.00194709
  WF centre and spread    9  (  0.024113,  1.225885, -1.134031 )     2.85961155
  WF centre and spread   10  (  0.098093, -3.536725, -2.997287 )     7.92900768
  WF centre and spread   11  (  0.050028,  3.618100,  2.927643 )     4.60383170
  WF centre and spread   12  ( -0.030166,  3.560575,  2.914935 )     4.41288905
  WF centre and spread   13  ( -0.013406, -1.210393,  1.140353 )     2.90465259
  WF centre and spread   14  (  0.049266, -3.611916, -2.949070 )     4.58574727
  WF centre and spread   15  (  0.013709, -3.523747, -2.955402 )     4.73911542
  Sum of centres and spreads ( -1.460334, -4.448442, -4.785843 )    70.96396453
 
   2000    -0.884E-05     0.0035558192       70.9639697143      15.03  <-- CONV
        O_D=      1.1160417 O_OD=     14.9819193 O_TOT=     70.9639697 <-- SPRD
 Delta: O_D=  0.3571255E-04 O_OD= -0.4455235E-04 O_TOT= -0.8839796E-05 <-- DLTA
 ------------------------------------------------------------------------------

 Writing checkpoint file 10-wannier90.chk... done

 Final State
  WF centre and spread    1  (  0.000904,  1.180634, -1.157522 )     3.00801584
  WF centre and spread    2  (  0.002742, -1.146103,  1.148509 )     3.05497280
  WF centre and spread    3  (  0.146337, -1.254515, -4.779463 )     7.32091783
  WF centre and spread    4  (  0.006798,  1.195611, -1.160492 )     3.02568179
  WF centre and spread    5  (  0.043020, -1.211515,  1.155015 )     3.02915556
  WF centre and spread    6  (  0.017434, -1.043929, -4.792428 )     7.43038253
  WF centre and spread    7  (  0.049412,  1.223397,  4.781350 )     4.05803584
  WF centre and spread    8  ( -1.918618,  0.086198,  3.072048 )     8.00194709
  WF centre and spread    9  (  0.024113,  1.225885, -1.134031 )     2.85961155
  WF centre and spread   10  (  0.098093, -3.536725, -2.997287 )     7.92900768
  WF centre and spread   11  (  0.050028,  3.618100,  2.927643 )     4.60383170
  WF centre and spread   12  ( -0.030166,  3.560575,  2.914935 )     4.41288905
  WF centre and spread   13  ( -0.013406, -1.210393,  1.140353 )     2.90465259
  WF centre and spread   14  (  0.049266, -3.611916, -2.949070 )     4.58574727
  WF centre and spread   15  (  0.013709, -3.523747, -2.955402 )     4.73911542
  Sum of centres and spreads ( -1.460334, -4.448442, -4.785843 )    70.96396453
 
         Spreads (Ang^2)       Omega I      =    54.866008627
        ================       Omega D      =     1.116041740
                               Omega OD     =    14.981919347
    Final Spread (Ang^2)       Omega Total  =    70.963969714
 ------------------------------------------------------------------------------
 Time for wannierise           12.290 (sec)

 Writing checkpoint file 10-wannier90.chk... done

 *---------------------------------------------------------------------------*
 |                               PLOTTING                                    |
 *---------------------------------------------------------------------------*
 
 
 Calculating interpolated band-structure
 
 Time to calculate interpolated band structure       3.235 (sec)
 
      Wannier Function Num:    1       Maximum Im/Re Ratio =    0.000075
      Wannier Function Num:    2       Maximum Im/Re Ratio =    0.000107
      Wannier Function Num:    3       Maximum Im/Re Ratio =    0.000113
      Wannier Function Num:    4       Maximum Im/Re Ratio =    0.000131
      Wannier Function Num:    5       Maximum Im/Re Ratio =    0.000107
      Wannier Function Num:    6       Maximum Im/Re Ratio =    0.000254
      Wannier Function Num:    7       Maximum Im/Re Ratio =    0.000094
      Wannier Function Num:    8       Maximum Im/Re Ratio =    0.000247
      Wannier Function Num:    9       Maximum Im/Re Ratio =    0.000110
      Wannier Function Num:   10       Maximum Im/Re Ratio =    0.000235
      Wannier Function Num:   11       Maximum Im/Re Ratio =    0.000239
      Wannier Function Num:   12       Maximum Im/Re Ratio =    0.000214
      Wannier Function Num:   13       Maximum Im/Re Ratio =    0.000064
      Wannier Function Num:   14       Maximum Im/Re Ratio =    0.000185
      Wannier Function Num:   15       Maximum Im/Re Ratio =    0.000188
  
 Time for plotting           3635.241 (sec)
 Total Execution Time        3648.261 (sec)

 *===========================================================================*
 |                             TIMING INFORMATION                            |
 *===========================================================================*
 |    Tag                                                Ncalls      Time (s)|
 |---------------------------------------------------------------------------|
 |kmesh: get                                        :         1         0.164|
 |overlap: allocate                                 :         1         0.007|
 |overlap: read                                     :         1         0.501|
 |wann: main                                        :         1        12.290|
 |plot: main                                        :         1      3635.241|
 *---------------------------------------------------------------------------*
 
 All done: wannier90 exiting
