 vasp.5.4.4.18Apr17-6-g9f103f2a35 (build Jan 05 2022 20:33:25) complex          
  
 02/POSCAR found :  2 types and       6 ions
 scaLAPACK will be used
 LDA part: xc-table for Pade appr. of Perdew
 00/POSCAR found :  2 types and       6 ions
 06/POSCAR found :  2 types and       6 ions
 Jacobian:    11.4326695265214     
 POSCAR, INCAR and KPOINTS ok, starting setup
 FFT: planning ...
 WAVECAR not read
 entering main loop
       N       E                     dE             d eps       ncg     rms          rms(c)
DAV:   1     0.268339930533E+03    0.26834E+03   -0.11489E+04  3264   0.117E+03
DAV:   2     0.198335559154E+01   -0.26636E+03   -0.25795E+03  5248   0.184E+02
DAV:   3    -0.337400224002E+02   -0.35723E+02   -0.35214E+02  4336   0.761E+01
DAV:   4    -0.352351049509E+02   -0.14951E+01   -0.14860E+01  5088   0.191E+01
DAV:   5    -0.352630506318E+02   -0.27946E-01   -0.27920E-01  4760   0.274E+00    0.218E+01
DAV:   6    -0.345068882876E+02    0.75616E+00   -0.51768E+00  4536   0.104E+01    0.945E+00
DAV:   7    -0.350161173624E+02   -0.50923E+00   -0.10324E+01  4224   0.154E+01    0.823E+00
DAV:   8    -0.342572355920E+02    0.75888E+00   -0.83601E+00  4544   0.950E+00    0.442E+00
DAV:   9    -0.340314209295E+02    0.22581E+00   -0.23978E+00  4552   0.543E+00    0.191E+00
DAV:  10    -0.340062019322E+02    0.25219E-01   -0.20190E-01  4328   0.209E+00    0.583E-01
DAV:  11    -0.340033359033E+02    0.28660E-02   -0.14601E-02  4224   0.671E-01    0.286E-01
DAV:  12    -0.340026632553E+02    0.67265E-03   -0.28587E-03  4944   0.227E-01    0.141E-01
DAV:  13    -0.340022475929E+02    0.41566E-03   -0.94997E-04  4784   0.146E-01    0.567E-02
DAV:  14    -0.340020159955E+02    0.23160E-03   -0.56174E-04  4096   0.855E-02    0.642E-02
DAV:  15    -0.340020438006E+02   -0.27805E-04   -0.75697E-05  4544   0.312E-02    0.349E-02
DAV:  16    -0.340021669342E+02   -0.12313E-03   -0.38912E-05  4400   0.257E-02    0.112E-02
DAV:  17    -0.340022990873E+02   -0.13215E-03   -0.49001E-05  3832   0.260E-02    0.101E-02
DAV:  18    -0.340023709179E+02   -0.71831E-04   -0.65309E-06  4088   0.123E-02    0.613E-03
DAV:  19    -0.340024657088E+02   -0.94791E-04   -0.52752E-06  3680   0.122E-02    0.559E-03
DAV:  20    -0.340025086917E+02   -0.42983E-04   -0.32578E-06  3344   0.817E-03    0.349E-03
DAV:  21    -0.340025458306E+02   -0.37139E-04   -0.69755E-07  2872   0.409E-03    0.163E-03
DAV:  22    -0.340025658958E+02   -0.20065E-04   -0.37195E-07  2656   0.210E-03    0.134E-03
DAV:  23    -0.340025764582E+02   -0.10562E-04   -0.18101E-07  2352   0.135E-03    0.104E-03
DAV:  24    -0.340025824220E+02   -0.59638E-05   -0.15441E-07  2472   0.993E-04    0.445E-04
DAV:  25    -0.340025838433E+02   -0.14213E-05   -0.35016E-08  2016   0.562E-04    0.285E-04
DAV:  26    -0.340025856903E+02   -0.18470E-05   -0.43982E-08  2064   0.535E-04    0.134E-04
DAV:  27    -0.340025864311E+02   -0.74089E-06   -0.27346E-08  1944   0.355E-04
   1 F= -.34002586E+02 E0= -.33997269E+02  d E =-.340026E+02
quench:  g(F)=  0.000E+00 g(S)=  0.000E+00 dE (1.order)= 0.000E+00
 bond charge predicted
       N       E                     dE             d eps       ncg     rms          rms(c)
DAV:   1    -0.341880747395E+02   -0.18549E+00   -0.42823E+00  3264   0.101E+01    0.824E-01
DAV:   2    -0.341923435203E+02   -0.42688E-02   -0.70418E-02  4360   0.135E+00    0.482E-01
DAV:   3    -0.341931576570E+02   -0.81414E-03   -0.31572E-02  4800   0.708E-01    0.403E-01
DAV:   4    -0.341924404828E+02    0.71717E-03   -0.40118E-02  4752   0.705E-01    0.347E-01
DAV:   5    -0.341910912869E+02    0.13492E-02   -0.10831E-02  4536   0.376E-01    0.164E-01
DAV:   6    -0.341908891336E+02    0.20215E-03   -0.14084E-03  4440   0.175E-01    0.307E-02
DAV:   7    -0.341908883732E+02    0.76042E-06   -0.91978E-05  4232   0.575E-02    0.210E-02
DAV:   8    -0.341908872338E+02    0.11394E-05   -0.10065E-05  4792   0.148E-02    0.195E-02
DAV:   9    -0.341908859924E+02    0.12413E-05   -0.26123E-06  2968   0.824E-03    0.925E-03
DAV:  10    -0.341908849118E+02    0.10806E-05   -0.25164E-06  2360   0.793E-03    0.281E-03
DAV:  11    -0.341908850916E+02   -0.17984E-06   -0.41720E-07  2088   0.352E-03
   2 F= -.34190885E+02 E0= -.34185682E+02  d E =-.188299E+00
quench:  g(F)=  0.000E+00 g(S)=  0.000E+00 dE (1.order)= 0.000E+00
 bond charge predicted
       N       E                     dE             d eps       ncg     rms          rms(c)
DAV:   1    -0.343983067443E+02   -0.20742E+00   -0.12863E+01  3264   0.175E+01    0.139E+00
DAV:   2    -0.344112456546E+02   -0.12939E-01   -0.20269E-01  4368   0.228E+00    0.776E-01
DAV:   3    -0.344118479558E+02   -0.60230E-03   -0.54494E-02  4792   0.979E-01    0.559E-01
DAV:   4    -0.344132290849E+02   -0.13811E-02   -0.96009E-02  4864   0.109E+00    0.628E-01
DAV:   5    -0.344085672544E+02    0.46618E-02   -0.38271E-02  4712   0.705E-01    0.278E-01
DAV:   6    -0.344078712936E+02    0.69596E-03   -0.45383E-03  4576   0.307E-01    0.439E-02
DAV:   7    -0.344078816094E+02   -0.10316E-04   -0.27817E-04  4344   0.970E-02    0.410E-02
DAV:   8    -0.344078790128E+02    0.25966E-05   -0.16870E-05  5136   0.203E-02    0.393E-02
DAV:   9    -0.344078766270E+02    0.23858E-05   -0.31047E-06  3344   0.845E-03    0.237E-02
DAV:  10    -0.344078727057E+02    0.39213E-05   -0.11365E-05  3856   0.150E-02    0.567E-03
DAV:  11    -0.344078733974E+02   -0.69173E-06   -0.70993E-07  2232   0.494E-03
   3 F= -.34407873E+02 E0= -.34402463E+02  d E =-.216988E+00
quench:  g(F)=  0.000E+00 g(S)=  0.000E+00 dE (1.order)= 0.000E+00
 bond charge predicted
       N       E                     dE             d eps       ncg     rms          rms(c)
DAV:   1    -0.345402745341E+02   -0.13240E+00   -0.15412E+01  3264   0.190E+01    0.156E+00
DAV:   2    -0.345562538522E+02   -0.15979E-01   -0.24112E-01  4360   0.249E+00    0.876E-01
DAV:   3    -0.345551387567E+02    0.11151E-02   -0.31373E-02  4816   0.850E-01    0.491E-01
DAV:   4    -0.345619134367E+02   -0.67747E-02   -0.95269E-02  4952   0.111E+00    0.798E-01
DAV:   5    -0.345543757826E+02    0.75377E-02   -0.69654E-02  4920   0.939E-01    0.340E-01
DAV:   6    -0.345531088822E+02    0.12669E-02   -0.78270E-03  4504   0.389E-01    0.425E-02
DAV:   7    -0.345531272876E+02   -0.18405E-04   -0.40055E-04  4280   0.111E-01    0.644E-02
DAV:   8    -0.345531229514E+02    0.43362E-05   -0.19987E-05  5176   0.229E-02    0.614E-02
DAV:   9    -0.345531204471E+02    0.25043E-05   -0.15320E-06  3120   0.607E-03    0.452E-02
DAV:  10    -0.345531136354E+02    0.68116E-05   -0.21877E-05  3736   0.196E-02    0.178E-02
DAV:  11    -0.345531141695E+02   -0.53403E-06   -0.92937E-07  2360   0.563E-03
   4 F= -.34553114E+02 E0= -.34547028E+02  d E =-.145241E+00
quench:  g(F)=  0.000E+00 g(S)=  0.000E+00 dE (1.order)= 0.000E+00
 bond charge predicted
       N       E                     dE             d eps       ncg     rms          rms(c)
DAV:   1    -0.346518879378E+02   -0.98774E-01   -0.10994E+01  3264   0.161E+01    0.116E+00
DAV:   2    -0.346636501503E+02   -0.11762E-01   -0.16750E-01  4440   0.207E+00    0.610E-01
DAV:   3    -0.346627079407E+02    0.94221E-03   -0.12994E-02  4400   0.604E-01    0.339E-01
DAV:   4    -0.346633926875E+02   -0.68475E-03   -0.13699E-02  4984   0.477E-01    0.392E-01
DAV:   5    -0.346633875559E+02    0.51316E-05   -0.25682E-02  4968   0.570E-01    0.323E-01
DAV:   6    -0.346620393136E+02    0.13482E-02   -0.93704E-03  4712   0.372E-01    0.504E-02
DAV:   7    -0.346619940253E+02    0.45288E-04   -0.43299E-04  4296   0.106E-01    0.499E-02
DAV:   8    -0.346619956976E+02   -0.16723E-05   -0.33237E-05  5104   0.286E-02    0.378E-02
DAV:   9    -0.346619922938E+02    0.34038E-05   -0.14207E-05  4392   0.176E-02    0.171E-02
DAV:  10    -0.346619928182E+02   -0.52441E-06   -0.24929E-06  2960   0.906E-03
   5 F= -.34661993E+02 E0= -.34655059E+02  d E =-.108879E+00
quench:  g(F)=  0.000E+00 g(S)=  0.000E+00 dE (1.order)= 0.000E+00
 bond charge predicted
       N       E                     dE             d eps       ncg     rms          rms(c)
DAV:   1    -0.347525029240E+02   -0.90511E-01   -0.11390E+01  3264   0.164E+01    0.783E-01
DAV:   2    -0.347632305059E+02   -0.10728E-01   -0.14466E-01  4416   0.190E+00    0.413E-01
DAV:   3    -0.347629765186E+02    0.25399E-03   -0.15343E-02  4608   0.582E-01    0.310E-01
DAV:   4    -0.347630371129E+02   -0.60594E-04   -0.21287E-02  4872   0.542E-01    0.335E-01
DAV:   5    -0.347618690985E+02    0.11680E-02   -0.90299E-03  4768   0.352E-01    0.168E-01
DAV:   6    -0.347616093850E+02    0.25971E-03   -0.17783E-03  4424   0.193E-01    0.501E-02
DAV:   7    -0.347616020894E+02    0.72956E-05   -0.14153E-04  4032   0.697E-02    0.220E-02
DAV:   8    -0.347616011290E+02    0.96034E-06   -0.29499E-05  4944   0.240E-02    0.202E-02
DAV:   9    -0.347616006625E+02    0.46650E-06   -0.56415E-06  4192   0.125E-02
   6 F= -.34761601E+02 E0= -.34754594E+02  d E =-.996078E-01
quench:  g(F)=  0.000E+00 g(S)=  0.000E+00 dE (1.order)= 0.000E+00
 bond charge predicted
       N       E                     dE             d eps       ncg     rms          rms(c)
DAV:   1    -0.348393010996E+02   -0.77700E-01   -0.10363E+01  3264   0.157E+01    0.884E-01
DAV:   2    -0.348500660444E+02   -0.10765E-01   -0.14329E-01  4400   0.189E+00    0.347E-01
DAV:   3    -0.348497405179E+02    0.32553E-03   -0.84067E-03  4592   0.448E-01    0.286E-01
DAV:   4    -0.348498566542E+02   -0.11614E-03   -0.92164E-03  4872   0.383E-01    0.289E-01
DAV:   5    -0.348491750585E+02    0.68160E-03   -0.53882E-03  4896   0.280E-01    0.151E-01
DAV:   6    -0.348490368525E+02    0.13821E-03   -0.16114E-03  4416   0.180E-01    0.660E-02
DAV:   7    -0.348489834502E+02    0.53402E-04   -0.30809E-04  4520   0.926E-02    0.216E-02
DAV:   8    -0.348489864768E+02   -0.30266E-05   -0.30838E-05  4832   0.268E-02    0.165E-02
DAV:   9    -0.348489849101E+02    0.15666E-05   -0.74465E-06  4128   0.142E-02    0.678E-03
DAV:  10    -0.348489854043E+02   -0.49419E-06   -0.14592E-06  2368   0.672E-03
   7 F= -.34848985E+02 E0= -.34842383E+02  d E =-.873847E-01
quench:  g(F)=  0.000E+00 g(S)=  0.000E+00 dE (1.order)= 0.000E+00
 bond charge predicted
       N       E                     dE             d eps       ncg     rms          rms(c)
DAV:   1    -0.348994770176E+02   -0.50492E-01   -0.94660E+00  3264   0.150E+01    0.878E-01
DAV:   2    -0.349105927413E+02   -0.11116E-01   -0.14290E-01  4448   0.186E+00    0.374E-01
DAV:   3    -0.349118301001E+02   -0.12374E-02   -0.32154E-02  4832   0.786E-01    0.411E-01
DAV:   4    -0.349095393942E+02    0.22907E-02   -0.22303E-02  4920   0.579E-01    0.251E-01
DAV:   5    -0.349090055672E+02    0.53383E-03   -0.15971E-03  3872   0.185E-01    0.974E-02
DAV:   6    -0.349089680410E+02    0.37526E-04   -0.41609E-04  4584   0.103E-01    0.284E-02
DAV:   7    -0.349089646112E+02    0.34298E-05   -0.54956E-05  4464   0.405E-02    0.135E-02
DAV:   8    -0.349089638721E+02    0.73907E-06   -0.13379E-05  4672   0.183E-02    0.863E-03
DAV:   9    -0.349089641992E+02   -0.32707E-06   -0.16690E-06  2792   0.720E-03
   8 F= -.34908964E+02 E0= -.34902169E+02  d E =-.599788E-01
quench:  g(F)=  0.000E+00 g(S)=  0.000E+00 dE (1.order)= 0.000E+00
 bond charge predicted
       N       E                     dE             d eps       ncg     rms          rms(c)
DAV:   1    -0.349447251910E+02   -0.35761E-01   -0.51068E+00  3264   0.110E+01    0.830E-01
DAV:   2    -0.349510633231E+02   -0.63381E-02   -0.85095E-02  4408   0.146E+00    0.254E-01
DAV:   3    -0.349509794705E+02    0.83853E-04   -0.66558E-03  4232   0.405E-01    0.249E-01
DAV:   4    -0.349508173787E+02    0.16209E-03   -0.33142E-03  4896   0.255E-01    0.202E-01
DAV:   5    -0.349507098874E+02    0.10749E-03   -0.18317E-03  4896   0.173E-01    0.154E-01
DAV:   6    -0.349505305169E+02    0.17937E-03   -0.78570E-04  4096   0.132E-01    0.346E-02
DAV:   7    -0.349505285000E+02    0.20169E-05   -0.98686E-05  4624   0.562E-02    0.126E-02
DAV:   8    -0.349505276434E+02    0.85660E-06   -0.10634E-05  4680   0.180E-02    0.872E-03
DAV:   9    -0.349505279092E+02   -0.26586E-06   -0.11710E-06  2712   0.591E-03
   9 F= -.34950528E+02 E0= -.34943584E+02  d E =-.415637E-01
quench:  g(F)=  0.000E+00 g(S)=  0.000E+00 dE (1.order)= 0.000E+00
 bond charge predicted
       N       E                     dE             d eps       ncg     rms          rms(c)
DAV:   1    -0.349563296818E+02   -0.58020E-02   -0.94675E-02  3264   0.150E+00    0.130E-01
DAV:   2    -0.349564229063E+02   -0.93225E-04   -0.13100E-03  4440   0.186E-01    0.364E-02
DAV:   3    -0.349564226526E+02    0.25370E-06   -0.15839E-04  4360   0.607E-02    0.377E-02
DAV:   4    -0.349564159051E+02    0.67475E-05   -0.94495E-05  4856   0.414E-02    0.280E-02
DAV:   5    -0.349564133431E+02    0.25620E-05   -0.37436E-05  4840   0.245E-02    0.203E-02
DAV:   6    -0.349564104703E+02    0.28727E-05   -0.14388E-05  3760   0.182E-02    0.395E-03
DAV:   7    -0.349564105068E+02   -0.36460E-07   -0.97840E-07  2232   0.634E-03
  10 F= -.34956411E+02 E0= -.34949450E+02  d E =-.588260E-02
quench:  g(F)=  0.000E+00 g(S)=  0.000E+00 dE (1.order)= 0.000E+00
 bond charge predicted
       N       E                     dE             d eps       ncg     rms          rms(c)
DAV:   1    -0.349632219410E+02   -0.68115E-02   -0.27746E-01  3264   0.256E+00    0.222E-01
DAV:   2    -0.349635060568E+02   -0.28412E-03   -0.39699E-03  4440   0.322E-01    0.620E-02
DAV:   3    -0.349635052058E+02    0.85098E-06   -0.46342E-04  4384   0.104E-01    0.634E-02
DAV:   4    -0.349634859997E+02    0.19206E-04   -0.28256E-04  4840   0.717E-02    0.475E-02
DAV:   5    -0.349634776885E+02    0.83112E-05   -0.11156E-04  4880   0.426E-02    0.338E-02
DAV:   6    -0.349634690951E+02    0.85934E-05   -0.43560E-05  3896   0.313E-02    0.813E-03
DAV:   7    -0.349634688660E+02    0.22905E-06   -0.47672E-06  3696   0.128E-02
  11 F= -.34963469E+02 E0= -.34956466E+02  d E =-.705836E-02
quench:  g(F)=  0.000E+00 g(S)=  0.000E+00 dE (1.order)= 0.000E+00
 bond charge predicted
       N       E                     dE             d eps       ncg     rms          rms(c)
DAV:   1    -0.349674406022E+02   -0.39715E-02   -0.23745E-01  3264   0.238E+00    0.185E-01
DAV:   2    -0.349677655294E+02   -0.32493E-03   -0.42178E-03  4512   0.319E-01    0.623E-02
DAV:   3    -0.349677987370E+02   -0.33208E-04   -0.84225E-04  4736   0.133E-01    0.689E-02
DAV:   4    -0.349677410254E+02    0.57712E-04   -0.57063E-04  4904   0.967E-02    0.415E-02
DAV:   5    -0.349677295986E+02    0.11427E-04   -0.64074E-05  4672   0.351E-02    0.224E-02
DAV:   6    -0.349677279728E+02    0.16258E-05   -0.29396E-05  4328   0.270E-02    0.994E-03
DAV:   7    -0.349677270149E+02    0.95793E-06   -0.56834E-06  3440   0.134E-02
  12 F= -.34967727E+02 E0= -.34960645E+02  d E =-.425815E-02
quench:  g(F)=  0.000E+00 g(S)=  0.000E+00 dE (1.order)= 0.000E+00
 bond charge predicted
       N       E                     dE             d eps       ncg     rms          rms(c)
DAV:   1    -0.349695159686E+02   -0.17880E-02   -0.18508E-01  3264   0.210E+00    0.145E-01
DAV:   2    -0.349697775812E+02   -0.26161E-03   -0.34243E-03  4480   0.284E-01    0.550E-02
DAV:   3    -0.349698037488E+02   -0.26168E-04   -0.66800E-04  4768   0.118E-01    0.611E-02
DAV:   4    -0.349697569716E+02    0.46777E-04   -0.43638E-04  4848   0.847E-02    0.371E-02
DAV:   5    -0.349697483907E+02    0.85808E-05   -0.40668E-05  4472   0.284E-02    0.194E-02
DAV:   6    -0.349697470478E+02    0.13430E-05   -0.19375E-05  4480   0.220E-02    0.887E-03
DAV:   7    -0.349697464018E+02    0.64595E-06   -0.34078E-06  3144   0.104E-02
  13 F= -.34969746E+02 E0= -.34962590E+02  d E =-.201939E-02
quench:  g(F)=  0.000E+00 g(S)=  0.000E+00 dE (1.order)= 0.000E+00
 bond charge predicted
       N       E                     dE             d eps       ncg     rms          rms(c)
DAV:   1    -0.349662642080E+02    0.34828E-02   -0.21508E-01  3264   0.227E+00    0.154E-01
DAV:   2    -0.349665677893E+02   -0.30358E-03   -0.39540E-03  4504   0.303E-01    0.601E-02
DAV:   3    -0.349665986668E+02   -0.30877E-04   -0.85244E-04  4880   0.132E-01    0.680E-02
DAV:   4    -0.349665368771E+02    0.61790E-04   -0.52549E-04  4904   0.924E-02    0.382E-02
DAV:   5    -0.349665290401E+02    0.78370E-05   -0.55054E-05  4456   0.339E-02    0.209E-02
DAV:   6    -0.349665256508E+02    0.33893E-05   -0.29237E-05  4512   0.265E-02    0.988E-03
DAV:   7    -0.349665253342E+02    0.31663E-06   -0.26623E-06  2576   0.987E-03
  14 F= -.34966525E+02 E0= -.34959264E+02  d E =0.322107E-02
quench:  g(F)=  0.000E+00 g(S)=  0.000E+00 dE (1.order)= 0.000E+00
 bond charge predicted
       N       E                     dE             d eps       ncg     rms          rms(c)
DAV:   1    -0.349616069075E+02    0.49187E-02   -0.28702E-01  3264   0.261E+00    0.152E-01
DAV:   2    -0.349619397239E+02   -0.33282E-03   -0.44305E-03  4456   0.325E-01    0.642E-02
DAV:   3    -0.349619613361E+02   -0.21612E-04   -0.83910E-04  4920   0.133E-01    0.694E-02
DAV:   4    -0.349619031125E+02    0.58224E-04   -0.52922E-04  4872   0.934E-02    0.420E-02
DAV:   5    -0.349618924900E+02    0.10622E-04   -0.73619E-05  4504   0.388E-02    0.226E-02
DAV:   6    -0.349618875320E+02    0.49580E-05   -0.39463E-05  4544   0.303E-02    0.107E-02
DAV:   7    -0.349618871660E+02    0.36593E-06   -0.33683E-06  2920   0.109E-02
  15 F= -.34961887E+02 E0= -.34954514E+02  d E =0.463817E-02
quench:  g(F)=  0.000E+00 g(S)=  0.000E+00 dE (1.order)= 0.000E+00
 bond charge predicted
       N       E                     dE             d eps       ncg     rms          rms(c)
DAV:   1    -0.349683889523E+02   -0.65014E-02   -0.18634E-01  3264   0.210E+00    0.133E-01
DAV:   2    -0.349686448356E+02   -0.25588E-03   -0.31773E-03  4456   0.277E-01    0.638E-02
DAV:   3    -0.349686825630E+02   -0.37727E-04   -0.98653E-04  4760   0.141E-01    0.684E-02
DAV:   4    -0.349686129262E+02    0.69637E-04   -0.57827E-04  4864   0.967E-02    0.379E-02
DAV:   5    -0.349686026037E+02    0.10323E-04   -0.39276E-05  3928   0.293E-02    0.180E-02
DAV:   6    -0.349686011104E+02    0.14933E-05   -0.13391E-05  4536   0.192E-02    0.482E-03
DAV:   7    -0.349686008221E+02    0.28831E-06   -0.21844E-06  2584   0.878E-03
  16 F= -.34968601E+02 E0= -.34961190E+02  d E =-.671366E-02
quench:  g(F)=  0.000E+00 g(S)=  0.000E+00 dE (1.order)= 0.000E+00
 bond charge predicted
       N       E                     dE             d eps       ncg     rms          rms(c)
DAV:   1    -0.349734812801E+02   -0.48802E-02   -0.10261E-01  3264   0.155E+00    0.107E-01
DAV:   2    -0.349736096860E+02   -0.12841E-03   -0.16213E-03  4368   0.202E-01    0.454E-02
DAV:   3    -0.349736185440E+02   -0.88580E-05   -0.27449E-04  4816   0.765E-02    0.409E-02
DAV:   4    -0.349736028193E+02    0.15725E-04   -0.21292E-04  4888   0.596E-02    0.280E-02
DAV:   5    -0.349735963934E+02    0.64259E-05   -0.39811E-05  4432   0.269E-02    0.132E-02
DAV:   6    -0.349735966636E+02   -0.27019E-06   -0.10848E-05  4520   0.163E-02    0.453E-03
DAV:   7    -0.349735963025E+02    0.36110E-06   -0.18437E-06  2296   0.780E-03
  17 F= -.34973596E+02 E0= -.34966180E+02  d E =-.499548E-02
quench:  g(F)=  0.000E+00 g(S)=  0.000E+00 dE (1.order)= 0.000E+00
 bond charge predicted
       N       E                     dE             d eps       ncg     rms          rms(c)
DAV:   1    -0.349735240116E+02    0.72652E-04   -0.11990E-03  3264   0.168E-01    0.138E-02
DAV:   2    -0.349735250428E+02   -0.10312E-05   -0.17581E-05  4368   0.217E-02    0.624E-03
DAV:   3    -0.349735252562E+02   -0.21349E-06   -0.85973E-06  3736   0.131E-02
  18 F= -.34973525E+02 E0= -.34966107E+02  d E =0.710463E-04
quench:  g(F)=  0.000E+00 g(S)=  0.000E+00 dE (1.order)= 0.000E+00
 bond charge predicted
       N       E                     dE             d eps       ncg     rms          rms(c)
DAV:   1    -0.349737528382E+02   -0.22780E-03   -0.38833E-03  3264   0.302E-01    0.232E-02
DAV:   2    -0.349737551987E+02   -0.23605E-05   -0.47802E-05  4424   0.356E-02    0.114E-02
DAV:   3    -0.349737547915E+02    0.40719E-06   -0.83491E-06  3584   0.139E-02
  19 F= -.34973755E+02 E0= -.34966341E+02  d E =-.229535E-03
quench:  g(F)=  0.000E+00 g(S)=  0.000E+00 dE (1.order)= 0.000E+00
 bond charge predicted
       N       E                     dE             d eps       ncg     rms          rms(c)
DAV:   1    -0.349751232214E+02   -0.13680E-02   -0.42990E-03  3264   0.319E-01    0.199E-02
DAV:   2    -0.349751271549E+02   -0.39335E-05   -0.68739E-05  4608   0.408E-02    0.156E-02
DAV:   3    -0.349751269098E+02    0.24510E-06   -0.53112E-05  4880   0.314E-02    0.148E-02
DAV:   4    -0.349751238763E+02    0.30335E-05   -0.18987E-05  4168   0.173E-02    0.615E-03
DAV:   5    -0.349751234786E+02    0.39767E-06   -0.23500E-06  2312   0.780E-03
  20 F= -.34975123E+02 E0= -.34967721E+02  d E =-.136869E-02
quench:  g(F)=  0.000E+00 g(S)=  0.000E+00 dE (1.order)= 0.000E+00
 bond charge predicted
       N       E                     dE             d eps       ncg     rms          rms(c)
DAV:   1    -0.349773080429E+02   -0.21842E-02   -0.32225E-03  3264   0.277E-01    0.135E-02
DAV:   2    -0.349773120642E+02   -0.40213E-05   -0.50562E-05  4416   0.357E-02    0.639E-03
DAV:   3    -0.349773118607E+02    0.20351E-06   -0.29992E-06  3360   0.973E-03
  21 F= -.34977312E+02 E0= -.34969917E+02  d E =-.218838E-02
quench:  g(F)=  0.000E+00 g(S)=  0.000E+00 dE (1.order)= 0.000E+00
 bond charge predicted
       N       E                     dE             d eps       ncg     rms          rms(c)
DAV:   1    -0.349804946390E+02   -0.31826E-02   -0.58450E-03  3264   0.373E-01    0.183E-02
DAV:   2    -0.349805027901E+02   -0.81511E-05   -0.10319E-04  4456   0.500E-02    0.110E-02
DAV:   3    -0.349805026623E+02    0.12779E-06   -0.11931E-05  4432   0.172E-02    0.101E-02
DAV:   4    -0.349805021984E+02    0.46395E-06   -0.60614E-06  3272   0.112E-02
  22 F= -.34980502E+02 E0= -.34973120E+02  d E =-.319034E-02
quench:  g(F)=  0.000E+00 g(S)=  0.000E+00 dE (1.order)= 0.000E+00
 bond charge predicted
       N       E                     dE             d eps       ncg     rms          rms(c)
DAV:   1    -0.349849233680E+02   -0.44207E-02   -0.10565E-02  3264   0.502E-01    0.251E-02
DAV:   2    -0.349849393569E+02   -0.15989E-04   -0.19510E-04  4440   0.684E-02    0.152E-02
DAV:   3    -0.349849395716E+02   -0.21476E-06   -0.27117E-05  4776   0.251E-02    0.145E-02
DAV:   4    -0.349849382218E+02    0.13498E-05   -0.13740E-05  3992   0.157E-02    0.101E-02
DAV:   5    -0.349849379687E+02    0.25313E-06   -0.33424E-06  2632   0.888E-03
  23 F= -.34984938E+02 E0= -.34977578E+02  d E =-.443577E-02
quench:  g(F)=  0.000E+00 g(S)=  0.000E+00 dE (1.order)= 0.000E+00
 bond charge predicted
       N       E                     dE             d eps       ncg     rms          rms(c)
DAV:   1    -0.349906449528E+02   -0.57067E-02   -0.17379E-02  3264   0.644E-01    0.342E-02
DAV:   2    -0.349906719666E+02   -0.27014E-04   -0.33019E-04  4408   0.895E-02    0.157E-02
DAV:   3    -0.349906711640E+02    0.80263E-06   -0.22685E-05  4288   0.257E-02    0.137E-02
DAV:   4    -0.349906708772E+02    0.28680E-06   -0.60688E-06  3808   0.123E-02
  24 F= -.34990671E+02 E0= -.34983334E+02  d E =-.573291E-02
quench:  g(F)=  0.000E+00 g(S)=  0.000E+00 dE (1.order)= 0.000E+00
 bond charge predicted
       N       E                     dE             d eps       ncg     rms          rms(c)
DAV:   1    -0.349967366572E+02   -0.60655E-02   -0.26014E-02  3264   0.786E-01    0.402E-02
DAV:   2    -0.349967763575E+02   -0.39700E-04   -0.49639E-04  4584   0.109E-01    0.289E-02
DAV:   3    -0.349967777826E+02   -0.14251E-05   -0.19525E-04  4800   0.627E-02    0.300E-02
DAV:   4    -0.349967670035E+02    0.10779E-04   -0.65870E-05  5032   0.329E-02    0.158E-02
DAV:   5    -0.349967666577E+02    0.34585E-06   -0.43302E-06  3176   0.105E-02
  25 F= -.34996767E+02 E0= -.34989470E+02  d E =-.609578E-02
quench:  g(F)=  0.000E+00 g(S)=  0.000E+00 dE (1.order)= 0.000E+00
 bond charge predicted
       N       E                     dE             d eps       ncg     rms          rms(c)
DAV:   1    -0.350015238222E+02   -0.47568E-02   -0.31180E-02  3264   0.860E-01    0.436E-02
DAV:   2    -0.350015589374E+02   -0.35115E-04   -0.46215E-04  4512   0.107E-01    0.215E-02
DAV:   3    -0.350015600197E+02   -0.10823E-05   -0.87536E-05  4688   0.445E-02    0.237E-02
DAV:   4    -0.350015550739E+02    0.49457E-05   -0.44235E-05  4880   0.277E-02    0.142E-02
DAV:   5    -0.350015548668E+02    0.20710E-06   -0.99576E-06  3688   0.137E-02
  26 F= -.35001555E+02 E0= -.34994301E+02  d E =-.478821E-02
quench:  g(F)=  0.000E+00 g(S)=  0.000E+00 dE (1.order)= 0.000E+00
 bond charge predicted
       N       E                     dE             d eps       ncg     rms          rms(c)
DAV:   1    -0.350027828401E+02   -0.12278E-02   -0.26886E-02  3264   0.798E-01    0.367E-02
DAV:   2    -0.350028063268E+02   -0.23487E-04   -0.32906E-04  4392   0.922E-02    0.170E-02
DAV:   3    -0.350028045162E+02    0.18106E-05   -0.23254E-05  4272   0.262E-02    0.146E-02
DAV:   4    -0.350028038920E+02    0.62426E-06   -0.58814E-06  3840   0.123E-02
  27 F= -.35002804E+02 E0= -.34995582E+02  d E =-.124903E-02
quench:  g(F)=  0.000E+00 g(S)=  0.000E+00 dE (1.order)= 0.000E+00
 bond charge predicted
       N       E                     dE             d eps       ncg     rms          rms(c)
DAV:   1    -0.350042961187E+02   -0.14916E-02   -0.96388E-03  3264   0.478E-01    0.375E-02
DAV:   2    -0.350043174819E+02   -0.21363E-04   -0.26097E-04  4776   0.762E-02    0.285E-02
DAV:   3    -0.350043182873E+02   -0.80536E-06   -0.27097E-04  4808   0.691E-02    0.286E-02
DAV:   4    -0.350043040812E+02    0.14206E-04   -0.76172E-05  5168   0.342E-02    0.876E-03
DAV:   5    -0.350043038085E+02    0.27273E-06   -0.15028E-06  2832   0.695E-03
  28 F= -.35004304E+02 E0= -.34997091E+02  d E =-.149992E-02
quench:  g(F)=  0.000E+00 g(S)=  0.000E+00 dE (1.order)= 0.000E+00
 bond charge predicted
       N       E                     dE             d eps       ncg     rms          rms(c)
DAV:   1    -0.350045886117E+02   -0.28453E-03   -0.28409E-04  3264   0.817E-02    0.729E-03
DAV:   2    -0.350045888408E+02   -0.22906E-06   -0.43556E-06  4304   0.110E-02
  29 F= -.35004589E+02 E0= -.34997379E+02  d E =-.285032E-03
quench:  g(F)=  0.000E+00 g(S)=  0.000E+00 dE (1.order)= 0.000E+00
 bond charge predicted
       N       E                     dE             d eps       ncg     rms          rms(c)
DAV:   1    -0.350056399321E+02   -0.10513E-02   -0.87463E-04  3264   0.144E-01    0.999E-03
DAV:   2    -0.350056410215E+02   -0.10894E-05   -0.16741E-05  4504   0.208E-02    0.442E-03
DAV:   3    -0.350056410223E+02   -0.77125E-09   -0.25041E-06  2776   0.817E-03
  30 F= -.35005641E+02 E0= -.34998436E+02  d E =-.105218E-02
quench:  g(F)=  0.000E+00 g(S)=  0.000E+00 dE (1.order)= 0.000E+00
 bond charge predicted
       N       E                     dE             d eps       ncg     rms          rms(c)
DAV:   1    -0.350076868606E+02   -0.20458E-02   -0.21957E-03  3264   0.229E-01    0.131E-02
DAV:   2    -0.350076902423E+02   -0.33817E-05   -0.44297E-05  4448   0.329E-02    0.705E-03
DAV:   3    -0.350076901876E+02    0.54683E-07   -0.42759E-06  3424   0.110E-02
  31 F= -.35007690E+02 E0= -.35000500E+02  d E =-.204917E-02
quench:  g(F)=  0.000E+00 g(S)=  0.000E+00 dE (1.order)= 0.000E+00
 bond charge predicted
       N       E                     dE             d eps       ncg     rms          rms(c)
DAV:   1    -0.350108581691E+02   -0.31679E-02   -0.47294E-03  3264   0.336E-01    0.175E-02
DAV:   2    -0.350108659497E+02   -0.77806E-05   -0.96614E-05  4432   0.486E-02    0.107E-02
DAV:   3    -0.350108657540E+02    0.19567E-06   -0.74222E-06  4096   0.142E-02
  32 F= -.35010866E+02 E0= -.35003688E+02  d E =-.317557E-02
quench:  g(F)=  0.000E+00 g(S)=  0.000E+00 dE (1.order)= 0.000E+00
 bond charge predicted
       N       E                     dE             d eps       ncg     rms          rms(c)
DAV:   1    -0.350150006231E+02   -0.41347E-02   -0.84057E-03  3264   0.447E-01    0.228E-02
DAV:   2    -0.350150142564E+02   -0.13633E-04   -0.16968E-04  4448   0.639E-02    0.154E-02
DAV:   3    -0.350150141213E+02    0.13505E-06   -0.22239E-05  4736   0.232E-02    0.147E-02
DAV:   4    -0.350150131673E+02    0.95406E-06   -0.92743E-06  3728   0.133E-02
  33 F= -.35015013E+02 E0= -.35007860E+02  d E =-.414741E-02
quench:  g(F)=  0.000E+00 g(S)=  0.000E+00 dE (1.order)= 0.000E+00
 bond charge predicted
       N       E                     dE             d eps       ncg     rms          rms(c)
DAV:   1    -0.350194498239E+02   -0.44357E-02   -0.11917E-02  3264   0.532E-01    0.278E-02
DAV:   2    -0.350194690170E+02   -0.19193E-04   -0.23297E-04  4488   0.745E-02    0.192E-02
DAV:   3    -0.350194699181E+02   -0.90104E-06   -0.63566E-05  4808   0.365E-02    0.192E-02
DAV:   4    -0.350194663166E+02    0.36014E-05   -0.25647E-05  4792   0.207E-02    0.117E-02
DAV:   5    -0.350194661313E+02    0.18535E-06   -0.21616E-06  2512   0.758E-03
  34 F= -.35019466E+02 E0= -.35012346E+02  d E =-.445296E-02
quench:  g(F)=  0.000E+00 g(S)=  0.000E+00 dE (1.order)= 0.000E+00
 bond charge predicted
       N       E                     dE             d eps       ncg     rms          rms(c)
DAV:   1    -0.350225377750E+02   -0.30715E-02   -0.13884E-02  3264   0.574E-01    0.304E-02
DAV:   2    -0.350225550941E+02   -0.17319E-04   -0.22063E-04  4480   0.735E-02    0.150E-02
DAV:   3    -0.350225563510E+02   -0.12569E-05   -0.49697E-05  4720   0.329E-02    0.172E-02
DAV:   4    -0.350225532682E+02    0.30828E-05   -0.25139E-05  4768   0.206E-02    0.958E-03
DAV:   5    -0.350225532078E+02    0.60392E-07   -0.35533E-06  2696   0.866E-03
  35 F= -.35022553E+02 E0= -.35015470E+02  d E =-.308708E-02
quench:  g(F)=  0.000E+00 g(S)=  0.000E+00 dE (1.order)= 0.000E+00
 bond charge predicted
       N       E                     dE             d eps       ncg     rms          rms(c)
DAV:   1    -0.350220184868E+02    0.53478E-03   -0.51707E-03  3264   0.351E-01    0.173E-02
DAV:   2    -0.350220241176E+02   -0.56308E-05   -0.73393E-05  4328   0.435E-02    0.775E-03
DAV:   3    -0.350220239162E+02    0.20142E-06   -0.68273E-06  3944   0.133E-02
  36 F= -.35022024E+02 E0= -.35014956E+02  d E =0.529292E-03
quench:  g(F)=  0.000E+00 g(S)=  0.000E+00 dE (1.order)= 0.000E+00
 bond charge predicted
       N       E                     dE             d eps       ncg     rms          rms(c)
DAV:   1    -0.350227742231E+02   -0.75011E-03   -0.71783E-04  3264   0.130E-01    0.101E-02
DAV:   2    -0.350227760105E+02   -0.17874E-05   -0.23292E-05  4632   0.231E-02    0.765E-03
DAV:   3    -0.350227761036E+02   -0.93110E-07   -0.15677E-05  4296   0.172E-02    0.763E-03
DAV:   4    -0.350227752290E+02    0.87462E-06   -0.45978E-06  2928   0.904E-03
  37 F= -.35022775E+02 E0= -.35015713E+02  d E =-.751313E-03
quench:  g(F)=  0.000E+00 g(S)=  0.000E+00 dE (1.order)= 0.000E+00
 bond charge predicted
       N       E                     dE             d eps       ncg     rms          rms(c)
DAV:   1    -0.350236998524E+02   -0.92375E-03   -0.67089E-04  3264   0.126E-01    0.686E-03
DAV:   2    -0.350237007041E+02   -0.85165E-06   -0.10739E-05  4368   0.164E-02    0.340E-03
DAV:   3    -0.350237007155E+02   -0.11424E-07   -0.48307E-07  2608   0.391E-03
  38 F= -.35023701E+02 E0= -.35016646E+02  d E =-.925487E-03
quench:  g(F)=  0.000E+00 g(S)=  0.000E+00 dE (1.order)= 0.000E+00
 bond charge predicted
       N       E                     dE             d eps       ncg     rms          rms(c)
DAV:   1    -0.350249536911E+02   -0.12530E-02   -0.81681E-04  3264   0.139E-01    0.731E-03
DAV:   2    -0.350249553594E+02   -0.16684E-05   -0.19415E-05  4520   0.217E-02    0.585E-03
DAV:   3    -0.350249553259E+02    0.33508E-07   -0.73270E-06  3560   0.125E-02
  39 F= -.35024955E+02 E0= -.35017906E+02  d E =-.125461E-02
quench:  g(F)=  0.000E+00 g(S)=  0.000E+00 dE (1.order)= 0.000E+00
 bond charge predicted
       N       E                     dE             d eps       ncg     rms          rms(c)
DAV:   1    -0.350265975096E+02   -0.16422E-02   -0.14301E-03  3264   0.184E-01    0.948E-03
DAV:   2    -0.350265997571E+02   -0.22475E-05   -0.27918E-05  4424   0.261E-02    0.591E-03
DAV:   3    -0.350265996626E+02    0.94532E-07   -0.14990E-06  2880   0.713E-03
  40 F= -.35026600E+02 E0= -.35019563E+02  d E =-.164434E-02
quench:  g(F)=  0.000E+00 g(S)=  0.000E+00 dE (1.order)= 0.000E+00
 bond charge predicted
       N       E                     dE             d eps       ncg     rms          rms(c)
DAV:   1    -0.350286935941E+02   -0.20938E-02   -0.21914E-03  3264   0.228E-01    0.118E-02
DAV:   2    -0.350286974418E+02   -0.38478E-05   -0.45714E-05  4456   0.329E-02    0.806E-03
DAV:   3    -0.350286974937E+02   -0.51872E-07   -0.63476E-06  3816   0.124E-02
  41 F= -.35028697E+02 E0= -.35021677E+02  d E =-.209783E-02
quench:  g(F)=  0.000E+00 g(S)=  0.000E+00 dE (1.order)= 0.000E+00
 bond charge predicted
       N       E                     dE             d eps       ncg     rms          rms(c)
DAV:   1    -0.350312666665E+02   -0.25692E-02   -0.34666E-03  3264   0.287E-01    0.147E-02
DAV:   2    -0.350312720535E+02   -0.53870E-05   -0.67622E-05  4432   0.408E-02    0.965E-03
DAV:   3    -0.350312718331E+02    0.22036E-06   -0.40560E-06  3728   0.109E-02
  42 F= -.35031272E+02 E0= -.35024266E+02  d E =-.257434E-02
quench:  g(F)=  0.000E+00 g(S)=  0.000E+00 dE (1.order)= 0.000E+00
 bond charge predicted
       N       E                     dE             d eps       ncg     rms          rms(c)
DAV:   1    -0.350342153032E+02   -0.29432E-02   -0.49918E-03  3264   0.345E-01    0.174E-02
DAV:   2    -0.350342231433E+02   -0.78400E-05   -0.96971E-05  4512   0.481E-02    0.129E-02
DAV:   3    -0.350342232217E+02   -0.78430E-07   -0.21288E-05  4768   0.215E-02    0.126E-02
DAV:   4    -0.350342221102E+02    0.11115E-05   -0.86004E-06  3656   0.124E-02    0.852E-03
DAV:   5    -0.350342221930E+02   -0.82821E-07   -0.18038E-06  2280   0.722E-03
  43 F= -.35034222E+02 E0= -.35027240E+02  d E =-.295036E-02
quench:  g(F)=  0.000E+00 g(S)=  0.000E+00 dE (1.order)= 0.000E+00
 bond charge predicted
       N       E                     dE             d eps       ncg     rms          rms(c)
DAV:   1    -0.350361954339E+02   -0.19733E-02   -0.52117E-03  3264   0.352E-01    0.201E-02
DAV:   2    -0.350362027911E+02   -0.73572E-05   -0.90332E-05  4520   0.466E-02    0.957E-03
DAV:   3    -0.350362035564E+02   -0.76528E-06   -0.21334E-05  4704   0.214E-02    0.111E-02
DAV:   4    -0.350362021703E+02    0.13860E-05   -0.10910E-05  3824   0.137E-02    0.593E-03
DAV:   5    -0.350362022204E+02   -0.50070E-07   -0.13344E-06  2232   0.600E-03
  44 F= -.35036202E+02 E0= -.35029244E+02  d E =-.198003E-02
quench:  g(F)=  0.000E+00 g(S)=  0.000E+00 dE (1.order)= 0.000E+00
 bond charge predicted
       N       E                     dE             d eps       ncg     rms          rms(c)
DAV:   1    -0.350359174620E+02    0.28471E-03   -0.53251E-04  3264   0.113E-01    0.852E-03
DAV:   2    -0.350359181545E+02   -0.69250E-06   -0.84638E-06  4352   0.149E-02
  45 F= -.35035918E+02 E0= -.35028965E+02  d E =0.284066E-03
quench:  g(F)=  0.000E+00 g(S)=  0.000E+00 dE (1.order)= 0.000E+00
 bond charge predicted
       N       E                     dE             d eps       ncg     rms          rms(c)
DAV:   1    -0.350359966645E+02   -0.79203E-04   -0.66695E-05  3272   0.398E-02    0.480E-03
DAV:   2    -0.350359973381E+02   -0.67359E-06   -0.79554E-06  3616   0.130E-02
  46 F= -.35035997E+02 E0= -.35029048E+02  d E =-.791836E-04
quench:  g(F)=  0.000E+00 g(S)=  0.000E+00 dE (1.order)= 0.000E+00
 reached required accuracy - stopping structural energy minimisation
