LAMMPS (29 Sep 2021)
Running on 7 partitions of processors
Reading NEB coordinate file(s) ...
Setting up regular NEB ...
Step MaxReplicaForce MaxAtomForce GradV0 GradV1 GradVc EBF EBR RDT RD1 PE1 RD2 PE2 ... RDN PEN
0    14067.292    56020.273     27.83192    10815.808    13323.818    123239.34    140890.64    96.106991            0   -927606.01   0.16666667   -850418.42   0.33333333   -807734.25          0.5   -804366.67   0.66666667   -823115.26   0.83333333   -880499.27            1   -945257.31 
100     1186.596    316.40375    7.2132171     400.0579    631.16399    46425.012     81576.45    114.15007            0   -927607.93   0.18964436   -897696.83   0.35207594   -881182.92   0.49765611   -883286.88   0.64686562   -885980.46   0.78818319    -924627.9            1   -962759.37 
200    280.56101    43.128776    1.2032578    28.111607      246.163    44368.557    79708.828    123.51775            0    -927608.2   0.20113472   -902382.15    0.3681557   -883239.64   0.50457858   -884744.56   0.64797196   -888596.31   0.77356687   -927501.21            1   -962948.47 
300    560.97626    2716.4959   0.36106952    7.2221513     206.7253     44026.21    79369.698    126.44638            0   -927608.21   0.19493568    -902814.4   0.36725051      -883582   0.50135525   -884842.16   0.64200467    -890914.7   0.76608729   -928648.76            1    -962951.7 
400    581.53946    1514.1988  0.081824812    1.3144477    187.27698    43735.934    79079.642     131.9549            0   -927608.21   0.18225256   -903029.14   0.35794439   -883872.27   0.48733427   -884952.69   0.62110889   -894902.55    0.7538946    -930820.2            1   -962951.92 
500    254.38232    1789.8653  0.020410513   0.41661836    166.58112    43419.025    78762.742    136.86985            0   -927608.21   0.17101025   -903308.88   0.35224743   -884189.18    0.4778341   -884998.83   0.60574161    -897701.8   0.75020357   -931290.71            1   -962951.93 
600     167.5863    1140.7878  0.010316374   0.32372097     176.4543    43040.114    78383.834    140.33997            0   -927608.21   0.16407405   -903523.64   0.35252556    -884568.1   0.47580334   -885343.17   0.60121328   -898341.48   0.75174361   -931620.44            1   -962951.93 
691    131.09831    98.976312 0.0079913711   0.30390117    140.66699    42892.379    78236.099    141.69725            0   -927608.21   0.16195518   -903592.68    0.3534904   -884715.83    0.4759024   -885461.02   0.60052401    -898464.8   0.75243698   -931687.27            1   -962951.93 
Setting up climbing ...
Climbing replica = 3
Step MaxReplicaForce MaxAtomForce GradV0 GradV1 GradVc EBF EBR RDT RD1 PE1 RD2 PE2 ... RDN PEN
691    140.66628    98.984461 0.0083909446   0.30393729    140.66628    42892.378    78236.098    141.69725            0   -927608.21   0.16195518   -903592.67    0.3534904   -884715.83    0.4759024   -885461.02   0.60052401    -898464.8   0.75243698   -931687.27            1   -962951.93 
697    140.63797    96.213027 0.0085381605   0.30381833    140.63797    42892.223    78235.944    141.69943            0   -927608.21   0.16195201   -903592.74   0.35348984   -884715.99   0.47590421   -885461.13   0.60052411   -898464.94   0.75243838   -931687.34            1   -962951.93 
[1652883652.355130] [cn605-26-r:76119:0]          mpool.c:43   UCX  WARN  object 0x37e94c0 was not returned to mpool ucp_requests
[1652883652.355215] [cn605-26-r:76119:0]          mpool.c:43   UCX  WARN  object 0x37e9680 was not returned to mpool ucp_requests
[1652883652.355236] [cn605-26-r:76119:0]          mpool.c:43   UCX  WARN  object 0x37e9840 was not returned to mpool ucp_requests
[1652883652.355255] [cn605-26-r:76119:0]          mpool.c:43   UCX  WARN  object 0x37e9a00 was not returned to mpool ucp_requests
[1652883652.355272] [cn605-26-r:76119:0]          mpool.c:43   UCX  WARN  object 0x37e9bc0 was not returned to mpool ucp_requests
[1652883652.355289] [cn605-26-r:76119:0]          mpool.c:43   UCX  WARN  object 0x37e9d80 was not returned to mpool ucp_requests
[1652883652.355305] [cn605-26-r:76119:0]          mpool.c:43   UCX  WARN  object 0x37e9f40 was not returned to mpool ucp_requests
[1652883652.355324] [cn605-26-r:76119:0]          mpool.c:43   UCX  WARN  object 0x37ea100 was not returned to mpool ucp_requests
[1652883652.355341] [cn605-26-r:76119:0]          mpool.c:43   UCX  WARN  object 0x37ea2c0 was not returned to mpool ucp_requests
[1652883652.355358] [cn605-26-r:76119:0]          mpool.c:43   UCX  WARN  object 0x37ea480 was not returned to mpool ucp_requests
[1652883652.355374] [cn605-26-r:76119:0]          mpool.c:43   UCX  WARN  object 0x37ea640 was not returned to mpool ucp_requests
[1652883652.355391] [cn605-26-r:76119:0]          mpool.c:43   UCX  WARN  object 0x37ea800 was not returned to mpool ucp_requests
[1652883652.355408] [cn605-26-r:76119:0]          mpool.c:43   UCX  WARN  object 0x37ea9c0 was not returned to mpool ucp_requests
[1652883652.355425] [cn605-26-r:76119:0]          mpool.c:43   UCX  WARN  object 0x37eab80 was not returned to mpool ucp_requests
[1652883652.355441] [cn605-26-r:76119:0]          mpool.c:43   UCX  WARN  object 0x37ead40 was not returned to mpool ucp_requests
[1652883652.355466] [cn605-26-r:76119:0]          mpool.c:43   UCX  WARN  object 0x37eaf00 was not returned to mpool ucp_requests
[1652883652.355484] [cn605-26-r:76119:0]          mpool.c:43   UCX  WARN  object 0x37eb0c0 was not returned to mpool ucp_requests
[1652883652.355501] [cn605-26-r:76119:0]          mpool.c:43   UCX  WARN  object 0x37eb280 was not returned to mpool ucp_requests
[1652883652.355518] [cn605-26-r:76119:0]          mpool.c:43   UCX  WARN  object 0x37eb440 was not returned to mpool ucp_requests
[1652883652.355535] [cn605-26-r:76119:0]          mpool.c:43   UCX  WARN  object 0x37eb600 was not returned to mpool ucp_requests
[1652883652.355595] [cn605-06-r:32327:0]          mpool.c:43   UCX  WARN  object 0x30a5d80 was not returned to mpool ucp_requests
[1652883652.355650] [cn605-06-r:32327:0]          mpool.c:43   UCX  WARN  object 0x30a5f40 was not returned to mpool ucp_requests
[1652883652.355664] [cn605-06-r:32327:0]          mpool.c:43   UCX  WARN  object 0x30a6100 was not returned to mpool ucp_requests
[1652883652.355670] [cn605-06-r:32327:0]          mpool.c:43   UCX  WARN  object 0x30a62c0 was not returned to mpool ucp_requests
[1652883652.355676] [cn605-06-r:32327:0]          mpool.c:43   UCX  WARN  object 0x30a6480 was not returned to mpool ucp_requests
[1652883652.355686] [cn605-06-r:32327:0]          mpool.c:43   UCX  WARN  object 0x30a6640 was not returned to mpool ucp_requests
[1652883652.355692] [cn605-06-r:32327:0]          mpool.c:43   UCX  WARN  object 0x30a6800 was not returned to mpool ucp_requests
[1652883652.355697] [cn605-06-r:32327:0]          mpool.c:43   UCX  WARN  object 0x30a69c0 was not returned to mpool ucp_requests
[1652883652.355703] [cn605-06-r:32327:0]          mpool.c:43   UCX  WARN  object 0x30a6b80 was not returned to mpool ucp_requests
[1652883652.355714] [cn605-06-r:32327:0]          mpool.c:43   UCX  WARN  object 0x30a6d40 was not returned to mpool ucp_requests
[1652883652.355719] [cn605-06-r:32327:0]          mpool.c:43   UCX  WARN  object 0x30a6f00 was not returned to mpool ucp_requests
[1652883652.355551] [cn605-26-r:76119:0]          mpool.c:43   UCX  WARN  object 0x37eb7c0 was not returned to mpool ucp_requests
[1652883652.355569] [cn605-26-r:76119:0]          mpool.c:43   UCX  WARN  object 0x37eb980 was not returned to mpool ucp_requests
[1652883652.355585] [cn605-26-r:76119:0]          mpool.c:43   UCX  WARN  object 0x37ebb40 was not returned to mpool ucp_requests
[1652883652.355612] [cn605-26-r:76119:0]          mpool.c:43   UCX  WARN  object 0x37ebd00 was not returned to mpool ucp_requests
[1652883652.355629] [cn605-26-r:76119:0]          mpool.c:43   UCX  WARN  object 0x37ebec0 was not returned to mpool ucp_requests
[1652883652.355738] [cn605-06-r:32327:0]          mpool.c:43   UCX  WARN  object 0x30a70c0 was not returned to mpool ucp_requests
[1652883652.355750] [cn605-06-r:32327:0]          mpool.c:43   UCX  WARN  object 0x30a7280 was not returned to mpool ucp_requests
[1652883652.355755] [cn605-06-r:32327:0]          mpool.c:43   UCX  WARN  object 0x30a7440 was not returned to mpool ucp_requests
[1652883652.355761] [cn605-06-r:32327:0]          mpool.c:43   UCX  WARN  object 0x30a7600 was not returned to mpool ucp_requests
[1652883652.355767] [cn605-06-r:32327:0]          mpool.c:43   UCX  WARN  object 0x30a77c0 was not returned to mpool ucp_requests
[1652883652.355772] [cn605-06-r:32327:0]          mpool.c:43   UCX  WARN  object 0x30a7980 was not returned to mpool ucp_requests
[1652883652.355777] [cn605-06-r:32327:0]          mpool.c:43   UCX  WARN  object 0x30a7b40 was not returned to mpool ucp_requests
[1652883652.355783] [cn605-06-r:32327:0]          mpool.c:43   UCX  WARN  object 0x30a7d00 was not returned to mpool ucp_requests
[1652883652.355788] [cn605-06-r:32327:0]          mpool.c:43   UCX  WARN  object 0x30a7ec0 was not returned to mpool ucp_requests
[1652883652.355798] [cn605-06-r:32327:0]          mpool.c:43   UCX  WARN  object 0x30a8080 was not returned to mpool ucp_requests
[1652883652.355808] [cn605-06-r:32327:0]          mpool.c:43   UCX  WARN  object 0x30a8240 was not returned to mpool ucp_requests
[1652883652.355814] [cn605-06-r:32327:0]          mpool.c:43   UCX  WARN  object 0x30a8400 was not returned to mpool ucp_requests
[1652883652.355819] [cn605-06-r:32327:0]          mpool.c:43   UCX  WARN  object 0x30a85c0 was not returned to mpool ucp_requests
[1652883652.355825] [cn605-06-r:32327:0]          mpool.c:43   UCX  WARN  object 0x30a8780 was not returned to mpool ucp_requests
[1652883652.355830] [cn605-06-r:32327:0]          mpool.c:43   UCX  WARN  object 0x30a8940 was not returned to mpool ucp_requests
[1652883652.355836] [cn605-06-r:32327:0]          mpool.c:43   UCX  WARN  object 0x30a8b00 was not returned to mpool ucp_requests
[1652883652.355841] [cn605-06-r:32327:0]          mpool.c:43   UCX  WARN  object 0x30a8cc0 was not returned to mpool ucp_requests
[1652883652.355851] [cn605-06-r:32327:0]          mpool.c:43   UCX  WARN  object 0x30a8e80 was not returned to mpool ucp_requests
[1652883652.355646] [cn605-26-r:76119:0]          mpool.c:43   UCX  WARN  object 0x37ec080 was not returned to mpool ucp_requests
[1652883652.355664] [cn605-26-r:76119:0]          mpool.c:43   UCX  WARN  object 0x37ec240 was not returned to mpool ucp_requests
[1652883652.355681] [cn605-26-r:76119:0]          mpool.c:43   UCX  WARN  object 0x37ec400 was not returned to mpool ucp_requests
[1652883652.355706] [cn605-26-r:76119:0]          mpool.c:43   UCX  WARN  object 0x37ec5c0 was not returned to mpool ucp_requests
[1652883652.355723] [cn605-26-r:76119:0]          mpool.c:43   UCX  WARN  object 0x37ec780 was not returned to mpool ucp_requests
[1652883652.355857] [cn605-06-r:32327:0]          mpool.c:43   UCX  WARN  object 0x30a9040 was not returned to mpool ucp_requests
[1652883652.355863] [cn605-06-r:32327:0]          mpool.c:43   UCX  WARN  object 0x30a9200 was not returned to mpool ucp_requests
[1652883652.355873] [cn605-06-r:32327:0]          mpool.c:43   UCX  WARN  object 0x30a93c0 was not returned to mpool ucp_requests
[1652883652.355879] [cn605-06-r:32327:0]          mpool.c:43   UCX  WARN  object 0x30a9580 was not returned to mpool ucp_requests
[1652883652.355884] [cn605-06-r:32327:0]          mpool.c:43   UCX  WARN  object 0x30a9740 was not returned to mpool ucp_requests
[1652883652.355890] [cn605-06-r:32327:0]          mpool.c:43   UCX  WARN  object 0x30a9900 was not returned to mpool ucp_requests
[1652883652.355900] [cn605-06-r:32327:0]          mpool.c:43   UCX  WARN  object 0x30a9ac0 was not returned to mpool ucp_requests
[1652883652.355917] [cn605-06-r:32327:0]          mpool.c:43   UCX  WARN  object 0x30a9c80 was not returned to mpool ucp_requests
[1652883652.355923] [cn605-06-r:32327:0]          mpool.c:43   UCX  WARN  object 0x30a9e40 was not returned to mpool ucp_requests
[1652883652.355929] [cn605-06-r:32327:0]          mpool.c:43   UCX  WARN  object 0x30aa000 was not returned to mpool ucp_requests
[1652883652.355934] [cn605-06-r:32327:0]          mpool.c:43   UCX  WARN  object 0x30aa1c0 was not returned to mpool ucp_requests
[1652883652.355740] [cn605-26-r:76119:0]          mpool.c:43   UCX  WARN  object 0x37ec940 was not returned to mpool ucp_requests
[1652883652.355757] [cn605-26-r:76119:0]          mpool.c:43   UCX  WARN  object 0x37ecb00 was not returned to mpool ucp_requests
[1652883652.355774] [cn605-26-r:76119:0]          mpool.c:43   UCX  WARN  object 0x37eccc0 was not returned to mpool ucp_requests
[1652883652.355799] [cn605-26-r:76119:0]          mpool.c:43   UCX  WARN  object 0x37ece80 was not returned to mpool ucp_requests
[1652883652.355816] [cn605-26-r:76119:0]          mpool.c:43   UCX  WARN  object 0x37ed040 was not returned to mpool ucp_requests
[1652883652.355945] [cn605-06-r:32327:0]          mpool.c:43   UCX  WARN  object 0x30aa380 was not returned to mpool ucp_requests
[1652883652.355952] [cn605-06-r:32327:0]          mpool.c:43   UCX  WARN  object 0x30aa540 was not returned to mpool ucp_requests
[1652883652.355957] [cn605-06-r:32327:0]          mpool.c:43   UCX  WARN  object 0x30aa700 was not returned to mpool ucp_requests
[1652883652.355963] [cn605-06-r:32327:0]          mpool.c:43   UCX  WARN  object 0x30aa8c0 was not returned to mpool ucp_requests
[1652883652.355968] [cn605-06-r:32327:0]          mpool.c:43   UCX  WARN  object 0x30aaa80 was not returned to mpool ucp_requests
[1652883652.355974] [cn605-06-r:32327:0]          mpool.c:43   UCX  WARN  object 0x30aac40 was not returned to mpool ucp_requests
[1652883652.355979] [cn605-06-r:32327:0]          mpool.c:43   UCX  WARN  object 0x30aae00 was not returned to mpool ucp_requests
[1652883652.355996] [cn605-06-r:32327:0]          mpool.c:43   UCX  WARN  object 0x30aafc0 was not returned to mpool ucp_requests
[1652883652.356002] [cn605-06-r:32327:0]          mpool.c:43   UCX  WARN  object 0x30ab180 was not returned to mpool ucp_requests
[1652883652.356007] [cn605-06-r:32327:0]          mpool.c:43   UCX  WARN  object 0x30ab340 was not returned to mpool ucp_requests
[1652883652.356013] [cn605-06-r:32327:0]          mpool.c:43   UCX  WARN  object 0x30ab500 was not returned to mpool ucp_requests
[1652883652.356018] [cn605-06-r:32327:0]          mpool.c:43   UCX  WARN  object 0x30ab6c0 was not returned to mpool ucp_requests
[1652883652.356024] [cn605-06-r:32327:0]          mpool.c:43   UCX  WARN  object 0x30ab880 was not returned to mpool ucp_requests
[1652883652.356030] [cn605-06-r:32327:0]          mpool.c:43   UCX  WARN  object 0x30aba40 was not returned to mpool ucp_requests
[1652883652.355833] [cn605-26-r:76119:0]          mpool.c:43   UCX  WARN  object 0x37ed200 was not returned to mpool ucp_requests
[1652883652.355850] [cn605-26-r:76119:0]          mpool.c:43   UCX  WARN  object 0x37ed3c0 was not returned to mpool ucp_requests
[1652883652.355867] [cn605-26-r:76119:0]          mpool.c:43   UCX  WARN  object 0x37ed580 was not returned to mpool ucp_requests
[1652883652.355892] [cn605-26-r:76119:0]          mpool.c:43   UCX  WARN  object 0x37ed740 was not returned to mpool ucp_requests
[1652883652.355909] [cn605-26-r:76119:0]          mpool.c:43   UCX  WARN  object 0x37ed900 was not returned to mpool ucp_requests
[1652883652.356035] [cn605-06-r:32327:0]          mpool.c:43   UCX  WARN  object 0x30abc00 was not returned to mpool ucp_requests
[1652883652.356041] [cn605-06-r:32327:0]          mpool.c:43   UCX  WARN  object 0x30abdc0 was not returned to mpool ucp_requests
[1652883652.356047] [cn605-06-r:32327:0]          mpool.c:43   UCX  WARN  object 0x30abf80 was not returned to mpool ucp_requests
[1652883652.356052] [cn605-06-r:32327:0]          mpool.c:43   UCX  WARN  object 0x30ac140 was not returned to mpool ucp_requests
[1652883652.356058] [cn605-06-r:32327:0]          mpool.c:43   UCX  WARN  object 0x30ac300 was not returned to mpool ucp_requests
[1652883652.356063] [cn605-06-r:32327:0]          mpool.c:43   UCX  WARN  object 0x30ac4c0 was not returned to mpool ucp_requests
[1652883652.356069] [cn605-06-r:32327:0]          mpool.c:43   UCX  WARN  object 0x30ac680 was not returned to mpool ucp_requests
[1652883652.356075] [cn605-06-r:32327:0]          mpool.c:43   UCX  WARN  object 0x3090800 was not returned to mpool ucp_requests
[1652883652.356081] [cn605-06-r:32327:0]          mpool.c:43   UCX  WARN  object 0x30909c0 was not returned to mpool ucp_requests
[1652883652.356086] [cn605-06-r:32327:0]          mpool.c:43   UCX  WARN  object 0x3090b80 was not returned to mpool ucp_requests
[1652883652.356092] [cn605-06-r:32327:0]          mpool.c:43   UCX  WARN  object 0x3090d40 was not returned to mpool ucp_requests
[1652883652.356098] [cn605-06-r:32327:0]          mpool.c:43   UCX  WARN  object 0x3090f00 was not returned to mpool ucp_requests
[1652883652.356104] [cn605-06-r:32327:0]          mpool.c:43   UCX  WARN  object 0x30910c0 was not returned to mpool ucp_requests
[1652883652.356109] [cn605-06-r:32327:0]          mpool.c:43   UCX  WARN  object 0x3091280 was not returned to mpool ucp_requests
[1652883652.355925] [cn605-26-r:76119:0]          mpool.c:43   UCX  WARN  object 0x37edac0 was not returned to mpool ucp_requests
[1652883652.355942] [cn605-26-r:76119:0]          mpool.c:43   UCX  WARN  object 0x37edc80 was not returned to mpool ucp_requests
[1652883652.355959] [cn605-26-r:76119:0]          mpool.c:43   UCX  WARN  object 0x37ede40 was not returned to mpool ucp_requests
[1652883652.355983] [cn605-26-r:76119:0]          mpool.c:43   UCX  WARN  object 0x37ee000 was not returned to mpool ucp_requests
[1652883652.356004] [cn605-26-r:76119:0]          mpool.c:43   UCX  WARN  object 0x37ee1c0 was not returned to mpool ucp_requests
[1652883652.356124] [cn605-06-r:32327:0]          mpool.c:43   UCX  WARN  object 0x3091440 was not returned to mpool ucp_requests
[1652883652.356131] [cn605-06-r:32327:0]          mpool.c:43   UCX  WARN  object 0x3091600 was not returned to mpool ucp_requests
[1652883652.356136] [cn605-06-r:32327:0]          mpool.c:43   UCX  WARN  object 0x30917c0 was not returned to mpool ucp_requests
[1652883652.356142] [cn605-06-r:32327:0]          mpool.c:43   UCX  WARN  object 0x3091980 was not returned to mpool ucp_requests
[1652883652.356147] [cn605-06-r:32327:0]          mpool.c:43   UCX  WARN  object 0x3091b40 was not returned to mpool ucp_requests
[1652883652.356156] [cn605-06-r:32327:0]          mpool.c:43   UCX  WARN  object 0x3091d00 was not returned to mpool ucp_requests
[1652883652.356162] [cn605-06-r:32327:0]          mpool.c:43   UCX  WARN  object 0x3091ec0 was not returned to mpool ucp_requests
[1652883652.356167] [cn605-06-r:32327:0]          mpool.c:43   UCX  WARN  object 0x3092080 was not returned to mpool ucp_requests
[1652883652.356177] [cn605-06-r:32327:0]          mpool.c:43   UCX  WARN  object 0x3092240 was not returned to mpool ucp_requests
[1652883652.356183] [cn605-06-r:32327:0]          mpool.c:43   UCX  WARN  object 0x3092400 was not returned to mpool ucp_requests
[1652883652.356194] [cn605-06-r:32327:0]          mpool.c:43   UCX  WARN  object 0x30925c0 was not returned to mpool ucp_requests
[1652883652.356199] [cn605-06-r:32327:0]          mpool.c:43   UCX  WARN  object 0x3092780 was not returned to mpool ucp_requests
[1652883652.356212] [cn605-06-r:32327:0]          mpool.c:43   UCX  WARN  object 0x3092940 was not returned to mpool ucp_requests
[1652883652.356217] [cn605-06-r:32327:0]          mpool.c:43   UCX  WARN  object 0x3092b00 was not returned to mpool ucp_requests
[1652883652.356026] [cn605-26-r:76119:0]          mpool.c:43   UCX  WARN  object 0x37ee380 was not returned to mpool ucp_requests
[1652883652.356043] [cn605-26-r:76119:0]          mpool.c:43   UCX  WARN  object 0x37ee540 was not returned to mpool ucp_requests
[1652883652.356060] [cn605-26-r:76119:0]          mpool.c:43   UCX  WARN  object 0x37ee700 was not returned to mpool ucp_requests
[1652883652.356077] [cn605-26-r:76119:0]          mpool.c:43   UCX  WARN  object 0x37ee8c0 was not returned to mpool ucp_requests
[1652883652.356094] [cn605-26-r:76119:0]          mpool.c:43   UCX  WARN  object 0x37eea80 was not returned to mpool ucp_requests
[1652883652.356192] [cn605-06-r:32343:0]          mpool.c:43   UCX  WARN  object 0x4c99140 was not returned to mpool ucp_requests
[1652883652.356257] [cn605-06-r:32343:0]          mpool.c:43   UCX  WARN  object 0x4c99300 was not returned to mpool ucp_requests
[1652883652.356278] [cn605-06-r:32343:0]          mpool.c:43   UCX  WARN  object 0x4c994c0 was not returned to mpool ucp_requests
[1652883652.356119] [cn605-26-r:76119:0]          mpool.c:43   UCX  WARN  object 0x37eec40 was not returned to mpool ucp_requests
[1652883652.356136] [cn605-26-r:76119:0]          mpool.c:43   UCX  WARN  object 0x37eee00 was not returned to mpool ucp_requests
[1652883652.356153] [cn605-26-r:76119:0]          mpool.c:43   UCX  WARN  object 0x37eefc0 was not returned to mpool ucp_requests
[1652883652.356180] [cn605-26-r:76119:0]          mpool.c:43   UCX  WARN  object 0x37ef180 was not returned to mpool ucp_requests
[1652883652.356202] [cn605-26-r:76119:0]          mpool.c:43   UCX  WARN  object 0x37ef340 was not returned to mpool ucp_requests
[1652883652.356223] [cn605-06-r:32327:0]          mpool.c:43   UCX  WARN  object 0x3092cc0 was not returned to mpool ucp_requests
[1652883652.356229] [cn605-06-r:32327:0]          mpool.c:43   UCX  WARN  object 0x3092e80 was not returned to mpool ucp_requests
[1652883652.356235] [cn605-06-r:32327:0]          mpool.c:43   UCX  WARN  object 0x3093040 was not returned to mpool ucp_requests
[1652883652.356240] [cn605-06-r:32327:0]          mpool.c:43   UCX  WARN  object 0x3093200 was not returned to mpool ucp_requests
[1652883652.356246] [cn605-06-r:32327:0]          mpool.c:43   UCX  WARN  object 0x30933c0 was not returned to mpool ucp_requests
[1652883652.356251] [cn605-06-r:32327:0]          mpool.c:43   UCX  WARN  object 0x3093580 was not returned to mpool ucp_requests
[1652883652.356258] [cn605-06-r:32327:0]          mpool.c:43   UCX  WARN  object 0x3093740 was not returned to mpool ucp_requests
[1652883652.356264] [cn605-06-r:32327:0]          mpool.c:43   UCX  WARN  object 0x3093900 was not returned to mpool ucp_requests
[1652883652.356270] [cn605-06-r:32327:0]          mpool.c:43   UCX  WARN  object 0x3093ac0 was not returned to mpool ucp_requests
[1652883652.356275] [cn605-06-r:32327:0]          mpool.c:43   UCX  WARN  object 0x3093c80 was not returned to mpool ucp_requests
[1652883652.356280] [cn605-06-r:32327:0]          mpool.c:43   UCX  WARN  object 0x3093e40 was not returned to mpool ucp_requests
[1652883652.356286] [cn605-06-r:32327:0]          mpool.c:43   UCX  WARN  object 0x3094000 was not returned to mpool ucp_requests
[1652883652.356293] [cn605-06-r:32327:0]          mpool.c:43   UCX  WARN  object 0x30941c0 was not returned to mpool ucp_requests
[1652883652.356298] [cn605-06-r:32327:0]          mpool.c:43   UCX  WARN  object 0x3094380 was not returned to mpool ucp_requests
[1652883652.356304] [cn605-06-r:32327:0]          mpool.c:43   UCX  WARN  object 0x3094540 was not returned to mpool ucp_requests
[1652883652.356309] [cn605-06-r:32327:0]          mpool.c:43   UCX  WARN  object 0x3094700 was not returned to mpool ucp_requests
[1652883652.356315] [cn605-06-r:32327:0]          mpool.c:43   UCX  WARN  object 0x30948c0 was not returned to mpool ucp_requests
[1652883652.356320] [cn605-06-r:32327:0]          mpool.c:43   UCX  WARN  object 0x3094a80 was not returned to mpool ucp_requests
[1652883652.356225] [cn605-26-r:76119:0]          mpool.c:43   UCX  WARN  object 0x37ef500 was not returned to mpool ucp_requests
[1652883652.356243] [cn605-26-r:76119:0]          mpool.c:43   UCX  WARN  object 0x37ef6c0 was not returned to mpool ucp_requests
[1652883652.356260] [cn605-26-r:76119:0]          mpool.c:43   UCX  WARN  object 0x37ef880 was not returned to mpool ucp_requests
[1652883652.356276] [cn605-26-r:76119:0]          mpool.c:43   UCX  WARN  object 0x37efa40 was not returned to mpool ucp_requests
[1652883652.356294] [cn605-26-r:76119:0]          mpool.c:43   UCX  WARN  object 0x37efc00 was not returned to mpool ucp_requests
[1652883652.356304] [cn605-06-r:32343:0]          mpool.c:43   UCX  WARN  object 0x4c99680 was not returned to mpool ucp_requests
[1652883652.356321] [cn605-06-r:32343:0]          mpool.c:43   UCX  WARN  object 0x4c99840 was not returned to mpool ucp_requests
[1652883652.356338] [cn605-06-r:32343:0]          mpool.c:43   UCX  WARN  object 0x4c99a00 was not returned to mpool ucp_requests
[1652883652.356355] [cn605-06-r:32343:0]          mpool.c:43   UCX  WARN  object 0x4c99bc0 was not returned to mpool ucp_requests
[1652883652.356371] [cn605-06-r:32343:0]          mpool.c:43   UCX  WARN  object 0x4c99d80 was not returned to mpool ucp_requests
[1652883652.356318] [cn605-26-r:76119:0]          mpool.c:43   UCX  WARN  object 0x37efdc0 was not returned to mpool ucp_requests
[1652883652.356337] [cn605-26-r:76119:0]          mpool.c:43   UCX  WARN  object 0x37d3f00 was not returned to mpool ucp_requests
[1652883652.356357] [cn605-26-r:76119:0]          mpool.c:43   UCX  WARN  object 0x37d40c0 was not returned to mpool ucp_requests
[1652883652.356381] [cn605-26-r:76119:0]          mpool.c:43   UCX  WARN  object 0x37d4280 was not returned to mpool ucp_requests
[1652883652.356398] [cn605-26-r:76119:0]          mpool.c:43   UCX  WARN  object 0x37d4440 was not returned to mpool ucp_requests
[1652883652.356332] [cn605-06-r:32327:0]          mpool.c:43   UCX  WARN  object 0x3094c40 was not returned to mpool ucp_requests
[1652883652.356348] [cn605-06-r:32327:0]          mpool.c:43   UCX  WARN  object 0x3094e00 was not returned to mpool ucp_requests
[1652883652.356354] [cn605-06-r:32327:0]          mpool.c:43   UCX  WARN  object 0x3094fc0 was not returned to mpool ucp_requests
[1652883652.356372] [cn605-06-r:32327:0]          mpool.c:43   UCX  WARN  object 0x3095180 was not returned to mpool ucp_requests
[1652883652.356378] [cn605-06-r:32327:0]          mpool.c:43   UCX  WARN  object 0x3095340 was not returned to mpool ucp_requests
[1652883652.356383] [cn605-06-r:32327:0]          mpool.c:43   UCX  WARN  object 0x3095500 was not returned to mpool ucp_requests
[1652883652.356389] [cn605-06-r:32327:0]          mpool.c:43   UCX  WARN  object 0x30956c0 was not returned to mpool ucp_requests
[1652883652.356401] [cn605-06-r:32327:0]          mpool.c:43   UCX  WARN  object 0x3095880 was not returned to mpool ucp_requests
[1652883652.356406] [cn605-06-r:32327:0]          mpool.c:43   UCX  WARN  object 0x3095a40 was not returned to mpool ucp_requests
[1652883652.356412] [cn605-06-r:32327:0]          mpool.c:43   UCX  WARN  object 0x3095c00 was not returned to mpool ucp_requests
[1652883652.356417] [cn605-06-r:32327:0]          mpool.c:43   UCX  WARN  object 0x3095dc0 was not returned to mpool ucp_requests
[1652883652.356428] [cn605-06-r:32327:0]          mpool.c:43   UCX  WARN  object 0x3095f80 was not returned to mpool ucp_requests
[1652883652.356435] [cn605-06-r:32327:0]          mpool.c:43   UCX  WARN  object 0x3096140 was not returned to mpool ucp_requests
[1652883652.356444] [cn605-06-r:32327:0]          mpool.c:43   UCX  WARN  object 0x3096300 was not returned to mpool ucp_requests
[1652883652.361091] [cn605-05-r:208683:0]          mpool.c:43   UCX  WARN  object 0x3608a80 was not returned to mpool ucp_requests
[1652883652.361116] [cn605-05-r:208683:0]          mpool.c:43   UCX  WARN  object 0x3608c40 was not returned to mpool ucp_requests
[1652883652.361137] [cn605-05-r:208683:0]          mpool.c:43   UCX  WARN  object 0x3608e00 was not returned to mpool ucp_requests
[1652883652.361144] [cn605-05-r:208683:0]          mpool.c:43   UCX  WARN  object 0x3608fc0 was not returned to mpool ucp_requests
[1652883652.361149] [cn605-05-r:208683:0]          mpool.c:43   UCX  WARN  object 0x3609180 was not returned to mpool ucp_requests
[1652883652.361155] [cn605-05-r:208683:0]          mpool.c:43   UCX  WARN  object 0x3609340 was not returned to mpool ucp_requests
[1652883652.361165] [cn605-05-r:208683:0]          mpool.c:43   UCX  WARN  object 0x36096c0 was not returned to mpool ucp_requests
[1652883652.361170] [cn605-05-r:208683:0]          mpool.c:43   UCX  WARN  object 0x3609880 was not returned to mpool ucp_requests
[1652883652.361176] [cn605-05-r:208683:0]          mpool.c:43   UCX  WARN  object 0x3609a40 was not returned to mpool ucp_requests
[1652883652.361181] [cn605-05-r:208683:0]          mpool.c:43   UCX  WARN  object 0x3609c00 was not returned to mpool ucp_requests
[1652883652.361186] [cn605-05-r:208683:0]          mpool.c:43   UCX  WARN  object 0x3609dc0 was not returned to mpool ucp_requests
[1652883652.361192] [cn605-05-r:208683:0]          mpool.c:43   UCX  WARN  object 0x3609f80 was not returned to mpool ucp_requests
[1652883652.361207] [cn605-05-r:208683:0]          mpool.c:43   UCX  WARN  object 0x360a140 was not returned to mpool ucp_requests
[1652883652.361217] [cn605-05-r:208683:0]          mpool.c:43   UCX  WARN  object 0x360a300 was not returned to mpool ucp_requests
[1652883652.361223] [cn605-05-r:208683:0]          mpool.c:43   UCX  WARN  object 0x360a4c0 was not returned to mpool ucp_requests
[1652883652.361238] [cn605-05-r:208683:0]          mpool.c:43   UCX  WARN  object 0x360a680 was not returned to mpool ucp_requests
[1652883652.356414] [cn605-26-r:76119:0]          mpool.c:43   UCX  WARN  object 0x37d4600 was not returned to mpool ucp_requests
[1652883652.356432] [cn605-26-r:76119:0]          mpool.c:43   UCX  WARN  object 0x37d47c0 was not returned to mpool ucp_requests
[1652883652.356448] [cn605-26-r:76119:0]          mpool.c:43   UCX  WARN  object 0x37d4980 was not returned to mpool ucp_requests
[1652883652.356473] [cn605-26-r:76119:0]          mpool.c:43   UCX  WARN  object 0x37d4b40 was not returned to mpool ucp_requests
[1652883652.356491] [cn605-26-r:76119:0]          mpool.c:43   UCX  WARN  object 0x37d4d00 was not returned to mpool ucp_requests
[1652883652.356388] [cn605-06-r:32343:0]          mpool.c:43   UCX  WARN  object 0x4c99f40 was not returned to mpool ucp_requests
[1652883652.356467] [cn605-06-r:32343:0]          mpool.c:43   UCX  WARN  object 0x4c9a100 was not returned to mpool ucp_requests
[1652883652.356484] [cn605-06-r:32343:0]          mpool.c:43   UCX  WARN  object 0x4c9a2c0 was not returned to mpool ucp_requests
[1652883652.356500] [cn605-06-r:32343:0]          mpool.c:43   UCX  WARN  object 0x4c9a480 was not returned to mpool ucp_requests
[1652883652.356517] [cn605-06-r:32343:0]          mpool.c:43   UCX  WARN  object 0x4c9a640 was not returned to mpool ucp_requests
[1652883652.361244] [cn605-05-r:208683:0]          mpool.c:43   UCX  WARN  object 0x360a840 was not returned to mpool ucp_requests
[1652883652.361250] [cn605-05-r:208683:0]          mpool.c:43   UCX  WARN  object 0x360aa00 was not returned to mpool ucp_requests
[1652883652.361255] [cn605-05-r:208683:0]          mpool.c:43   UCX  WARN  object 0x360abc0 was not returned to mpool ucp_requests
[1652883652.361270] [cn605-05-r:208683:0]          mpool.c:43   UCX  WARN  object 0x360ad80 was not returned to mpool ucp_requests
[1652883652.361275] [cn605-05-r:208683:0]          mpool.c:43   UCX  WARN  object 0x360af40 was not returned to mpool ucp_requests
[1652883652.361281] [cn605-05-r:208683:0]          mpool.c:43   UCX  WARN  object 0x360b100 was not returned to mpool ucp_requests
[1652883652.361287] [cn605-05-r:208683:0]          mpool.c:43   UCX  WARN  object 0x360b2c0 was not returned to mpool ucp_requests
[1652883652.361292] [cn605-05-r:208683:0]          mpool.c:43   UCX  WARN  object 0x360b480 was not returned to mpool ucp_requests
[1652883652.361297] [cn605-05-r:208683:0]          mpool.c:43   UCX  WARN  object 0x360b640 was not returned to mpool ucp_requests
[1652883652.361303] [cn605-05-r:208683:0]          mpool.c:43   UCX  WARN  object 0x360b800 was not returned to mpool ucp_requests
[1652883652.361308] [cn605-05-r:208683:0]          mpool.c:43   UCX  WARN  object 0x360b9c0 was not returned to mpool ucp_requests
[1652883652.361336] [cn605-05-r:208683:0]          mpool.c:43   UCX  WARN  object 0x360bb80 was not returned to mpool ucp_requests
[1652883652.361341] [cn605-05-r:208683:0]          mpool.c:43   UCX  WARN  object 0x360bd40 was not returned to mpool ucp_requests
[1652883652.361351] [cn605-05-r:208683:0]          mpool.c:43   UCX  WARN  object 0x360bf00 was not returned to mpool ucp_requests
[1652883652.361360] [cn605-05-r:208683:0]          mpool.c:43   UCX  WARN  object 0x360c0c0 was not returned to mpool ucp_requests
[1652883652.361366] [cn605-05-r:208683:0]          mpool.c:43   UCX  WARN  object 0x360c280 was not returned to mpool ucp_requests
[1652883652.361371] [cn605-05-r:208683:0]          mpool.c:43   UCX  WARN  object 0x360c440 was not returned to mpool ucp_requests
[1652883652.361377] [cn605-05-r:208683:0]          mpool.c:43   UCX  WARN  object 0x360c600 was not returned to mpool ucp_requests
[1652883652.361382] [cn605-05-r:208683:0]          mpool.c:43   UCX  WARN  object 0x360c7c0 was not returned to mpool ucp_requests
[1652883652.361387] [cn605-05-r:208683:0]          mpool.c:43   UCX  WARN  object 0x360c980 was not returned to mpool ucp_requests
[1652883652.361393] [cn605-05-r:208683:0]          mpool.c:43   UCX  WARN  object 0x360cb40 was not returned to mpool ucp_requests
[1652883652.361398] [cn605-05-r:208683:0]          mpool.c:43   UCX  WARN  object 0x360cd00 was not returned to mpool ucp_requests
[1652883652.361410] [cn605-05-r:208683:0]          mpool.c:43   UCX  WARN  object 0x360cec0 was not returned to mpool ucp_requests
[1652883652.361416] [cn605-05-r:208683:0]          mpool.c:43   UCX  WARN  object 0x360d080 was not returned to mpool ucp_requests
[1652883652.361421] [cn605-05-r:208683:0]          mpool.c:43   UCX  WARN  object 0x360d240 was not returned to mpool ucp_requests
[1652883652.361427] [cn605-05-r:208683:0]          mpool.c:43   UCX  WARN  object 0x360d400 was not returned to mpool ucp_requests
[1652883652.361432] [cn605-05-r:208683:0]          mpool.c:43   UCX  WARN  object 0x360d5c0 was not returned to mpool ucp_requests
[1652883652.361438] [cn605-05-r:208683:0]          mpool.c:43   UCX  WARN  object 0x360d780 was not returned to mpool ucp_requests
[1652883652.361443] [cn605-05-r:208683:0]          mpool.c:43   UCX  WARN  object 0x360d940 was not returned to mpool ucp_requests
[1652883652.361448] [cn605-05-r:208683:0]          mpool.c:43   UCX  WARN  object 0x360db00 was not returned to mpool ucp_requests
[1652883652.361454] [cn605-05-r:208683:0]          mpool.c:43   UCX  WARN  object 0x360dcc0 was not returned to mpool ucp_requests
[1652883652.361460] [cn605-05-r:20[1652883652.356507] [cn605-26-r:76119:0]          mpool.c:43   UCX  WARN  object 0x37d4ec0 was not returned to mpool ucp_requests
[1652883652.356528] [cn605-26-r:76119:0]          mpool.c:43   UCX  WARN  object 0x37d5080 was not returned to mpool ucp_requests
[1652883652.356545] [cn605-26-r:76119:0]          mpool.c:43   UCX  WARN  object 0x37d5240 was not returned to mpool ucp_requests
[1652883652.356563] [cn605-26-r:76119:0]          mpool.c:43   UCX  WARN  object 0x37d5400 was not returned to mpool ucp_requests
[1652883652.356450] [cn605-06-r:32327:0]          mpool.c:43   UCX  WARN  object 0x30964c0 was not returned to mpool ucp_requests
[1652883652.356463] [cn605-06-r:32327:0]          mpool.c:43   UCX  WARN  object 0x3096680 was not returned to mpool ucp_requests
[1652883652.356468] [cn605-06-r:32327:0]          mpool.c:43   UCX  WARN  object 0x3096840 was not returned to mpool ucp_requests
[1652883652.356474] [cn605-06-r:32327:0]          mpool.c:43   UCX  WARN  object 0x3096a00 was not returned to mpool ucp_requests
[1652883652.356479] [cn605-06-r:32327:0]          mpool.c:43   UCX  WARN  object 0x3096bc0 was not returned to mpool ucp_requests
[1652883652.356485] [cn605-06-r:32327:0]          mpool.c:43   UCX  WARN  object 0x3096d80 was not returned to mpool ucp_requests
[1652883652.356490] [cn605-06-r:32327:0]          mpool.c:43   UCX  WARN  object 0x3096f40 was not returned to mpool ucp_requests
[1652883652.356497] [cn605-06-r:32327:0]          mpool.c:43   UCX  WARN  object 0x3097100 was not returned to mpool ucp_requests
[1652883652.356503] [cn605-06-r:32327:0]          mpool.c:43   UCX  WARN  object 0x30972c0 was not returned to mpool ucp_requests
[1652883652.356508] [cn605-06-r:32327:0]          mpool.c:43   UCX  WARN  object 0x3097480 was not returned to mpool ucp_requests
[1652883652.356519] [cn605-06-r:32327:0]          mpool.c:43   UCX  WARN  object 0x3097640 was not returned to mpool ucp_requests
[1652883652.356529] [cn605-06-r:32327:0]          mpool.c:43   UCX  WARN  object 0x3097800 was not returned to mpool ucp_requests
[1652883652.356535] [cn605-06-r:32327:0]          mpool.c:43   UCX  WARN  object 0x30979c0 was not returned to mpool ucp_requests
[1652883652.361723] [cn605-05-r:208699:0]          mpool.c:43   UCX  WARN  object 0x3036600 was not returned to mpool ucp_requests
[1652883652.361783] [cn605-05-r:208699:0]          mpool.c:43   UCX  WARN  object 0x30367c0 was not returned to mpool ucp_requests
[1652883652.361804] [cn605-05-r:208699:0]          mpool.c:43   UCX  WARN  object 0x3036980 was not returned to mpool ucp_requests
[1652883652.361822] [cn605-05-r:208699:0]          mpool.c:43   UCX  WARN  object 0x3036b40 was not returned to mpool ucp_requests
[1652883652.361839] [cn605-05-r:208699:0]          mpool.c:43   UCX  WARN  object 0x3036d00 was not returned to mpool ucp_requests
[1652883652.361855] [cn605-05-r:208699:0]          mpool.c:43   UCX  WARN  object 0x3036ec0 was not returned to mpool ucp_requests
[1652883652.361872] [cn605-05-r:208699:0]          mpool.c:43   UCX  WARN  object 0x3037080 was not returned to mpool ucp_requests
[1652883652.361888] [cn605-05-r:208699:0]          mpool.c:43   UCX  WARN  object 0x3037240 was not returned to mpool ucp_requests
[1652883652.361904] [cn605-05-r:208699:0]          mpool.c:43   UCX  WARN  object 0x3037400 was not returned to mpool ucp_requests
[1652883652.361921] [cn605-05-r:208699:0]          mpool.c:43   UCX  WARN  object 0x30375c0 was not returned to mpool ucp_requests
[1652883652.361937] [cn605-05-r:208699:0]          mpool.c:43   UCX  WARN  object 0x3037780 was not returned to mpool ucp_requests
[1652883652.361961] [cn605-05-r:208699:0]          mpool.c:43   UCX  WARN  object 0x3037940 was not returned to mpool ucp_requests
[1652883652.361977] [cn605-05-r:208699:0]          mpool.c:43   UCX  WARN  object 0x3037b00 was not returned to mpool ucp_requests
[1652883652.361994] [cn605-05-r:208699:0]          mpool.c:43   UCX  WARN  object 0x3037cc0 was not returned to mpool ucp_requests
[1652883652.362011] [cn605-05-r:208699:0]          mpool.c:43   UCX  WARN  object 0x3037e80 was not returned to mpool ucp_requests
[1652883652.362028] [cn605-05-r:208699:0]          mpool.c:43   UCX  WARN  object 0x3038040 was not returned to mpool ucp_requests
[1652883652.362044] [cn605-05-r:208699:0]          mpool.c:43   UCX  WARN  object 0x3038200 was not returned to mpool ucp_requests
[1652883652.362061] [cn605-05-r:208699:0]          mpool.c:43   UCX  WARN  object 0x30383c0 was not returned to mpool ucp_requests
[1652883652.362077] [cn605-05-r:208699:0]          mpool.c:43   UCX  WARN  object 0x3038580 was not returned to mpool ucp_requests
8683:0]          mpool.c:43   UCX  WARN  object 0x360de80 was not returned to mpool ucp_requests
[1652883652.361465] [cn605-05-r:208683:0]          mpool.c:43   UCX  WARN  object 0x360e040 was not returned to mpool ucp_requests
[1652883652.361476] [cn605-05-r:208683:0]          mpool.c:43   UCX  WARN  object 0x360e200 was not returned to mpool ucp_requests
[1652883652.361481] [cn605-05-r:208683:0]          mpool.c:43   UCX  WARN  object 0x360e3c0 was not returned to mpool ucp_requests
[1652883652.361487] [cn605-05-r:208683:0]          mpool.c:43   UCX  WARN  object 0x360e580 was not returned to mpool ucp_requests
[1652883652.361493] [cn605-05-r:208683:0]          mpool.c:43   UCX  WARN  object 0x360e740 was not returned to mpool ucp_requests
[1652883652.361498] [cn605-05-r:208683:0]          mpool.c:43   UCX  WARN  object 0x360e900 was not returned to mpool ucp_requests
[1652883652.361504] [cn605-05-r:208683:0]          mpool.c:43   UCX  WARN  object 0x360eac0 was not returned to mpool ucp_requests
[1652883652.361509] [cn605-05-r:208683:0]          mpool.c:43   UCX  WARN  object 0x360ec80 was not returned to mpool ucp_requests
[1652883652.361515] [cn605-05-r:208683:0]          mpool.c:43   UCX  WARN  object 0x360ee40 was not returned to mpool ucp_requests
[1652883652.361521] [cn605-05-r:208683:0]          mpool.c:43   UCX  WARN  object 0x360f000 was not returned to mpool ucp_requests
[1652883652.361527] [cn605-05-r:208683:0]          mpool.c:43   UCX  WARN  object 0x360f1c0 was not returned to mpool ucp_requests
[1652883652.361532] [cn605-05-r:208683:0]          mpool.c:43   UCX  WARN  object 0x360f380 was not returned to mpool ucp_requests
[1652883652.361538] [cn605-05-r:208683:0]          mpool.c:43   UCX  WARN  object 0x360f540 was not returned to mpool ucp_requests
[1652883652.361555] [cn605-05-r:208683:0]          mpool.c:43   UCX  WARN  object 0x35f36c0 was not returned to mpool ucp_requests
[1652883652.361561] [cn605-05-r:208683:0]          mpool.c:43   UCX  WARN  object 0x35f3880 was not returned to mpool ucp_requests
[1652883652.361567] [cn605-05-r:208683:0]          mpool.c:43   UCX  WARN  object 0x35f3a40 was not returned to mpool ucp_requests
[1652883652.361577] [cn605-05-r:208683:0]          mpool.c:43   UCX  WARN  object 0x35f3c00 was not returned to mpool ucp_requests
[1652883652.361583] [cn605-05-r:208683:0]          mpool.c:43   UCX  WARN  object 0x35f3dc0 was not returned to mpool ucp_requests
[1652883652.361588] [cn605-05-r:208683:0]          mpool.c:43   UCX  WARN  object 0x35f3f80 was not returned to mpool ucp_requests
[1652883652.361594] [cn605-05-r:208683:0]          mpool.c:43   UCX  WARN  object 0x35f4140 was not returned to mpool ucp_requests
[1652883652.361599] [cn605-05-r:208683:0]          mpool.c:43   UCX  WARN  object 0x35f4300 was not returned to mpool ucp_requests
[1652883652.361604] [cn605-05-r:208683:0]          mpool.c:43   UCX  WARN  object 0x35f44c0 was not returned to mpool ucp_requests
[1652883652.361610] [cn605-05-r:208683:0]          mpool.c:43   UCX  WARN  object 0x35f4680 was not returned to mpool ucp_requests
[1652883652.361616] [cn605-05-r:208683:0]          mpool.c:43   UCX  WARN  object 0x35f4840 was not returned to mpool ucp_requests
[1652883652.361621] [cn605-05-r:208683:0]          mpool.c:43   UCX  WARN  object 0x35f4a00 was not returned to mpool ucp_requests
[1652883652.361627] [cn605-05-r:208683:0]          mpool.c:43   UCX  WARN  object 0x35f4bc0 was not returned to mpool ucp_requests
[1652883652.361638] [cn605-05-r:208683:0]          mpool.c:43   UCX  WARN  object 0x35f4d80 was not returned to mpool ucp_requests
[1652883652.361643] [cn605-05-r:208683:0]          mpool.c:43   UCX  WARN  object 0x35f4f40 was not returned to mpool ucp_requests
[1652883652.361661] [cn605-05-r:208683:0]          mpool.c:43   UCX  WARN  object 0x35f5100 was not returned to mpool ucp_requests
[1652883652.361666] [cn605-05-r:208683:0]          mpool.c:43   UCX  WARN  object 0x35f52c0 was not returned to mpool ucp_requests
[1652883652.361672] [cn605-05-r:208683:0]          mpool.c:43   UCX [1652883652.356579] [cn605-26-r:76119:0]          mpool.c:43   UCX  WARN  object 0x37d55c0 was not returned to mpool ucp_requests
[1652883652.356596] [cn605-26-r:76119:0]          mpool.c:43   UCX  WARN  object 0x37d5780 was not returned to mpool ucp_requests
[1652883652.356613] [cn605-26-r:76119:0]          mpool.c:43   UCX  WARN  object 0x37d5940 was not returned to mpool ucp_requests
[1652883652.356630] [cn605-26-r:76119:0]          mpool.c:43   UCX  WARN  object 0x37d5b00 was not returned to mpool ucp_requests
[1652883652.356647] [cn605-26-r:76119:0]          mpool.c:43   UCX  WARN  object 0x37d5cc0 was not returned to mpool ucp_requests
[1652883652.356533] [cn605-06-r:32343:0]          mpool.c:43   UCX  WARN  object 0x4c9a800 was not returned to mpool ucp_requests
[1652883652.356550] [cn605-06-r:32343:0]          mpool.c:43   UCX  WARN  object 0x4c9a9c0 was not returned to mpool ucp_requests
[1652883652.356567] [cn605-06-r:32343:0]          mpool.c:43   UCX  WARN  object 0x4c9ab80 was not returned to mpool ucp_requests
[1652883652.356584] [cn605-06-r:32343:0]          mpool.c:43   UCX  WARN  object 0x4c9ad40 was not returned to mpool ucp_requests
[1652883652.356600] [cn605-06-r:32343:0]          mpool.c:43   UCX  WARN  object 0x4c9af00 was not returned to mpool ucp_requests
[1652883652.356617] [cn605-06-r:32343:0]          mpool.c:43   UCX  WARN  object 0x4c9b0c0 was not returned to mpool ucp_requests
[1652883652.362102] [cn605-05-r:208699:0]          mpool.c:43   UCX  WARN  object 0x3038740 was not returned to mpool ucp_requests
[1652883652.362119] [cn605-05-r:208699:0]          mpool.c:43   UCX  WARN  object 0x3038900 was not returned to mpool ucp_requests
[1652883652.362135] [cn605-05-r:208699:0]          mpool.c:43   UCX  WARN  object 0x3038ac0 was not returned to mpool ucp_requests
[1652883652.362152] [cn605-05-r:208699:0]          mpool.c:43   UCX  WARN  object 0x3038c80 was not returned to mpool ucp_requests
[1652883652.362168] [cn605-05-r:208699:0]          mpool.c:43   UCX  WARN  object 0x3038e40 was not returned to mpool ucp_requests
[1652883652.362185] [cn605-05-r:208699:0]          mpool.c:43   UCX  WARN  object 0x3039000 was not returned to mpool ucp_requests
[1652883652.362201] [cn605-05-r:208699:0]          mpool.c:43   UCX  WARN  object 0x30391c0 was not returned to mpool ucp_requests
[1652883652.362218] [cn605-05-r:208699:0]          mpool.c:43   UCX  WARN  object 0x3039380 was not returned to mpool ucp_requests
[1652883652.362234] [cn605-05-r:208699:0]          mpool.c:43   UCX  WARN  object 0x3039540 was not returned to mpool ucp_requests
[1652883652.362251] [cn605-05-r:208699:0]          mpool.c:43   UCX  WARN  object 0x3039700 was not returned to mpool ucp_requests
[1652883652.362275] [cn605-05-r:208699:0]          mpool.c:43   UCX  WARN  object 0x30398c0 was not returned to mpool ucp_requests
[1652883652.362292] [cn605-05-r:208699:0]          mpool.c:43   UCX  WARN  object 0x3039a80 was not returned to mpool ucp_requests
[1652883652.362309] [cn605-05-r:208699:0]          mpool.c:43   UCX  WARN  object 0x3039c40 was not returned to mpool ucp_requests
[1652883652.362347] [cn605-05-r:208699:0]          mpool.c:43   UCX  WARN  object 0x3039e00 was not returned to mpool ucp_requests
[1652883652.362364] [cn605-05-r:208699:0]          mpool.c:43   UCX  WARN  object 0x3039fc0 was not returned to mpool ucp_requests
[1652883652.362380] [cn605-05-r:208699:0]          mpool.c:43   UCX  WARN  object 0x303a180 was not returned to mpool ucp_requests
[1652883652.362397] [cn605-05-r:208699:0]          mpool.c:43   UCX  WARN  object 0x303a340 was not returned to mpool ucp_requests
[1652883652.362414] [cn605-05-r:208699:0]          mpool.c:43   UCX  WARN  object 0x303a500 was not returned to mpool ucp_requests
[1652883652.362446] [cn605-05-r:208699:0]          mpool.c:43   UCX  WARN  object 0x303a6c0 was not returned to mpool ucp_requests
[1652883652.362463] [cn605-05-r:208699:0]          mpool.c:43   UCX  WARN  object 0x303a880 was not returned to mpool ucp_requests
[1652883652.362480] [cn605-05-r:208699:0]          mpool.c:43   UCX  WARN  object 0x303aa40 was not returned to mpool ucp_requests
[1652883652.362496] [cn605-05-r:208699:0]          mpool.c:43   UCX  WARN  object 0x303ac00 was not returned to mpool ucp_requests
[1652883652.362513] [cn605-05-r:208699:0]          mpool.c:43   UCX  WARN  object 0x303adc0 was not returned to mpool ucp_requests
[1652883652.362530] [cn605-05-r:208699:0]          mpool.c:43   UCX  WARN  object 0x303af80 was not returned to mpool ucp_requests
[1652883652.362546] [cn605-05-r:208699:0]          mpool.c:43   UCX  WARN  object 0x303b140 was not returned to mpool ucp_requests
[1652883652.362563] [cn605-05-r:208699:0]          mpool.c:43   UCX  WARN  object 0x303b300 was not returned to mpool ucp_requests
[1652883652.362579] [cn605-05-r:208699:0]          mpool.c:43   UCX  WARN  object 0x303b4c0 was not returned to mpool ucp_requests
 WARN  object 0x35f5480 was not returned to mpool ucp_requests
[1652883652.361677] [cn605-05-r:208683:0]          mpool.c:43   UCX  WARN  object 0x35f5640 was not returned to mpool ucp_requests
[1652883652.362173] [cn605-05-r:208683:0]          mpool.c:43   UCX  WARN  object 0x35f5800 was not returned to mpool ucp_requests
[1652883652.362202] [cn605-05-r:208683:0]          mpool.c:43   UCX  WARN  object 0x35f59c0 was not returned to mpool ucp_requests
[1652883652.362222] [cn605-05-r:208683:0]          mpool.c:43   UCX  WARN  object 0x35f5b80 was not returned to mpool ucp_requests
[1652883652.362241] [cn605-05-r:208683:0]          mpool.c:43   UCX  WARN  object 0x35f5d40 was not returned to mpool ucp_requests
[1652883652.362260] [cn605-05-r:208683:0]          mpool.c:43   UCX  WARN  object 0x35f5f00 was not returned to mpool ucp_requests
[1652883652.362279] [cn605-05-r:208683:0]          mpool.c:43   UCX  WARN  object 0x35f60c0 was not returned to mpool ucp_requests
[1652883652.362298] [cn605-05-r:208683:0]          mpool.c:43   UCX  WARN  object 0x35f6280 was not returned to mpool ucp_requests
[1652883652.362331] [cn605-05-r:208683:0]          mpool.c:43   UCX  WARN  object 0x35f6440 was not returned to mpool ucp_requests
[1652883652.362349] [cn605-05-r:208683:0]          mpool.c:43   UCX  WARN  object 0x35f6600 was not returned to mpool ucp_requests
[1652883652.362367] [cn605-05-r:208683:0]          mpool.c:43   UCX  WARN  object 0x35f67c0 was not returned to mpool ucp_requests
[1652883652.362383] [cn605-05-r:208683:0]          mpool.c:43   UCX  WARN  object 0x35f6980 was not returned to mpool ucp_requests
[1652883652.362400] [cn605-05-r:208683:0]          mpool.c:43   UCX  WARN  object 0x35f6b40 was not returned to mpool ucp_requests
[1652883652.362417] [cn605-05-r:208683:0]          mpool.c:43   UCX  WARN  object 0x35f6d00 was not returned to mpool ucp_requests
[1652883652.362433] [cn605-05-r:208683:0]          mpool.c:43   UCX  WARN  object 0x35f6ec0 was not returned to mpool ucp_requests
[1652883652.362455] [cn605-05-r:208683:0]          mpool.c:43   UCX  WARN  object 0x35f7080 was not returned to mpool ucp_requests
[1652883652.362472] [cn605-05-r:208683:0]          mpool.c:43   UCX  WARN  object 0x35f7240 was not returned to mpool ucp_requests
[1652883652.362488] [cn605-05-r:208683:0]          mpool.c:43   UCX  WARN  object 0x35f7400 was not returned to mpool ucp_requests
[1652883652.362505] [cn605-05-r:208683:0]          mpool.c:43   UCX  WARN  object 0x35f75c0 was not returned to mpool ucp_requests
[1652883652.362521] [cn605-05-r:208683:0]          mpool.c:43   UCX  WARN  object 0x35f7780 was not returned to mpool ucp_requests
[1652883652.362538] [cn605-05-r:208683:0]          mpool.c:43   UCX  WARN  object 0x35f7940 was not returned to mpool ucp_requests
[1652883652.362554] [cn605-05-r:208683:0]          mpool.c:43   UCX  WARN  object 0x35f7b00 was not returned to mpool ucp_requests
[1652883652.362571] [cn605-05-r:208683:0]          mpool.c:43   UCX  WARN  object 0x35f7cc0 was not returned to mpool ucp_requests
[1652883652.362587] [cn605-05-r:208683:0]          mpool.c:43   UCX  WARN  object 0x35f7e80 was not returned to mpool ucp_requests
[1652883652.356671] [cn605-26-r:76119:0]          mpool.c:43   UCX  WARN  object 0x37d5e80 was not returned to mpool ucp_requests
[1652883652.356692] [cn605-26-r:76119:0]          mpool.c:43   UCX  WARN  object 0x37d6040 was not returned to mpool ucp_requests
[1652883652.356709] [cn605-26-r:76119:0]          mpool.c:43   UCX  WARN  object 0x37d6200 was not returned to mpool ucp_requests
[1652883652.356733] [cn605-26-r:76119:0]          mpool.c:43   UCX  WARN  object 0x37d63c0 was not returned to mpool ucp_requests
[1652883652.356750] [cn605-26-r:76119:0]          mpool.c:43   UCX  WARN  object 0x37d6580 was not returned to mpool ucp_requests
[1652883652.356545] [cn605-06-r:32327:0]          mpool.c:43   UCX  WARN  object 0x3097b80 was not returned to mpool ucp_requests
[1652883652.356551] [cn605-06-r:32327:0]          mpool.c:43   UCX  WARN  object 0x3097d40 was not returned to mpool ucp_requests
[1652883652.356557] [cn605-06-r:32327:0]          mpool.c:43   UCX  WARN  object 0x3097f00 was not returned to mpool ucp_requests
[1652883652.356563] [cn605-06-r:32327:0]          mpool.c:43   UCX  WARN  object 0x30980c0 was not returned to mpool ucp_requests
[1652883652.356569] [cn605-06-r:32327:0]          mpool.c:43   UCX  WARN  object 0x3098280 was not returned to mpool ucp_requests
[1652883652.356574] [cn605-06-r:32327:0]          mpool.c:43   UCX  WARN  object 0x3098440 was not returned to mpool ucp_requests
[1652883652.356580] [cn605-06-r:32327:0]          mpool.c:43   UCX  WARN  object 0x3098600 was not returned to mpool ucp_requests
[1652883652.356585] [cn605-06-r:32327:0]          mpool.c:43   UCX  WARN  object 0x30987c0 was not returned to mpool ucp_requests
[1652883652.356596] [cn605-06-r:32327:0]          mpool.c:43   UCX  WARN  object 0x3098980 was not returned to mpool ucp_requests
[1652883652.356601] [cn605-06-r:32327:0]          mpool.c:43   UCX  WARN  object 0x3098b40 was not returned to mpool ucp_requests
[1652883652.356607] [cn605-06-r:32327:0]          mpool.c:43   UCX  WARN  object 0x3098d00 was not returned to mpool ucp_requests
[1652883652.356613] [cn605-06-r:32327:0]          mpool.c:43   UCX  WARN  object 0x3098ec0 was not returned to mpool ucp_requests
[1652883652.356620] [cn605-06-r:32327:0]          mpool.c:43   UCX  WARN  object 0x3099080 was not returned to mpool ucp_requests
[1652883652.356626] [cn605-06-r:32327:0]          mpool.c:43   UCX  WARN  object 0x3099240 was not returned to mpool ucp_requests
[1652883652.356632] [cn605-06-r:32327:0]          mpool.c:43   UCX  WARN  object 0x3099400 was not returned to mpool ucp_requests
[1652883652.356639] [cn605-06-r:32327:0]          mpool.c:43   UCX  WARN  object 0x30995c0 was not returned to mpool ucp_requests
[1652883652.356650] [cn605-06-r:32327:0]          mpool.c:43   UCX  WARN  object 0x3099780 was not returned to mpool ucp_requests
[1652883652.362595] [cn605-05-r:208699:0]          mpool.c:43   UCX  WARN  object 0x303b680 was not returned to mpool ucp_requests
[1652883652.362615] [cn605-05-r:208699:0]          mpool.c:43   UCX  WARN  object 0x303b840 was not returned to mpool ucp_requests
[1652883652.362631] [cn605-05-r:208699:0]          mpool.c:43   UCX  WARN  object 0x303ba00 was not returned to mpool ucp_requests
[1652883652.362648] [cn605-05-r:208699:0]          mpool.c:43   UCX  WARN  object 0x303bbc0 was not returned to mpool ucp_requests
[1652883652.362664] [cn605-05-r:208699:0]          mpool.c:43   UCX  WARN  object 0x303bd80 was not returned to mpool ucp_requests
[1652883652.362680] [cn605-05-r:208699:0]          mpool.c:43   UCX  WARN  object 0x303bf40 was not returned to mpool ucp_requests
[1652883652.362697] [cn605-05-r:208699:0]          mpool.c:43   UCX  WARN  object 0x303c100 was not returned to mpool ucp_requests
[1652883652.362713] [cn605-05-r:208699:0]          mpool.c:43   UCX  WARN  object 0x303c2c0 was not returned to mpool ucp_requests
[1652883652.362730] [cn605-05-r:208699:0]          mpool.c:43   UCX  WARN  object 0x303c480 was not returned to mpool ucp_requests
[1652883652.362746] [cn605-05-r:208699:0]          mpool.c:43   UCX  WARN  object 0x303c640 was not returned to mpool ucp_requests
[1652883652.362763] [cn605-05-r:208699:0]          mpool.c:43   UCX  WARN  object 0x303c800 was not returned to mpool ucp_requests
[1652883652.362779] [cn605-05-r:208699:0]          mpool.c:43   UCX  WARN  object 0x303c9c0 was not returned to mpool ucp_requests
[1652883652.362795] [cn605-05-r:208699:0]          mpool.c:43   UCX  WARN  object 0x303cb80 was not returned to mpool ucp_requests
[1652883652.362812] [cn605-05-r:208699:0]          mpool.c:43   UCX  WARN  object 0x303cd40 was not returned to mpool ucp_requests
[1652883652.362829] [cn605-05-r:208699:0]          mpool.c:43   UCX  WARN  object 0x303cf00 was not returned to mpool ucp_requests
[1652883652.362852] [cn605-05-r:208699:0]          mpool.c:43   UCX  WARN  object 0x3021040 was not returned to mpool ucp_requests
[1652883652.362869] [cn605-05-r:208699:0]          mpool.c:43   UCX  WARN  object 0x3021200 was not returned to mpool ucp_requests
[1652883652.362886] [cn605-05-r:208699:0]          mpool.c:43   UCX  WARN  object 0x30213c0 was not returned to mpool ucp_requests
[1652883652.362903] [cn605-05-r:208699:0]          mpool.c:43   UCX  WARN  object 0x3021580 was not returned to mpool ucp_requests
[1652883652.362919] [cn605-05-r:208699:0]          mpool.c:43   UCX  WARN  object 0x3021740 was not returned to mpool ucp_requests
[1652883652.362936] [cn605-05-r:208699:0]          mpool.c:43   UCX  WARN  object 0x3021900 was not returned to mpool ucp_requests
[1652883652.362952] [cn605-05-r:208699:0]          mpool.c:43   UCX  WARN  object 0x3021ac0 was not returned to mpool ucp_requests
[1652883652.362968] [cn605-05-r:208699:0]          mpool.c:43   UCX  WARN  object 0x3021c80 was not returned to mpool ucp_requests
[1652883652.362607] [cn605-05-r:208683:0]          mpool.c:43   UCX  WARN  object 0x35f8040 was not returned to mpool ucp_requests
[1652883652.362625] [cn605-05-r:208683:0]          mpool.c:43   UCX  WARN  object 0x35f8200 was not returned to mpool ucp_requests
[1652883652.362641] [cn605-05-r:208683:0]          mpool.c:43   UCX  WARN  object 0x35f83c0 was not returned to mpool ucp_requests
[1652883652.362658] [cn605-05-r:208683:0]          mpool.c:43   UCX  WARN  object 0x35f8580 was not returned to mpool ucp_requests
[1652883652.362674] [cn605-05-r:208683:0]          mpool.c:43   UCX  WARN  object 0x35f8740 was not returned to mpool ucp_requests
[1652883652.362691] [cn605-05-r:208683:0]          mpool.c:43   UCX  WARN  object 0x35f8900 was not returned to mpool ucp_requests
[1652883652.362707] [cn605-05-r:208683:0]          mpool.c:43   UCX  WARN  object 0x35f8ac0 was not returned to mpool ucp_requests
[1652883652.362724] [cn605-05-r:208683:0]          mpool.c:43   UCX  WARN  object 0x35f8c80 was not returned to mpool ucp_requests
[1652883652.362740] [cn605-05-r:208683:0]          mpool.c:43   UCX  WARN  object 0x35f8e40 was not returned to mpool ucp_requests
[1652883652.362756] [cn605-05-r:208683:0]          mpool.c:43   UCX  WARN  object 0x35f9000 was not returned to mpool ucp_requests
[1652883652.362776] [cn605-05-r:208683:0]          mpool.c:43   UCX  WARN  object 0x35f91c0 was not returned to mpool ucp_requests
[1652883652.362793] [cn605-05-r:208683:0]          mpool.c:43   UCX  WARN  object 0x35f9380 was not returned to mpool ucp_requests
[1652883652.362810] [cn605-05-r:208683:0]          mpool.c:43   UCX  WARN  object 0x35f9540 was not returned to mpool ucp_requests
[1652883652.362827] [cn605-05-r:208683:0]          mpool.c:43   UCX  WARN  object 0x35f9700 was not returned to mpool ucp_requests
[1652883652.362843] [cn605-05-r:208683:0]          mpool.c:43   UCX  WARN  object 0x35f98c0 was not returned to mpool ucp_requests
[1652883652.362860] [cn605-05-r:208683:0]          mpool.c:43   UCX  WARN  object 0x35f9a80 was not returned to mpool ucp_requests
[1652883652.362876] [cn605-05-r:208683:0]          mpool.c:43   UCX  WARN  object 0x35f9c40 was not returned to mpool ucp_requests
[1652883652.362892] [cn605-05-r:208683:0]          mpool.c:43   UCX  WARN  object 0x35f9e00 was not returned to mpool ucp_requests
[1652883652.362909] [cn605-05-r:208683:0]          mpool.c:43   UCX  WARN  object 0x35f9fc0 was not returned to mpool ucp_requests
[1652883652.362929] [cn605-05-r:208683:0]          mpool.c:43   UCX  WARN  object 0x35fa180 was not returned to mpool ucp_requests
[1652883652.362945] [cn605-05-r:208683:0]          mpool.c:43   UCX  WARN  object 0x35fa340 was not returned to mpool ucp_requests
[1652883652.362962] [cn605-05-r:208683:0]          mpool.c:43   UCX  WARN  object 0x35fa500 was not returned to mpool ucp_requests
[1652883652.362978] [cn605-05-r:208683:0]          mpool.c:43   UCX  WARN  object 0x35fa6c0 was not returned to mpool ucp_requests
[1652883652.362995] [cn605-05-r:208683:0]          mpool.c:43   UCX  WARN  object 0x35fa880 was not returned to mpool ucp_requests
[1652883652.356767] [cn605-26-r:76119:0]          mpool.c:43   UCX  WARN  object 0x37d6740 was not returned to mpool ucp_requests
[1652883652.356784] [cn605-26-r:76119:0]          mpool.c:43   UCX  WARN  object 0x37d6900 was not returned to mpool ucp_requests
[1652883652.356801] [cn605-26-r:76119:0]          mpool.c:43   UCX  WARN  object 0x37d6ac0 was not returned to mpool ucp_requests
[1652883652.356827] [cn605-26-r:76119:0]          mpool.c:43   UCX  WARN  object 0x37d6c80 was not returned to mpool ucp_requests
[1652883652.356844] [cn605-26-r:76119:0]          mpool.c:43   UCX  WARN  object 0x37d6e40 was not returned to mpool ucp_requests
[1652883652.356640] [cn605-06-r:32343:0]          mpool.c:43   UCX  WARN  object 0x4c9b280 was not returned to mpool ucp_requests
[1652883652.356657] [cn605-06-r:32343:0]          mpool.c:43   UCX  WARN  object 0x4c9b440 was not returned to mpool ucp_requests
[1652883652.356674] [cn605-06-r:32343:0]          mpool.c:43   UCX  WARN  object 0x4c9b600 was not returned to mpool ucp_requests
[1652883652.356690] [cn605-06-r:32343:0]          mpool.c:43   UCX  WARN  object 0x4c9b7c0 was not returned to mpool ucp_requests
[1652883652.356707] [cn605-06-r:32343:0]          mpool.c:43   UCX  WARN  object 0x4c9b980 was not returned to mpool ucp_requests
[1652883652.356728] [cn605-06-r:32343:0]          mpool.c:43   UCX  WARN  object 0x4c9bb40 was not returned to mpool ucp_requests
[1652883652.356744] [cn605-06-r:32343:0]          mpool.c:43   UCX  WARN  object 0x4c9bd00 was not returned to mpool ucp_requests
[1652883652.362994] [cn605-05-r:208699:0]          mpool.c:43   UCX  WARN  object 0x3021e40 was not returned to mpool ucp_requests
[1652883652.363011] [cn605-05-r:208699:0]          mpool.c:43   UCX  WARN  object 0x3022000 was not returned to mpool ucp_requests
[1652883652.363028] [cn605-05-r:208699:0]          mpool.c:43   UCX  WARN  object 0x30221c0 was not returned to mpool ucp_requests
[1652883652.363044] [cn605-05-r:208699:0]          mpool.c:43   UCX  WARN  object 0x3022380 was not returned to mpool ucp_requests
[1652883652.363061] [cn605-05-r:208699:0]          mpool.c:43   UCX  WARN  object 0x3022540 was not returned to mpool ucp_requests
[1652883652.363077] [cn605-05-r:208699:0]          mpool.c:43   UCX  WARN  object 0x3022700 was not returned to mpool ucp_requests
[1652883652.363093] [cn605-05-r:208699:0]          mpool.c:43   UCX  WARN  object 0x30228c0 was not returned to mpool ucp_requests
[1652883652.363110] [cn605-05-r:208699:0]          mpool.c:43   UCX  WARN  object 0x3022a80 was not returned to mpool ucp_requests
[1652883652.363127] [cn605-05-r:208699:0]          mpool.c:43   UCX  WARN  object 0x3022c40 was not returned to mpool ucp_requests
[1652883652.363143] [cn605-05-r:208699:0]          mpool.c:43   UCX  WARN  object 0x3022e00 was not returned to mpool ucp_requests
[1652883652.363160] [cn605-05-r:208699:0]          mpool.c:43   UCX  WARN  object 0x3022fc0 was not returned to mpool ucp_requests
[1652883652.363176] [cn605-05-r:208699:0]          mpool.c:43   UCX  WARN  object 0x3023180 was not returned to mpool ucp_requests
[1652883652.363193] [cn605-05-r:208699:0]          mpool.c:43   UCX  WARN  object 0x3023340 was not returned to mpool ucp_requests
[1652883652.363217] [cn605-05-r:208699:0]          mpool.c:43   UCX  WARN  object 0x3023500 was not returned to mpool ucp_requests
[1652883652.363233] [cn605-05-r:208699:0]          mpool.c:43   UCX  WARN  object 0x30236c0 was not returned to mpool ucp_requests
[1652883652.363250] [cn605-05-r:208699:0]          mpool.c:43   UCX  WARN  object 0x3023880 was not returned to mpool ucp_requests
[1652883652.363266] [cn605-05-r:208699:0]          mpool.c:43   UCX  WARN  object 0x3023a40 was not returned to mpool ucp_requests
[1652883652.363283] [cn605-05-r:208699:0]          mpool.c:43   UCX  WARN  object 0x3023c00 was not returned to mpool ucp_requests
[1652883652.363299] [cn605-05-r:208699:0]          mpool.c:43   UCX  WARN  object 0x3023dc0 was not returned to mpool ucp_requests
[1652883652.363325] [cn605-05-r:208699:0]          mpool.c:43   UCX  WARN  object 0x3023f80 was not returned to mpool ucp_requests
[1652883652.363342] [cn605-05-r:208699:0]          mpool.c:43   UCX  WARN  object 0x3024140 was not returned to mpool ucp_requests
[1652883652.363358] [cn605-05-r:208699:0]          mpool.c:43   UCX  WARN  object 0x3024300 was not returned to mpool ucp_requests
[1652883652.363375] [cn605-05-r:208699:0]          mpool.c:43   UCX  WARN  object 0x30244c0 was not returned to mpool ucp_requests
[1652883652.363391] [cn605-05-r:208699:0]          mpool.c:43   UCX  WARN  object 0x3024680 was not returned to mpool ucp_requests
[1652883652.363408] [cn605-05-r:208699:0]          mpool.c:43   UCX  WARN  object 0x3024840 was not returned to mpool ucp_requests
[1652883652.363424] [cn605-05-r:208699:0]          mpool.c:43   UCX  WARN  object 0x3024a00 was not returned to mpool ucp_requests
[1652883652.363441] [cn605-05-r:208699:0]          mpool.c:43   UCX  WARN  object 0x3024bc0 was not returned to mpool ucp_requests
[1652883652.363463] [cn605-05-r:208699:0]          mpool.c:43   UCX  WARN  object 0x3024d80 was not returned to mpool ucp_requests
[1652883652.363479] [cn605-05-r:208699:0]          mpool.c:43   UCX  WARN  object 0x3024f40 was not returned to mpool ucp_requests
[1652883652.363496] [cn605-05-r:208699:0]          mpool.c:43   UCX  WARN  object 0x3025100 was not returned to mpool ucp_requests
[1652883652.363512] [cn605-05-r:208699:0]          mpool.c:43   UCX  WARN  object 0x30252c0 was not returned to mpool ucp_requests
[1652883652.363534] [cn605-05-r:20[1652883652.363018] [cn605-05-r:208683:0]          mpool.c:43   UCX  WARN  object 0x35faa40 was not returned to mpool ucp_requests
[1652883652.363035] [cn605-05-r:208683:0]          mpool.c:43   UCX  WARN  object 0x35fac00 was not returned to mpool ucp_requests
[1652883652.363051] [cn605-05-r:208683:0]          mpool.c:43   UCX  WARN  object 0x35fadc0 was not returned to mpool ucp_requests
[1652883652.363067] [cn605-05-r:208683:0]          mpool.c:43   UCX  WARN  object 0x35faf80 was not returned to mpool ucp_requests
[1652883652.363088] [cn605-05-r:208683:0]          mpool.c:43   UCX  WARN  object 0x35fb140 was not returned to mpool ucp_requests
[1652883652.363105] [cn605-05-r:208683:0]          mpool.c:43   UCX  WARN  object 0x35fb300 was not returned to mpool ucp_requests
[1652883652.363121] [cn605-05-r:208683:0]          mpool.c:43   UCX  WARN  object 0x35fb4c0 was not returned to mpool ucp_requests
[1652883652.363137] [cn605-05-r:208683:0]          mpool.c:43   UCX  WARN  object 0x35fb680 was not returned to mpool ucp_requests
[1652883652.363154] [cn605-05-r:208683:0]          mpool.c:43   UCX  WARN  object 0x35fb840 was not returned to mpool ucp_requests
[1652883652.363170] [cn605-05-r:208683:0]          mpool.c:43   UCX  WARN  object 0x35fba00 was not returned to mpool ucp_requests
[1652883652.363187] [cn605-05-r:208683:0]          mpool.c:43   UCX  WARN  object 0x35fbbc0 was not returned to mpool ucp_requests
[1652883652.363203] [cn605-05-r:208683:0]          mpool.c:43   UCX  WARN  object 0x35fbd80 was not returned to mpool ucp_requests
[1652883652.363219] [cn605-05-r:208683:0]          mpool.c:43   UCX  WARN  object 0x35fbf40 was not returned to mpool ucp_requests
[1652883652.363239] [cn605-05-r:208683:0]          mpool.c:43   UCX  WARN  object 0x35fc100 was not returned to mpool ucp_requests
[1652883652.363256] [cn605-05-r:208683:0]          mpool.c:43   UCX  WARN  object 0x35fc2c0 was not returned to mpool ucp_requests
[1652883652.363272] [cn605-05-r:208683:0]          mpool.c:43   UCX  WARN  object 0x35fc480 was not returned to mpool ucp_requests
[1652883652.363289] [cn605-05-r:208683:0]          mpool.c:43   UCX  WARN  object 0x35fc640 was not returned to mpool ucp_requests
[1652883652.363305] [cn605-05-r:208683:0]          mpool.c:43   UCX  WARN  object 0x35fc800 was not returned to mpool ucp_requests
[1652883652.363336] [cn605-05-r:208683:0]          mpool.c:43   UCX  WARN  object 0x35fc9c0 was not returned to mpool ucp_requests
[1652883652.363353] [cn605-05-r:208683:0]          mpool.c:43   UCX  WARN  object 0x35fcb80 was not returned to mpool ucp_requests
[1652883652.363370] [cn605-05-r:208683:0]          mpool.c:43   UCX  WARN  object 0x35fcd40 was not returned to mpool ucp_requests
[1652883652.363387] [cn605-05-r:208683:0]          mpool.c:43   UCX  WARN  object 0x35fcf00 was not returned to mpool ucp_requests
[1652883652.363407] [cn605-05-r:208683:0]          mpool.c:43   UCX  WARN  object 0x35fd0c0 was not returned to mpool ucp_requests
[1652883652.363423] [cn605-05-r:208683:0]          mpool.c:43   UCX  WARN  object 0x35fd280 was not returned to mpool ucp_requests
[1652883652.363440] [cn605-05-r:208683:0]          mpool.c:43   UCX  WARN  object 0x35fd440 was not returned to mpool ucp_requests
[1652883652.363457] [cn605-05-r:208683:0]          mpool.c:43   UCX  WARN  object 0x35fd600 was not returned to mpool ucp_requests
[1652883652.363473] [cn605-05-r:208683:0]          mpool.c:43   UCX  WARN  object 0x35fd7c0 was not returned to mpool ucp_requests
[1652883652.363490] [cn605-05-r:208683:0]          mpool.c:43   UCX  WARN  object 0x35fd980 was not returned to mpool ucp_requests
[1652883652.363506] [cn605-05-r:208683:0]          mpool.c:43   UCX  WARN  object 0x35fdb40 was not returned to mpool ucp_requests
[1652883652.363523] [cn605-05-r:208683:0]          mpool.c:43   UCX  WARN  object 0x35fdd00 was not returned to mpool ucp_requests
[1652883652.363539] [cn605-05-r:208683:0]          mpool.c:43   UCX  WARN  object 0x35fdec0 was not returned to mpool ucp_requests
[1652883652.363560] [cn605-05-r:20[1652883652.356869] [cn605-26-r:76119:0]          mpool.c:43   UCX  WARN  object 0x37d7000 was not returned to mpool ucp_requests
[1652883652.356890] [cn605-26-r:76119:0]          mpool.c:43   UCX  WARN  object 0x37d71c0 was not returned to mpool ucp_requests
[1652883652.356907] [cn605-26-r:76119:0]          mpool.c:43   UCX  WARN  object 0x37d7380 was not returned to mpool ucp_requests
[1652883652.356933] [cn605-26-r:76119:0]          mpool.c:43   UCX  WARN  object 0x37d7540 was not returned to mpool ucp_requests
[1652883652.356950] [cn605-26-r:76119:0]          mpool.c:43   UCX  WARN  object 0x37d7700 was not returned to mpool ucp_requests
[1652883652.356660] [cn605-06-r:32327:0]          mpool.c:43   UCX  WARN  object 0x3099940 was not returned to mpool ucp_requests
[1652883652.356666] [cn605-06-r:32327:0]          mpool.c:43   UCX  WARN  object 0x3099b00 was not returned to mpool ucp_requests
[1652883652.356671] [cn605-06-r:32327:0]          mpool.c:43   UCX  WARN  object 0x3099cc0 was not returned to mpool ucp_requests
[1652883652.356677] [cn605-06-r:32327:0]          mpool.c:43   UCX  WARN  object 0x3099e80 was not returned to mpool ucp_requests
[1652883652.356684] [cn605-06-r:32327:0]          mpool.c:43   UCX  WARN  object 0x309a040 was not returned to mpool ucp_requests
[1652883652.356689] [cn605-06-r:32327:0]          mpool.c:43   UCX  WARN  object 0x309a200 was not returned to mpool ucp_requests
[1652883652.356695] [cn605-06-r:32327:0]          mpool.c:43   UCX  WARN  object 0x309a3c0 was not returned to mpool ucp_requests
[1652883652.356700] [cn605-06-r:32327:0]          mpool.c:43   UCX  WARN  object 0x309a580 was not returned to mpool ucp_requests
[1652883652.356706] [cn605-06-r:32327:0]          mpool.c:43   UCX  WARN  object 0x309a740 was not returned to mpool ucp_requests
[1652883652.356711] [cn605-06-r:32327:0]          mpool.c:43   UCX  WARN  object 0x309a900 was not returned to mpool ucp_requests
[1652883652.356717] [cn605-06-r:32327:0]          mpool.c:43   UCX  WARN  object 0x309aac0 was not returned to mpool ucp_requests
[1652883652.356722] [cn605-06-r:32327:0]          mpool.c:43   UCX  WARN  object 0x309ac80 was not returned to mpool ucp_requests
[1652883652.356728] [cn605-06-r:32327:0]          mpool.c:43   UCX  WARN  object 0x309ae40 was not returned to mpool ucp_requests
[1652883652.356740] [cn605-06-r:32327:0]          mpool.c:43   UCX  WARN  object 0x309b000 was not returned to mpool ucp_requests
[1652883652.356747] [cn605-06-r:32327:0]          mpool.c:43   UCX  WARN  object 0x309b1c0 was not returned to mpool ucp_requests
[1652883652.356752] [cn605-06-r:32327:0]          mpool.c:43   UCX  WARN  object 0x309b380 was not returned to mpool ucp_requests
[1652883652.356758] [cn605-06-r:32327:0]          mpool.c:43   UCX  WARN  object 0x309b540 was not returned to mpool ucp_requests
[1652883652.356763] [cn605-06-r:32327:0]          mpool.c:43   UCX  WARN  object 0x309b700 was not returned to mpool ucp_requests
[1652883652.356769] [cn605-06-r:32327:0]          mpool.c:43   UCX  WARN  object 0x309b8c0 was not returned to mpool ucp_requests
[1652883652.356774] [cn605-06-r:32327:0]          mpool.c:43   UCX  WARN  object 0x309ba80 was not returned to mpool ucp_requests
8699:0]          mpool.c:43   UCX  WARN  object 0x3025480 was not returned to mpool ucp_requests
[1652883652.363552] [cn605-05-r:208699:0]          mpool.c:43   UCX  WARN  object 0x3025640 was not returned to mpool ucp_requests
[1652883652.363568] [cn605-05-r:208699:0]          mpool.c:43   UCX  WARN  object 0x3025800 was not returned to mpool ucp_requests
[1652883652.363584] [cn605-05-r:208699:0]          mpool.c:43   UCX  WARN  object 0x30259c0 was not returned to mpool ucp_requests
[1652883652.363601] [cn605-05-r:208699:0]          mpool.c:43   UCX  WARN  object 0x3025b80 was not returned to mpool ucp_requests
[1652883652.363617] [cn605-05-r:208699:0]          mpool.c:43   UCX  WARN  object 0x3025d40 was not returned to mpool ucp_requests
[1652883652.363627] [cn605-05-r:208699:0]          mpool.c:43   UCX  WARN  object 0x3025f00 was not returned to mpool ucp_requests
[1652883652.363645] [cn605-05-r:208699:0]          mpool.c:43   UCX  WARN  object 0x30260c0 was not returned to mpool ucp_requests
[1652883652.363661] [cn605-05-r:208699:0]          mpool.c:43   UCX  WARN  object 0x3026280 was not returned to mpool ucp_requests
[1652883652.363678] [cn605-05-r:208699:0]          mpool.c:43   UCX  WARN  object 0x3026440 was not returned to mpool ucp_requests
[1652883652.363695] [cn605-05-r:208699:0]          mpool.c:43   UCX  WARN  object 0x3026600 was not returned to mpool ucp_requests
[1652883652.363711] [cn605-05-r:208699:0]          mpool.c:43   UCX  WARN  object 0x30267c0 was not returned to mpool ucp_requests
[1652883652.363728] [cn605-05-r:208699:0]          mpool.c:43   UCX  WARN  object 0x3026980 was not returned to mpool ucp_requests
[1652883652.363744] [cn605-05-r:208699:0]          mpool.c:43   UCX  WARN  object 0x3026b40 was not returned to mpool ucp_requests
[1652883652.363761] [cn605-05-r:208699:0]          mpool.c:43   UCX  WARN  object 0x3026d00 was not returned to mpool ucp_requests
[1652883652.363778] [cn605-05-r:208699:0]          mpool.c:43   UCX  WARN  object 0x3026ec0 was not returned to mpool ucp_requests
[1652883652.363794] [cn605-05-r:208699:0]          mpool.c:43   UCX  WARN  object 0x3027080 was not returned to mpool ucp_requests
[1652883652.363816] [cn605-05-r:208699:0]          mpool.c:43   UCX  WARN  object 0x3027240 was not returned to mpool ucp_requests
[1652883652.363833] [cn605-05-r:208699:0]          mpool.c:43   UCX  WARN  object 0x3027400 was not returned to mpool ucp_requests
[1652883652.363849] [cn605-05-r:208699:0]          mpool.c:43   UCX  WARN  object 0x30275c0 was not returned to mpool ucp_requests
[1652883652.363866] [cn605-05-r:208699:0]          mpool.c:43   UCX  WARN  object 0x3027780 was not returned to mpool ucp_requests
[1652883652.363883] [cn605-05-r:208699:0]          mpool.c:43   UCX  WARN  object 0x3027940 was not returned to mpool ucp_requests
[1652883652.363899] [cn605-05-r:208699:0]          mpool.c:43   UCX  WARN  object 0x3027b00 was not returned to mpool ucp_requests
[1652883652.363916] [cn605-05-r:208699:0]          mpool.c:43   UCX  WARN  object 0x3027cc0 was not returned to mpool ucp_requests
[1652883652.363932] [cn605-05-r:208699:0]          mpool.c:43   UCX  WARN  object 0x3027e80 was not returned to mpool ucp_requests
8683:0]          mpool.c:43   UCX  WARN  object 0x35fe080 was not returned to mpool ucp_requests
[1652883652.363577] [cn605-05-r:208683:0]          mpool.c:43   UCX  WARN  object 0x35fe240 was not returned to mpool ucp_requests
[1652883652.363594] [cn605-05-r:208683:0]          mpool.c:43   UCX  WARN  object 0x35fe400 was not returned to mpool ucp_requests
[1652883652.363610] [cn605-05-r:208683:0]          mpool.c:43   UCX  WARN  object 0x35fe5c0 was not returned to mpool ucp_requests
[1652883652.363626] [cn605-05-r:208683:0]          mpool.c:43   UCX  WARN  object 0x35fe780 was not returned to mpool ucp_requests
[1652883652.363642] [cn605-05-r:208683:0]          mpool.c:43   UCX  WARN  object 0x35fe940 was not returned to mpool ucp_requests
[1652883652.363653] [cn605-05-r:208683:0]          mpool.c:43   UCX  WARN  object 0x35feb00 was not returned to mpool ucp_requests
[1652883652.363671] [cn605-05-r:208683:0]          mpool.c:43   UCX  WARN  object 0x35fecc0 was not returned to mpool ucp_requests
[1652883652.363687] [cn605-05-r:208683:0]          mpool.c:43   UCX  WARN  object 0x35fee80 was not returned to mpool ucp_requests
[1652883652.363707] [cn605-05-r:208683:0]          mpool.c:43   UCX  WARN  object 0x35ff040 was not returned to mpool ucp_requests
[1652883652.363724] [cn605-05-r:208683:0]          mpool.c:43   UCX  WARN  object 0x35ff200 was not returned to mpool ucp_requests
[1652883652.363740] [cn605-05-r:208683:0]          mpool.c:43   UCX  WARN  object 0x35ff3c0 was not returned to mpool ucp_requests
[1652883652.363757] [cn605-05-r:208683:0]          mpool.c:43   UCX  WARN  object 0x35ff580 was not returned to mpool ucp_requests
[1652883652.363773] [cn605-05-r:208683:0]          mpool.c:43   UCX  WARN  object 0x35ff740 was not returned to mpool ucp_requests
[1652883652.363790] [cn605-05-r:208683:0]          mpool.c:43   UCX  WARN  object 0x35ff900 was not returned to mpool ucp_requests
[1652883652.363806] [cn605-05-r:208683:0]          mpool.c:43   UCX  WARN  object 0x35ffac0 was not returned to mpool ucp_requests
[1652883652.363823] [cn605-05-r:208683:0]          mpool.c:43   UCX  WARN  object 0x35ffc80 was not returned to mpool ucp_requests
[1652883652.363839] [cn605-05-r:208683:0]          mpool.c:43   UCX  WARN  object 0x35ffe40 was not returned to mpool ucp_requests
[1652883652.363855] [cn605-05-r:208683:0]          mpool.c:43   UCX  WARN  object 0x3600000 was not returned to mpool ucp_requests
[1652883652.363876] [cn605-05-r:208683:0]          mpool.c:43   UCX  WARN  object 0x36001c0 was not returned to mpool ucp_requests
[...]
[1652883652.367258] [cn605-26-r:76136:0]          mpool.c:43   UCX  WARN  object 0x2361b00 was not returned to mpool ucp_requests
[1652883652.367270] [cn605-26-r:76136:0]          mpool.c:43   UCX  WARN  object 0x2361cc0 was not returned to mpool ucp_requests
[1652883652.367646] [cn605-06-r:32343:0]          mpool.c:43   UCX  WARN  object 0x41c2240 was not returned to mpool ucp_requests
[1652883652.367657] [cn605-06-r:32343:0]          mpool.c:43   UCX  WARN  object 0x41c2400 was not returned to mpool ucp_requests
[1652883652.367668] [cn605-06-r:32343:0]          mpool.c:43   UCX  WARN  object 0x41c25c0 was not returned to mpool ucp_requests
[1652883652.367683] [cn605-06-r:32343:0]          mpool.c:43   UCX  WARN  object 0x41c2780 was not returned to mpool ucp_requests
[1652883652.367694] [cn605-06-r:32343:0]          mpool.c:43   UCX  WARN  object 0x41c2940 was not returned to mpool ucp_requests
[1652883652.367216] [cn605-26-r:76119:0]          mpool.c:43   UCX  WARN  object 0x2d89a40 was not returned to mpool ucp_requests
[1652883652.367228] [cn605-26-r:76119:0]          mpool.c:43   UCX  WARN  object 0x2d89c00 was not returned to mpool ucp_requests
[1652883652.367240] [cn605-26-r:76119:0]          mpool.c:43   UCX  WARN  object 0x2d89dc0 was not returned to mpool ucp_requests
[1652883652.367252] [cn605-26-r:76119:0]          mpool.c:43   UCX  WARN  object 0x2d89f80 was not returned to mpool ucp_requests
[1652883652.367267] [cn605-26-r:76119:0]          mpool.c:43   UCX  WARN  object 0x2d8a140 was not returned to mpool ucp_requests
[1652883652.367279] [cn605-26-r:76119:0]          mpool.c:43   UCX  WARN  object 0x2d8a300 was not returned to mpool ucp_requests
[1652883652.367710] [cn605-06-r:32343:0]          mpool.c:43   UCX  WARN  object 0x41c2b00 was not returned to mpool ucp_requests
[1652883652.367721] [cn605-06-r:32343:0]          mpool.c:43   UCX  WARN  object 0x41c2cc0 was not returned to mpool ucp_requests
[1652883652.367732] [cn605-06-r:32343:0]          mpool.c:43   UCX  WARN  object 0x41c2e80 was not returned to mpool ucp_requests
[1652883652.367749] [cn605-06-r:32343:0]          mpool.c:43   UCX  WARN  object 0x41c3040 was not returned to mpool ucp_requests
[1652883652.367281] [cn605-26-r:76136:0]          mpool.c:43   UCX  WARN  object 0x2361e80 was not returned to mpool ucp_requests
[1652883652.367296] [cn605-26-r:76136:0]          mpool.c:43   UCX  WARN  object 0x2362040 was not returned to mpool ucp_requests
[1652883652.367307] [cn605-26-r:76136:0]          mpool.c:43   UCX  WARN  object 0x2362200 was not returned to mpool ucp_requests
[1652883652.367319] [cn605-26-r:76136:0]          mpool.c:43   UCX  WARN  object 0x23623c0 was not returned to mpool ucp_requests
[1652883652.367330] [cn605-26-r:76136:0]          mpool.c:43   UCX  WARN  object 0x2362580 was not returned to mpool ucp_requests
[1652883652.367342] [cn605-26-r:76136:0]          mpool.c:43   UCX  WARN  object 0x2362740 was not returned to mpool ucp_requests
[1652883652.367353] [cn605-26-r:76136:0]          mpool.c:43   UCX  WARN  object 0x2362900 was not returned to mpool ucp_requests
[1652883652.367760] [cn605-06-r:32343:0]          mpool.c:43   UCX  WARN  object 0x41c3200 was not returned to mpool ucp_requests
[1652883652.367772] [cn605-06-r:32343:0]          mpool.c:43   UCX  WARN  object 0x41c33c0 was not returned to mpool ucp_requests
[1652883652.367783] [cn605-06-r:32343:0]          mpool.c:43   UCX  WARN  object 0x41c3580 was not returned to mpool ucp_requests
[1652883652.367794] [cn605-06-r:32343:0]          mpool.c:43   UCX  WARN  object 0x41c3740 was not returned to mpool ucp_requests
[1652883652.367291] [cn605-26-r:76119:0]          mpool.c:43   UCX  WARN  object 0x2d8a4c0 was not returned to mpool ucp_requests
[1652883652.367303] [cn605-26-r:76119:0]          mpool.c:43   UCX  WARN  object 0x2d8a680 was not returned to mpool ucp_requests
[1652883652.367315] [cn605-26-r:76119:0]          mpool.c:43   UCX  WARN  object 0x2d8a840 was not returned to mpool ucp_requests
[1652883652.367327] [cn605-26-r:76119:0]          mpool.c:43   UCX  WARN  object 0x2d8aa00 was not returned to mpool ucp_requests
[1652883652.367345] [cn605-26-r:76119:0]          mpool.c:43   UCX  WARN  object 0x2d8abc0 was not returned to mpool ucp_requests
[1652883652.367357] [cn605-26-r:76119:0]          mpool.c:43   UCX  WARN  object 0x2d8ad80 was not returned to mpool ucp_requests
[1652883652.367805] [cn605-06-r:32343:0]          mpool.c:43   UCX  WARN  object 0x41c3900 was not returned to mpool ucp_requests
[1652883652.367817] [cn605-06-r:32343:0]          mpool.c:43   UCX  WARN  object 0x41c3ac0 was not returned to mpool ucp_requests
[1652883652.367828] [cn605-06-r:32343:0]          mpool.c:43   UCX  WARN  object 0x41c3c80 was not returned to mpool ucp_requests
[1652883652.367843] [cn605-06-r:32343:0]          mpool.c:43   UCX  WARN  object 0x41c3e40 was not returned to mpool ucp_requests
[1652883652.367854] [cn605-06-r:32343:0]          mpool.c:43   UCX  WARN  object 0x41c4000 was not returned to mpool ucp_requests
[1652883652.367364] [cn605-26-r:76136:0]          mpool.c:43   UCX  WARN  object 0x2362ac0 was not returned to mpool ucp_requests
[1652883652.367376] [cn605-26-r:76136:0]          mpool.c:43   UCX  WARN  object 0x2362c80 was not returned to mpool ucp_requests
[1652883652.367388] [cn605-26-r:76136:0]          mpool.c:43   UCX  WARN  object 0x2362e40 was not returned to mpool ucp_requests
[1652883652.367399] [cn605-26-r:76136:0]          mpool.c:43   UCX  WARN  object 0x2363000 was not returned to mpool ucp_requests
[1652883652.367413] [cn605-26-r:76136:0]          mpool.c:43   UCX  WARN  object 0x23631c0 was not returned to mpool ucp_requests
[1652883652.367428] [cn605-26-r:76136:0]          mpool.c:43   UCX  WARN  object 0x2363380 was not returned to mpool ucp_requests
[1652883652.367440] [cn605-26-r:76136:0]          mpool.c:43   UCX  WARN  object 0x2363540 was not returned to mpool ucp_requests
[1652883652.367871] [cn605-06-r:32343:0]          mpool.c:43   UCX  WARN  object 0x41c41c0 was not returned to mpool ucp_requests
[1652883652.367883] [cn605-06-r:32343:0]          mpool.c:43   UCX  WARN  object 0x41c4380 was not returned to mpool ucp_requests
[1652883652.367894] [cn605-06-r:32343:0]          mpool.c:43   UCX  WARN  object 0x41c4540 was not returned to mpool ucp_requests
[1652883652.367905] [cn605-06-r:32343:0]          mpool.c:43   UCX  WARN  object 0x41c4700 was not returned to mpool ucp_requests
[1652883652.367369] [cn605-26-r:76119:0]          mpool.c:43   UCX  WARN  object 0x2d8af40 was not returned to mpool ucp_requests
[1652883652.367385] [cn605-26-r:76119:0]          mpool.c:43   UCX  WARN  object 0x2d8b100 was not returned to mpool ucp_requests
[1652883652.367397] [cn605-26-r:76119:0]          mpool.c:43   UCX  WARN  object 0x2d8b2c0 was not returned to mpool ucp_requests
[1652883652.367409] [cn605-26-r:76119:0]          mpool.c:43   UCX  WARN  object 0x2d8b480 was not returned to mpool ucp_requests
[1652883652.367421] [cn605-26-r:76119:0]          mpool.c:43   UCX  WARN  object 0x2d8b640 was not returned to mpool ucp_requests
[1652883652.367433] [cn605-26-r:76119:0]          mpool.c:43   UCX  WARN  object 0x2d8b800 was not returned to mpool ucp_requests
[1652883652.367445] [cn605-26-r:76119:0]          mpool.c:43   UCX  WARN  object 0x2d8b9c0 was not returned to mpool ucp_requests
[1652883652.367920] [cn605-06-r:32343:0]          mpool.c:43   UCX  WARN  object 0x41c48c0 was not returned to mpool ucp_requests
[1652883652.367932] [cn605-06-r:32343:0]          mpool.c:43   UCX  WARN  object 0x41c4a80 was not returned to mpool ucp_requests
[1652883652.367943] [cn605-06-r:32343:0]          mpool.c:43   UCX  WARN  object 0x41c4c40 was not returned to mpool ucp_requests
[1652883652.367957] [cn605-06-r:32343:0]          mpool.c:43   UCX  WARN  object 0x41c4e00 was not returned to mpool ucp_requests
[1652883652.367968] [cn605-06-r:32343:0]          mpool.c:43   UCX  WARN  object 0x41c4fc0 was not returned to mpool ucp_requests
[1652883652.367451] [cn605-26-r:76136:0]          mpool.c:43   UCX  WARN  object 0x2363700 was not returned to mpool ucp_requests
[1652883652.367463] [cn605-26-r:76136:0]          mpool.c:43   UCX  WARN  object 0x23638c0 was not returned to mpool ucp_requests
[1652883652.367474] [cn605-26-r:76136:0]          mpool.c:43   UCX  WARN  object 0x2363a80 was not returned to mpool ucp_requests
[1652883652.367486] [cn605-26-r:76136:0]          mpool.c:43   UCX  WARN  object 0x2363c40 was not returned to mpool ucp_requests
[1652883652.367497] [cn605-26-r:76136:0]          mpool.c:43   UCX  WARN  object 0x2363e00 was not returned to mpool ucp_requests
[1652883652.367513] [cn605-26-r:76136:0]          mpool.c:43   UCX  WARN  object 0x2363fc0 was not returned to mpool ucp_requests
[1652883652.367527] [cn605-26-r:76136:0]          mpool.c:43   UCX  WARN  object 0x2364180 was not returned to mpool ucp_requests
[1652883652.367985] [cn605-06-r:32343:0]          mpool.c:43   UCX  WARN  object 0x41c5180 was not returned to mpool ucp_requests
[1652883652.367996] [cn605-06-r:32343:0]          mpool.c:43   UCX  WARN  object 0x41c5340 was not returned to mpool ucp_requests
[1652883652.368007] [cn605-06-r:32343:0]          mpool.c:43   UCX  WARN  object 0x41c5500 was not returned to mpool ucp_requests
[1652883652.368019] [cn605-06-r:32343:0]          mpool.c:43   UCX  WARN  object 0x41c56c0 was not returned to mpool ucp_requests
[1652883652.367457] [cn605-26-r:76119:0]          mpool.c:43   UCX  WARN  object 0x2d8bb80 was not returned to mpool ucp_requests
[1652883652.367469] [cn605-26-r:76119:0]          mpool.c:43   UCX  WARN  object 0x2d8bd40 was not returned to mpool ucp_requests
[1652883652.367481] [cn605-26-r:76119:0]          mpool.c:43   UCX  WARN  object 0x2d8bf00 was not returned to mpool ucp_requests
[1652883652.367493] [cn605-26-r:76119:0]          mpool.c:43   UCX  WARN  object 0x2d8c0c0 was not returned to mpool ucp_requests
[1652883652.367505] [cn605-26-r:76119:0]          mpool.c:43   UCX  WARN  object 0x2d8c280 was not returned to mpool ucp_requests
[1652883652.367517] [cn605-26-r:76119:0]          mpool.c:43   UCX  WARN  object 0x2d8c440 was not returned to mpool ucp_requests
[1652883652.368036] [cn605-06-r:32343:0]          mpool.c:43   UCX  WARN  object 0x41c5880 was not returned to mpool ucp_requests
[1652883652.368050] [cn605-06-r:32343:0]          mpool.c:43   UCX  WARN  object 0x41c5a40 was not returned to mpool ucp_requests
[1652883652.368061] [cn605-06-r:32343:0]          mpool.c:43   UCX  WARN  object 0x41c5c00 was not returned to mpool ucp_requests
[1652883652.368072] [cn605-06-r:32343:0]          mpool.c:43   UCX  WARN  object 0x41c5dc0 was not returned to mpool ucp_requests
[1652883652.367545] [cn605-26-r:76136:0]          mpool.c:43   UCX  WARN  object 0x2364340 was not returned to mpool ucp_requests
[1652883652.367557] [cn605-26-r:76136:0]          mpool.c:43   UCX  WARN  object 0x2364500 was not returned to mpool ucp_requests
[1652883652.367568] [cn605-26-r:76136:0]          mpool.c:43   UCX  WARN  object 0x23646c0 was not returned to mpool ucp_requests
[1652883652.367580] [cn605-26-r:76136:0]          mpool.c:43   UCX  WARN  object 0x2364880 was not returned to mpool ucp_requests
[1652883652.367591] [cn605-26-r:76136:0]          mpool.c:43   UCX  WARN  object 0x2364a40 was not returned to mpool ucp_requests
[1652883652.367606] [cn605-26-r:76136:0]          mpool.c:43   UCX  WARN  object 0x2364c00 was not returned to mpool ucp_requests
[1652883652.367618] [cn605-26-r:76136:0]          mpool.c:43   UCX  WARN  object 0x2364dc0 was not returned to mpool ucp_requests
[1652883652.368090] [cn605-06-r:32343:0]          mpool.c:43   UCX  WARN  object 0x41c5f80 was not returned to mpool ucp_requests
[1652883652.368103] [cn605-06-r:32343:0]          mpool.c:43   UCX  WARN  object 0x41c6140 was not returned to mpool ucp_requests
[1652883652.368114] [cn605-06-r:32343:0]          mpool.c:43   UCX  WARN  object 0x41c6300 was not returned to mpool ucp_requests
[1652883652.368126] [cn605-06-r:32343:0]          mpool.c:43   UCX  WARN  object 0x41c64c0 was not returned to mpool ucp_requests
[1652883652.367629] [cn605-26-r:76136:0]          mpool.c:43   UCX  WARN  object 0x2364f80 was not returned to mpool ucp_requests
[1652883652.367643] [cn605-26-r:76136:0]          mpool.c:43   UCX  WARN  object 0x2365140 was not returned to mpool ucp_requests
[1652883652.367655] [cn605-26-r:76136:0]          mpool.c:43   UCX  WARN  object 0x2365300 was not returned to mpool ucp_requests
[1652883652.367670] [cn605-26-r:76136:0]          mpool.c:43   UCX  WARN  object 0x23654c0 was not returned to mpool ucp_requests
[1652883652.367682] [cn605-26-r:76136:0]          mpool.c:43   UCX  WARN  object 0x2365680 was not returned to mpool ucp_requests
[1652883652.368142] [cn605-06-r:32343:0]          mpool.c:43   UCX  WARN  object 0x41c6680 was not returned to mpool ucp_requests
[1652883652.368154] [cn605-06-r:32343:0]          mpool.c:43   UCX  WARN  object 0x41c6840 was not returned to mpool ucp_requests
[1652883652.368165] [cn605-06-r:32343:0]          mpool.c:43   UCX  WARN  object 0x41c6a00 was not returned to mpool ucp_requests
[1652883652.368179] [cn605-06-r:32343:0]          mpool.c:43   UCX  WARN  object 0x41c6bc0 was not returned to mpool ucp_requests
[1652883652.368190] [cn605-06-r:32343:0]          mpool.c:43   UCX  WARN  object 0x41c6d80 was not returned to mpool ucp_requests
[1652883652.367700] [cn605-26-r:76136:0]          mpool.c:43   UCX  WARN  object 0x2365840 was not returned to mpool ucp_requests
[1652883652.367712] [cn605-26-r:76136:0]          mpool.c:43   UCX  WARN  object 0x2365a00 was not returned to mpool ucp_requests
[1652883652.367723] [cn605-26-r:76136:0]          mpool.c:43   UCX  WARN  object 0x2365bc0 was not returned to mpool ucp_requests
[1652883652.367734] [cn605-26-r:76136:0]          mpool.c:43   UCX  WARN  object 0x2365d80 was not returned to mpool ucp_requests
[1652883652.367746] [cn605-26-r:76136:0]          mpool.c:43   UCX  WARN  object 0x2365f40 was not returned to mpool ucp_requests
[1652883652.368205] [cn605-06-r:32343:0]          mpool.c:43   UCX  WARN  object 0x41c6f40 was not returned to mpool ucp_requests
[1652883652.368216] [cn605-06-r:32343:0]          mpool.c:43   UCX  WARN  object 0x41c7100 was not returned to mpool ucp_requests
[1652883652.368227] [cn605-06-r:32343:0]          mpool.c:43   UCX  WARN  object 0x41c72c0 was not returned to mpool ucp_requests
[1652883652.368242] [cn605-06-r:32343:0]          mpool.c:43   UCX  WARN  object 0x41c7480 was not returned to mpool ucp_requests
[1652883652.367765] [cn605-26-r:76136:0]          mpool.c:43   UCX  WARN  object 0x2366100 was not returned to mpool ucp_requests
[1652883652.367777] [cn605-26-r:76136:0]          mpool.c:43   UCX  WARN  object 0x23662c0 was not returned to mpool ucp_requests
[1652883652.367788] [cn605-26-r:76136:0]          mpool.c:43   UCX  WARN  object 0x2366480 was not returned to mpool ucp_requests
[1652883652.367806] [cn605-26-r:76136:0]          mpool.c:43   UCX  WARN  object 0x2366640 was not returned to mpool ucp_requests
[1652883652.367818] [cn605-26-r:76136:0]          mpool.c:43   UCX  WARN  object 0x2366800 was not returned to mpool ucp_requests
[1652883652.367829] [cn605-26-r:76136:0]          mpool.c:43   UCX  WARN  object 0x23669c0 was not returned to mpool ucp_requests
[1652883652.367841] [cn605-26-r:76136:0]          mpool.c:43   UCX  WARN  object 0x2366b80 was not returned to mpool ucp_requests
[1652883652.367853] [cn605-26-r:76136:0]          mpool.c:43   UCX  WARN  object 0x2366d40 was not returned to mpool ucp_requests
[1652883652.367868] [cn605-26-r:76136:0]          mpool.c:43   UCX  WARN  object 0x2366f00 was not returned to mpool ucp_requests
[1652883652.367882] [cn605-26-r:76136:0]          mpool.c:43   UCX  WARN  object 0x23670c0 was not returned to mpool ucp_requests
[1652883652.367897] [cn605-26-r:76136:0]          mpool.c:43   UCX  WARN  object 0x2367280 was not returned to mpool ucp_requests
[1652883652.367909] [cn605-26-r:76136:0]          mpool.c:43   UCX  WARN  object 0x2367440 was not returned to mpool ucp_requests
[1652883652.367921] [cn605-26-r:76136:0]          mpool.c:43   UCX  WARN  object 0x2367600 was not returned to mpool ucp_requests
[1652883652.367932] [cn605-26-r:76136:0]          mpool.c:43   UCX  WARN  object 0x23677c0 was not returned to mpool ucp_requests
[1652883652.367944] [cn605-26-r:76136:0]          mpool.c:43   UCX  WARN  object 0x2367980 was not returned to mpool ucp_requests
[1652883652.367960] [cn605-26-r:76136:0]          mpool.c:43   UCX  WARN  object 0x2367b40 was not returned to mpool ucp_requests
[1652883652.367972] [cn605-26-r:76136:0]          mpool.c:43   UCX  WARN  object 0x2367d00 was not returned to mpool ucp_requests
[1652883652.367983] [cn605-26-r:76136:0]          mpool.c:43   UCX  WARN  object 0x2367ec0 was not returned to mpool ucp_requests
[1652883652.367997] [cn605-26-r:76136:0]          mpool.c:43   UCX  WARN  object 0x2368080 was not returned to mpool ucp_requests
[1652883652.368009] [cn605-26-r:76136:0]          mpool.c:43   UCX  WARN  object 0x2368240 was not returned to mpool ucp_requests
[1652883652.368021] [cn605-26-r:76136:0]          mpool.c:43   UCX  WARN  object 0x2368400 was not returned to mpool ucp_requests
[1652883652.368033] [cn605-26-r:76136:0]          mpool.c:43   UCX  WARN  object 0x23685c0 was not returned to mpool ucp_requests
[1652883652.368044] [cn605-26-r:76136:0]          mpool.c:43   UCX  WARN  object 0x2368780 was not returned to mpool ucp_requests
[1652883652.368056] [cn605-26-r:76136:0]          mpool.c:43   UCX  WARN  object 0x2368940 was not returned to mpool ucp_requests
[1652883652.368067] [cn605-26-r:76136:0]          mpool.c:43   UCX  WARN  object 0x2368b00 was not returned to mpool ucp_requests
[1652883652.368079] [cn605-26-r:76136:0]          mpool.c:43   UCX  WARN  object 0x2368cc0 was not returned to mpool ucp_requests
[1652883652.368090] [cn605-26-r:76136:0]          mpool.c:43   UCX  WARN  object 0x2368e80 was not returned to mpool ucp_requests
[1652883652.368110] [cn605-26-r:76136:0]          mpool.c:43   UCX  WARN  object 0x2369040 was not returned to mpool ucp_requests
[1652883652.368122] [cn605-26-r:76136:0]          mpool.c:43   UCX  WARN  object 0x2369200 was not returned to mpool ucp_requests
[1652883652.368134] [cn605-26-r:76136:0]          mpool.c:43   UCX  WARN  object 0x23693c0 was not returned to mpool ucp_requests
[1652883652.368145] [cn605-26-r:76136:0]          mpool.c:43   UCX  WARN  object 0x2369580 was not returned to mpool ucp_requests
[1652883652.368157] [cn605-26-r:76136:0]          mpool.c:43   UCX  WARN  object 0x2369740 was not returned to mpool ucp_requests
[1652883652.368176] [cn605-26-r:76136:0]          mpool.c:43   UCX  WARN  object 0x2369900 was not returned to mpool ucp_requests
[1652883652.368188] [cn605-26-r:76136:0]          mpool.c:43   UCX  WARN  object 0x2369ac0 was not returned to mpool ucp_requests
[1652883652.368199] [cn605-26-r:76136:0]          mpool.c:43   UCX  WARN  object 0x2369c80 was not returned to mpool ucp_requests
[1652883652.368211] [cn605-26-r:76136:0]          mpool.c:43   UCX  WARN  object 0x2369e40 was not returned to mpool ucp_requests
[1652883652.368223] [cn605-26-r:76136:0]          mpool.c:43   UCX  WARN  object 0x236a000 was not returned to mpool ucp_requests
[1652883652.368234] [cn605-26-r:76136:0]          mpool.c:43   UCX  WARN  object 0x236a1c0 was not returned to mpool ucp_requests
[1652883652.368246] [cn605-26-r:76136:0]          mpool.c:43   UCX  WARN  object 0x236a380 was not returned to mpool ucp_requests
[1652883652.368257] [cn605-26-r:76136:0]          mpool.c:43   UCX  WARN  object 0x236a540 was not returned to mpool ucp_requests
