 running on  192 total cores
 distrk:  each k-point on  192 cores,    1 groups
 distr:  one band on   24 cores,    8 groups
 using from now: INCAR     
 vasp.5.4.4.18Apr17-6-g9f103f2a35 (build Oct 01 2024 10:11:53) complex          
  
 POSCAR found type information on POSCAR  B  O 
 POSCAR found :  2 types and      10 ions
 scaLAPACK will be used
 LDA part: xc-table for Pade appr. of Perdew
 found WAVECAR, reading the header
  number of k-points has changed, file:    27 present:    24
  trying to continue reading WAVECAR, but it might fail
 WARNING: stress and forces are not correct
 POSCAR, INCAR and KPOINTS ok, starting setup
 FFT: planning ...
 reading WAVECAR
 the WAVECAR file was read successfully
 charge-density read from file: unknown                                 
 entering main loop
       N       E                     dE             d eps       ncg     rms          rms(c)
DAV:   1    -0.768658612217E+02   -0.76866E+02   -0.51599E+02  1648   0.944E+01
DAV:   2    -0.801279486473E+02   -0.32621E+01   -0.32522E+01  1880   0.258E+01
DAV:   3    -0.801815360326E+02   -0.53587E-01   -0.53511E-01  1760   0.341E+00
DAV:   4    -0.801833714227E+02   -0.18354E-02   -0.18343E-02  1888   0.548E-01
DAV:   5    -0.801834206732E+02   -0.49251E-04   -0.49249E-04  1776   0.833E-02
DAV:   6    -0.801834230873E+02   -0.24141E-05   -0.24140E-05  1672   0.146E-02
DAV:   7    -0.801834231190E+02   -0.31667E-07   -0.31738E-07  1232   0.245E-03
   1 F= -.80183423E+02 E0= -.80183423E+02  d E =0.000000E+00
 writing wavefunctions
