<?xml version="1.0" encoding="ISO-8859-1"?>
<modeling>
 <generator>
  <i name="program" type="string">vasp </i>
  <i name="version" type="string">5.4.4.18Apr17-6-g9f103f2a35  </i>
  <i name="subversion" type="string">(build Sep 16 2021 13:51:27) complex            parallel </i>
  <i name="platform" type="string">LinuxIFC </i>
  <i name="date" type="string">2022 10 06 </i>
  <i name="time" type="string">12:12:25 </i>
 </generator>
 <incar>
  <i type="string" name="SYSTEM"> Si</i>
  <i type="int" name="ISTART">     0</i>
  <i type="string" name="PREC">normal</i>
  <i type="int" name="IALGO">    48</i>
  <i type="int" name="ISPIN">     1</i>
  <i type="int" name="ICHARG">     2</i>
  <i type="int" name="IBRION">    -1</i>
  <i name="EDIFF">      0.00000100</i>
  <i name="EDIFFG">      0.00100000</i>
  <i type="int" name="NSW">     0</i>
  <i type="int" name="ISIF">     2</i>
  <i name="ENCUT">    600.00000000</i>
  <i type="int" name="NBANDS">    24</i>
  <i type="int" name="ISMEAR">     0</i>
  <i name="SIGMA">      0.10000000</i>
  <i type="logical" name="LWAVE"> T  </i>
  <i type="logical" name="LCHARG"> T  </i>
  <i type="logical" name="LVTOT"> F  </i>
  <i type="logical" name="LVHAR"> F  </i>
  <i type="logical" name="LELF"> F  </i>
  <v type="int" name="KPOINT_BSE">    -1     0     0     0</v>
  <i type="string" name="GGA"> PE</i>
 </incar>
 <structure name="primitive_cell" >
  <crystal>
   <varray name="basis" >
    <v>       5.46873000       0.00000000       0.00000000 </v>
    <v>       0.00000000       5.46873000       0.00000000 </v>
    <v>       0.00000000       0.00000000       5.46873000 </v>
   </varray>
   <i name="volume">    163.55335084 </i>
   <varray name="rec_basis" >
    <v>       0.18285781       0.00000000       0.00000000 </v>
    <v>       0.00000000       0.18285781       0.00000000 </v>
    <v>       0.00000000       0.00000000       0.18285781 </v>
   </varray>
  </crystal>
  <varray name="positions" >
   <v>      -0.49979246       0.49996434       0.00017020 </v>
   <v>      -0.24991909       0.24994469       0.24997760 </v>
   <v>       0.24983131       0.25032320      -0.24967954 </v>
   <v>      -0.24992091      -0.24999406      -0.24999406 </v>
   <v>       0.24976000      -0.24988434       0.24989531 </v>
   <v>       0.00026171      -0.49992777       0.49979794 </v>
   <v>      -0.00005486      -0.00019932      -0.00046812 </v>
   <v>       0.49983269      -0.00022857      -0.49970286 </v>
  </varray>
 </structure>
 <varray name="primitive_index" >
  <v type="int" >        1 </v>
  <v type="int" >        7 </v>
  <v type="int" >        5 </v>
  <v type="int" >        8 </v>
  <v type="int" >        6 </v>
  <v type="int" >        3 </v>
  <v type="int" >        4 </v>
  <v type="int" >        2 </v>
 </varray>
 <kpoints>
  <generation param="Monkhorst-Pack">
   <v type="int" name="divisions">       7        7        7 </v>
   <v name="usershift">      0.00000000       0.00000000       0.00000000 </v>
   <v name="genvec1">      0.14285714       0.00000000       0.00000000 </v>
   <v name="genvec2">      0.00000000       0.14285714       0.00000000 </v>
   <v name="genvec3">      0.00000000       0.00000000       0.14285714 </v>
   <v name="shift">      0.00000000       0.00000000       0.00000000 </v>
  </generation>
  <varray name="kpointlist" >
   <v>       0.00000000       0.00000000       0.00000000 </v>
   <v>       0.14285714       0.00000000       0.00000000 </v>
   <v>       0.28571429       0.00000000       0.00000000 </v>
   <v>       0.42857143       0.00000000       0.00000000 </v>
   <v>       0.00000000       0.14285714       0.00000000 </v>
   <v>       0.14285714       0.14285714       0.00000000 </v>
   <v>       0.28571429       0.14285714       0.00000000 </v>
   <v>       0.42857143       0.14285714       0.00000000 </v>
   <v>      -0.42857143       0.14285714       0.00000000 </v>
   <v>      -0.28571429       0.14285714       0.00000000 </v>
   <v>      -0.14285714       0.14285714       0.00000000 </v>
   <v>       0.00000000       0.28571429       0.00000000 </v>
   <v>       0.14285714       0.28571429       0.00000000 </v>
   <v>       0.28571429       0.28571429       0.00000000 </v>
   <v>       0.42857143       0.28571429       0.00000000 </v>
   <v>      -0.42857143       0.28571429       0.00000000 </v>
   <v>      -0.28571429       0.28571429       0.00000000 </v>
   <v>      -0.14285714       0.28571429       0.00000000 </v>
   <v>       0.00000000       0.42857143       0.00000000 </v>
   <v>       0.14285714       0.42857143       0.00000000 </v>
   <v>       0.28571429       0.42857143       0.00000000 </v>
   <v>       0.42857143       0.42857143       0.00000000 </v>
   <v>      -0.42857143       0.42857143       0.00000000 </v>
   <v>      -0.28571429       0.42857143       0.00000000 </v>
   <v>      -0.14285714       0.42857143       0.00000000 </v>
   <v>       0.00000000       0.00000000       0.14285714 </v>
   <v>       0.14285714       0.00000000       0.14285714 </v>
   <v>       0.28571429       0.00000000       0.14285714 </v>
   <v>       0.42857143       0.00000000       0.14285714 </v>
   <v>      -0.42857143       0.00000000       0.14285714 </v>
   <v>      -0.28571429       0.00000000       0.14285714 </v>
   <v>      -0.14285714       0.00000000       0.14285714 </v>
   <v>       0.00000000       0.14285714       0.14285714 </v>
   <v>       0.14285714       0.14285714       0.14285714 </v>
   <v>       0.28571429       0.14285714       0.14285714 </v>
   <v>       0.42857143       0.14285714       0.14285714 </v>
   <v>      -0.42857143       0.14285714       0.14285714 </v>
   <v>      -0.28571429       0.14285714       0.14285714 </v>
   <v>      -0.14285714       0.14285714       0.14285714 </v>
   <v>       0.00000000       0.28571429       0.14285714 </v>
   <v>       0.14285714       0.28571429       0.14285714 </v>
   <v>       0.28571429       0.28571429       0.14285714 </v>
   <v>       0.42857143       0.28571429       0.14285714 </v>
   <v>      -0.42857143       0.28571429       0.14285714 </v>
   <v>      -0.28571429       0.28571429       0.14285714 </v>
   <v>      -0.14285714       0.28571429       0.14285714 </v>
   <v>       0.00000000       0.42857143       0.14285714 </v>
   <v>       0.14285714       0.42857143       0.14285714 </v>
   <v>       0.28571429       0.42857143       0.14285714 </v>
   <v>       0.42857143       0.42857143       0.14285714 </v>
   <v>      -0.42857143       0.42857143       0.14285714 </v>
   <v>      -0.28571429       0.42857143       0.14285714 </v>
   <v>      -0.14285714       0.42857143       0.14285714 </v>
   <v>       0.00000000      -0.42857143       0.14285714 </v>
   <v>       0.14285714      -0.42857143       0.14285714 </v>
   <v>       0.28571429      -0.42857143       0.14285714 </v>
   <v>       0.42857143      -0.42857143       0.14285714 </v>
   <v>      -0.42857143      -0.42857143       0.14285714 </v>
   <v>      -0.28571429      -0.42857143       0.14285714 </v>
   <v>      -0.14285714      -0.42857143       0.14285714 </v>
   <v>       0.00000000      -0.28571429       0.14285714 </v>
   <v>       0.14285714      -0.28571429       0.14285714 </v>
   <v>       0.28571429      -0.28571429       0.14285714 </v>
   <v>       0.42857143      -0.28571429       0.14285714 </v>
   <v>      -0.42857143      -0.28571429       0.14285714 </v>
   <v>      -0.28571429      -0.28571429       0.14285714 </v>
   <v>      -0.14285714      -0.28571429       0.14285714 </v>
   <v>       0.00000000      -0.14285714       0.14285714 </v>
   <v>       0.14285714      -0.14285714       0.14285714 </v>
   <v>       0.28571429      -0.14285714       0.14285714 </v>
   <v>       0.42857143      -0.14285714       0.14285714 </v>
   <v>      -0.42857143      -0.14285714       0.14285714 </v>
   <v>      -0.28571429      -0.14285714       0.14285714 </v>
   <v>      -0.14285714      -0.14285714       0.14285714 </v>
   <v>       0.00000000       0.00000000       0.28571429 </v>
   <v>       0.14285714       0.00000000       0.28571429 </v>
   <v>       0.28571429       0.00000000       0.28571429 </v>
   <v>       0.42857143       0.00000000       0.28571429 </v>
   <v>      -0.42857143       0.00000000       0.28571429 </v>
   <v>      -0.28571429       0.00000000       0.28571429 </v>
   <v>      -0.14285714       0.00000000       0.28571429 </v>
   <v>       0.00000000       0.14285714       0.28571429 </v>
   <v>       0.14285714       0.14285714       0.28571429 </v>
   <v>       0.28571429       0.14285714       0.28571429 </v>
   <v>       0.42857143       0.14285714       0.28571429 </v>
   <v>      -0.42857143       0.14285714       0.28571429 </v>
   <v>      -0.28571429       0.14285714       0.28571429 </v>
   <v>      -0.14285714       0.14285714       0.28571429 </v>
   <v>       0.00000000       0.28571429       0.28571429 </v>
   <v>       0.14285714       0.28571429       0.28571429 </v>
   <v>       0.28571429       0.28571429       0.28571429 </v>
   <v>       0.42857143       0.28571429       0.28571429 </v>
   <v>      -0.42857143       0.28571429       0.28571429 </v>
   <v>      -0.28571429       0.28571429       0.28571429 </v>
   <v>      -0.14285714       0.28571429       0.28571429 </v>
   <v>       0.00000000       0.42857143       0.28571429 </v>
   <v>       0.14285714       0.42857143       0.28571429 </v>
   <v>       0.28571429       0.42857143       0.28571429 </v>
   <v>       0.42857143       0.42857143       0.28571429 </v>
   <v>      -0.42857143       0.42857143       0.28571429 </v>
   <v>      -0.28571429       0.42857143       0.28571429 </v>
   <v>      -0.14285714       0.42857143       0.28571429 </v>
   <v>       0.00000000      -0.42857143       0.28571429 </v>
   <v>       0.14285714      -0.42857143       0.28571429 </v>
   <v>       0.28571429      -0.42857143       0.28571429 </v>
   <v>       0.42857143      -0.42857143       0.28571429 </v>
   <v>      -0.42857143      -0.42857143       0.28571429 </v>
   <v>      -0.28571429      -0.42857143       0.28571429 </v>
   <v>      -0.14285714      -0.42857143       0.28571429 </v>
   <v>       0.00000000      -0.28571429       0.28571429 </v>
   <v>       0.14285714      -0.28571429       0.28571429 </v>
   <v>       0.28571429      -0.28571429       0.28571429 </v>
   <v>       0.42857143      -0.28571429       0.28571429 </v>
   <v>      -0.42857143      -0.28571429       0.28571429 </v>
   <v>      -0.28571429      -0.28571429       0.28571429 </v>
   <v>      -0.14285714      -0.28571429       0.28571429 </v>
   <v>       0.00000000      -0.14285714       0.28571429 </v>
   <v>       0.14285714      -0.14285714       0.28571429 </v>
   <v>       0.28571429      -0.14285714       0.28571429 </v>
   <v>       0.42857143      -0.14285714       0.28571429 </v>
   <v>      -0.42857143      -0.14285714       0.28571429 </v>
   <v>      -0.28571429      -0.14285714       0.28571429 </v>
   <v>      -0.14285714      -0.14285714       0.28571429 </v>
   <v>       0.00000000       0.00000000       0.42857143 </v>
   <v>       0.14285714       0.00000000       0.42857143 </v>
   <v>       0.28571429       0.00000000       0.42857143 </v>
   <v>       0.42857143       0.00000000       0.42857143 </v>
   <v>      -0.42857143       0.00000000       0.42857143 </v>
   <v>      -0.28571429       0.00000000       0.42857143 </v>
   <v>      -0.14285714       0.00000000       0.42857143 </v>
   <v>       0.00000000       0.14285714       0.42857143 </v>
   <v>       0.14285714       0.14285714       0.42857143 </v>
   <v>       0.28571429       0.14285714       0.42857143 </v>
   <v>       0.42857143       0.14285714       0.42857143 </v>
   <v>      -0.42857143       0.14285714       0.42857143 </v>
   <v>      -0.28571429       0.14285714       0.42857143 </v>
   <v>      -0.14285714       0.14285714       0.42857143 </v>
   <v>       0.00000000       0.28571429       0.42857143 </v>
   <v>       0.14285714       0.28571429       0.42857143 </v>
   <v>       0.28571429       0.28571429       0.42857143 </v>
   <v>       0.42857143       0.28571429       0.42857143 </v>
   <v>      -0.42857143       0.28571429       0.42857143 </v>
   <v>      -0.28571429       0.28571429       0.42857143 </v>
   <v>      -0.14285714       0.28571429       0.42857143 </v>
   <v>       0.00000000       0.42857143       0.42857143 </v>
   <v>       0.14285714       0.42857143       0.42857143 </v>
   <v>       0.28571429       0.42857143       0.42857143 </v>
   <v>       0.42857143       0.42857143       0.42857143 </v>
   <v>      -0.42857143       0.42857143       0.42857143 </v>
   <v>      -0.28571429       0.42857143       0.42857143 </v>
   <v>      -0.14285714       0.42857143       0.42857143 </v>
   <v>       0.00000000      -0.42857143       0.42857143 </v>
   <v>       0.14285714      -0.42857143       0.42857143 </v>
   <v>       0.28571429      -0.42857143       0.42857143 </v>
   <v>       0.42857143      -0.42857143       0.42857143 </v>
   <v>      -0.42857143      -0.42857143       0.42857143 </v>
   <v>      -0.28571429      -0.42857143       0.42857143 </v>
   <v>      -0.14285714      -0.42857143       0.42857143 </v>
   <v>       0.00000000      -0.28571429       0.42857143 </v>
   <v>       0.14285714      -0.28571429       0.42857143 </v>
   <v>       0.28571429      -0.28571429       0.42857143 </v>
   <v>       0.42857143      -0.28571429       0.42857143 </v>
   <v>      -0.42857143      -0.28571429       0.42857143 </v>
   <v>      -0.28571429      -0.28571429       0.42857143 </v>
   <v>      -0.14285714      -0.28571429       0.42857143 </v>
   <v>       0.00000000      -0.14285714       0.42857143 </v>
   <v>       0.14285714      -0.14285714       0.42857143 </v>
   <v>       0.28571429      -0.14285714       0.42857143 </v>
   <v>       0.42857143      -0.14285714       0.42857143 </v>
   <v>      -0.42857143      -0.14285714       0.42857143 </v>
   <v>      -0.28571429      -0.14285714       0.42857143 </v>
   <v>      -0.14285714      -0.14285714       0.42857143 </v>
  </varray>
  <varray name="weights" >
   <v>       0.00291545 </v>
   <v>       0.00583090 </v>
   <v>       0.00583090 </v>
   <v>       0.00583090 </v>
   <v>       0.00583090 </v>
   <v>       0.00583090 </v>
   <v>       0.00583090 </v>
   <v>       0.00583090 </v>
   <v>       0.00583090 </v>
   <v>       0.00583090 </v>
   <v>       0.00583090 </v>
   <v>       0.00583090 </v>
   <v>       0.00583090 </v>
   <v>       0.00583090 </v>
   <v>       0.00583090 </v>
   <v>       0.00583090 </v>
   <v>       0.00583090 </v>
   <v>       0.00583090 </v>
   <v>       0.00583090 </v>
   <v>       0.00583090 </v>
   <v>       0.00583090 </v>
   <v>       0.00583090 </v>
   <v>       0.00583090 </v>
   <v>       0.00583090 </v>
   <v>       0.00583090 </v>
   <v>       0.00583090 </v>
   <v>       0.00583090 </v>
   <v>       0.00583090 </v>
   <v>       0.00583090 </v>
   <v>       0.00583090 </v>
   <v>       0.00583090 </v>
   <v>       0.00583090 </v>
   <v>       0.00583090 </v>
   <v>       0.00583090 </v>
   <v>       0.00583090 </v>
   <v>       0.00583090 </v>
   <v>       0.00583090 </v>
   <v>       0.00583090 </v>
   <v>       0.00583090 </v>
   <v>       0.00583090 </v>
   <v>       0.00583090 </v>
   <v>       0.00583090 </v>
   <v>       0.00583090 </v>
   <v>       0.00583090 </v>
   <v>       0.00583090 </v>
   <v>       0.00583090 </v>
   <v>       0.00583090 </v>
   <v>       0.00583090 </v>
   <v>       0.00583090 </v>
   <v>       0.00583090 </v>
   <v>       0.00583090 </v>
   <v>       0.00583090 </v>
   <v>       0.00583090 </v>
   <v>       0.00583090 </v>
   <v>       0.00583090 </v>
   <v>       0.00583090 </v>
   <v>       0.00583090 </v>
   <v>       0.00583090 </v>
   <v>       0.00583090 </v>
   <v>       0.00583090 </v>
   <v>       0.00583090 </v>
   <v>       0.00583090 </v>
   <v>       0.00583090 </v>
   <v>       0.00583090 </v>
   <v>       0.00583090 </v>
   <v>       0.00583090 </v>
   <v>       0.00583090 </v>
   <v>       0.00583090 </v>
   <v>       0.00583090 </v>
   <v>       0.00583090 </v>
   <v>       0.00583090 </v>
   <v>       0.00583090 </v>
   <v>       0.00583090 </v>
   <v>       0.00583090 </v>
   <v>       0.00583090 </v>
   <v>       0.00583090 </v>
   <v>       0.00583090 </v>
   <v>       0.00583090 </v>
   <v>       0.00583090 </v>
   <v>       0.00583090 </v>
   <v>       0.00583090 </v>
   <v>       0.00583090 </v>
   <v>       0.00583090 </v>
   <v>       0.00583090 </v>
   <v>       0.00583090 </v>
   <v>       0.00583090 </v>
   <v>       0.00583090 </v>
   <v>       0.00583090 </v>
   <v>       0.00583090 </v>
   <v>       0.00583090 </v>
   <v>       0.00583090 </v>
   <v>       0.00583090 </v>
   <v>       0.00583090 </v>
   <v>       0.00583090 </v>
   <v>       0.00583090 </v>
   <v>       0.00583090 </v>
   <v>       0.00583090 </v>
   <v>       0.00583090 </v>
   <v>       0.00583090 </v>
   <v>       0.00583090 </v>
   <v>       0.00583090 </v>
   <v>       0.00583090 </v>
   <v>       0.00583090 </v>
   <v>       0.00583090 </v>
   <v>       0.00583090 </v>
   <v>       0.00583090 </v>
   <v>       0.00583090 </v>
   <v>       0.00583090 </v>
   <v>       0.00583090 </v>
   <v>       0.00583090 </v>
   <v>       0.00583090 </v>
   <v>       0.00583090 </v>
   <v>       0.00583090 </v>
   <v>       0.00583090 </v>
   <v>       0.00583090 </v>
   <v>       0.00583090 </v>
   <v>       0.00583090 </v>
   <v>       0.00583090 </v>
   <v>       0.00583090 </v>
   <v>       0.00583090 </v>
   <v>       0.00583090 </v>
   <v>       0.00583090 </v>
   <v>       0.00583090 </v>
   <v>       0.00583090 </v>
   <v>       0.00583090 </v>
   <v>       0.00583090 </v>
   <v>       0.00583090 </v>
   <v>       0.00583090 </v>
   <v>       0.00583090 </v>
   <v>       0.00583090 </v>
   <v>       0.00583090 </v>
   <v>       0.00583090 </v>
   <v>       0.00583090 </v>
   <v>       0.00583090 </v>
   <v>       0.00583090 </v>
   <v>       0.00583090 </v>
   <v>       0.00583090 </v>
   <v>       0.00583090 </v>
   <v>       0.00583090 </v>
   <v>       0.00583090 </v>
   <v>       0.00583090 </v>
   <v>       0.00583090 </v>
   <v>       0.00583090 </v>
   <v>       0.00583090 </v>
   <v>       0.00583090 </v>
   <v>       0.00583090 </v>
   <v>       0.00583090 </v>
   <v>       0.00583090 </v>
   <v>       0.00583090 </v>
   <v>       0.00583090 </v>
   <v>       0.00583090 </v>
   <v>       0.00583090 </v>
   <v>       0.00583090 </v>
   <v>       0.00583090 </v>
   <v>       0.00583090 </v>
   <v>       0.00583090 </v>
   <v>       0.00583090 </v>
   <v>       0.00583090 </v>
   <v>       0.00583090 </v>
   <v>       0.00583090 </v>
   <v>       0.00583090 </v>
   <v>       0.00583090 </v>
   <v>       0.00583090 </v>
   <v>       0.00583090 </v>
   <v>       0.00583090 </v>
   <v>       0.00583090 </v>
   <v>       0.00583090 </v>
   <v>       0.00583090 </v>
   <v>       0.00583090 </v>
   <v>       0.00583090 </v>
   <v>       0.00583090 </v>
   <v>       0.00583090 </v>
  </varray>
 </kpoints>
 <parameters>
  <separator name="general" >
   <i type="string" name="SYSTEM">Si</i>
   <i type="logical" name="LCOMPAT"> F  </i>
  </separator>
  <separator name="electronic" >
   <i type="string" name="PREC">normal</i>
   <i name="ENMAX">    600.00000000</i>
   <i name="ENAUG">    322.06900000</i>
   <i name="EDIFF">      0.00000100</i>
   <i type="int" name="IALGO">    48</i>
   <i type="int" name="IWAVPR">    10</i>
   <i type="int" name="NBANDS">    24</i>
   <i name="NELECT">     32.00000000</i>
   <i type="int" name="TURBO">     0</i>
   <i type="int" name="IRESTART">     0</i>
   <i type="int" name="NREBOOT">     0</i>
   <i type="int" name="NMIN">     0</i>
   <i name="EREF">      0.00000000</i>
   <separator name="electronic smearing" >
    <i type="int" name="ISMEAR">     0</i>
    <i name="SIGMA">      0.10000000</i>
    <i name="KSPACING">      0.50000000</i>
    <i type="logical" name="KGAMMA"> T  </i>
   </separator>
   <separator name="electronic projectors" >
    <i type="logical" name="LREAL"> F  </i>
    <v name="ROPT">      0.00000000</v>
    <i type="int" name="LMAXPAW">  -100</i>
    <i type="int" name="LMAXMIX">     2</i>
    <i type="logical" name="NLSPLINE"> F  </i>
   </separator>
   <separator name="electronic startup" >
    <i type="int" name="ISTART">     0</i>
    <i type="int" name="ICHARG">     2</i>
    <i type="int" name="INIWAV">     1</i>
   </separator>
   <separator name="electronic spin" >
    <i type="int" name="ISPIN">     1</i>
    <i type="logical" name="LNONCOLLINEAR"> F  </i>
    <v name="MAGMOM">      1.00000000      1.00000000      1.00000000      1.00000000      1.00000000      1.00000000      1.00000000      1.00000000</v>
    <i name="NUPDOWN">     -1.00000000</i>
    <i type="logical" name="LSORBIT"> F  </i>
    <v name="SAXIS">      0.00000000      0.00000000      1.00000000</v>
    <i type="logical" name="LSPIRAL"> F  </i>
    <v name="QSPIRAL">      0.00000000      0.00000000      0.00000000</v>
    <i type="logical" name="LZEROZ"> F  </i>
   </separator>
   <separator name="electronic exchange-correlation" >
    <i type="logical" name="LASPH"> F  </i>
    <i type="logical" name="LMETAGGA"> F  </i>
   </separator>
   <separator name="electronic convergence" >
    <i type="int" name="NELM">    60</i>
    <i type="int" name="NELMDL">   -12</i>
    <i type="int" name="NELMIN">     2</i>
    <i name="ENINI">    600.00000000</i>
    <separator name="electronic convergence detail" >
     <i type="logical" name="LDIAG"> T  </i>
     <i type="logical" name="LSUBROT"> F  </i>
     <i name="WEIMIN">      0.00000000</i>
     <i name="EBREAK">      0.00000001</i>
     <i name="DEPER">      0.30000000</i>
     <i type="int" name="NRMM">     4</i>
     <i name="TIME">      0.40000000</i>
    </separator>
   </separator>
   <separator name="electronic mixer" >
    <i name="AMIX">      0.40000000</i>
    <i name="BMIX">      1.00000000</i>
    <i name="AMIN">      0.10000000</i>
    <i name="AMIX_MAG">      1.60000000</i>
    <i name="BMIX_MAG">      1.00000000</i>
    <separator name="electronic mixer details" >
     <i type="int" name="IMIX">     4</i>
     <i type="logical" name="MIXFIRST"> F  </i>
     <i type="int" name="MAXMIX">   -45</i>
     <i name="WC">    100.00000000</i>
     <i type="int" name="INIMIX">     1</i>
     <i type="int" name="MIXPRE">     1</i>
     <i type="int" name="MREMOVE">     5</i>
    </separator>
   </separator>
   <separator name="electronic dipolcorrection" >
    <i type="logical" name="LDIPOL"> F  </i>
    <i type="logical" name="LMONO"> F  </i>
    <i type="int" name="IDIPOL">     0</i>
    <i name="EPSILON">      1.00000000</i>
    <v name="DIPOL">   -100.00000000   -100.00000000   -100.00000000</v>
    <i name="EFIELD">      0.00000000</i>
   </separator>
  </separator>
  <separator name="grids" >
   <i type="int" name="NGX">    36</i>
   <i type="int" name="NGY">    36</i>
   <i type="int" name="NGZ">    36</i>
   <i type="int" name="NGXF">    72</i>
   <i type="int" name="NGYF">    72</i>
   <i type="int" name="NGZF">    72</i>
   <i type="logical" name="ADDGRID"> F  </i>
  </separator>
  <separator name="ionic" >
   <i type="int" name="NSW">     0</i>
   <i type="int" name="IBRION">    -1</i>
   <i type="int" name="MDALGO">     0</i>
   <i type="int" name="ISIF">     2</i>
   <i name="PSTRESS">      0.00000000</i>
   <i name="EDIFFG">      0.00100000</i>
   <i type="int" name="NFREE">     0</i>
   <i name="POTIM">      0.50000000</i>
   <i name="SMASS">     -3.00000000</i>
   <i name="SCALEE">      1.00000000</i>
  </separator>
  <separator name="ionic md" >
   <i name="TEBEG">      0.00010000</i>
   <i name="TEEND">      0.00010000</i>
   <i type="int" name="NBLOCK">     1</i>
   <i type="int" name="KBLOCK">     1</i>
   <i type="int" name="NPACO">   256</i>
   <i name="APACO">     16.00000000</i>
  </separator>
  <separator name="symmetry" >
   <i type="int" name="ISYM">     2</i>
   <i name="SYMPREC">      0.00001000</i>
  </separator>
  <separator name="dos" >
   <i type="int" name="LORBIT">     0</i>
   <v name="RWIGS">     -1.00000000</v>
   <i type="int" name="NEDOS">   301</i>
   <i name="EMIN">     10.00000000</i>
   <i name="EMAX">    -10.00000000</i>
   <i name="EFERMI">      0.00000000</i>
  </separator>
  <separator name="writing" >
   <i type="int" name="NWRITE">     2</i>
   <i type="logical" name="LWAVE"> T  </i>
   <i type="logical" name="LDOWNSAMPLE"> F  </i>
   <i type="logical" name="LCHARG"> T  </i>
   <i type="logical" name="LPARD"> F  </i>
   <i type="logical" name="LVTOT"> F  </i>
   <i type="logical" name="LVHAR"> F  </i>
   <i type="logical" name="LELF"> F  </i>
   <i type="logical" name="LOPTICS"> F  </i>
   <v name="STM">      0.00000000      0.00000000      0.00000000      0.00000000      0.00000000      0.00000000      0.00000000</v>
  </separator>
  <separator name="performance" >
   <i type="int" name="NPAR">     1</i>
   <i type="int" name="NSIM">     4</i>
   <i type="int" name="NBLK">    -1</i>
   <i type="logical" name="LPLANE"> T  </i>
   <i type="logical" name="LSCALAPACK"> T  </i>
   <i type="logical" name="LSCAAWARE"> F  </i>
   <i type="logical" name="LSCALU"> F  </i>
   <i type="logical" name="LASYNC"> F  </i>
   <i type="logical" name="LORBITALREAL"> F  </i>
  </separator>
  <separator name="miscellaneous" >
   <i type="int" name="IDIOT">     3</i>
   <i type="int" name="ISPECIAL">     0</i>
   <i type="logical" name="LMUSIC"> F  </i>
   <v name="POMASS">     28.08500000</v>
   <v name="DARWINR">      0.00000000</v>
   <v name="DARWINV">      1.00000000</v>
   <i type="logical" name="LCORR"> T  </i>
  </separator>
  <i type="logical" name="GGA_COMPAT"> T  </i>
  <i type="logical" name="LBERRY"> F  </i>
  <i type="int" name="ICORELEVEL">     0</i>
  <i type="logical" name="LDAU"> F  </i>
  <i type="int" name="I_CONSTRAINED_M">     0</i>
  <separator name="electronic exchange-correlation" >
   <i type="string" name="GGA">PE</i>
   <i type="int" name="VOSKOWN">     0</i>
   <i type="logical" name="LHFCALC"> F  </i>
   <i type="string" name="PRECFOCK"></i>
   <i type="logical" name="LSYMGRAD"> F  </i>
   <i type="logical" name="LHFONE"> F  </i>
   <i type="logical" name="LRHFCALC"> F  </i>
   <i type="logical" name="LTHOMAS"> F  </i>
   <i type="logical" name="LMODELHF"> F  </i>
   <i name="ENCUT4O">     -1.00000000</i>
   <i type="int" name="EXXOEP">     0</i>
   <i type="int" name="FOURORBIT">     0</i>
   <i name="AEXX">      0.00000000</i>
   <i name="HFALPHA">      0.00000000</i>
   <i name="MCALPHA">      0.00000000</i>
   <i name="ALDAX">      1.00000000</i>
   <i name="AGGAX">      1.00000000</i>
   <i name="ALDAC">      1.00000000</i>
   <i name="AGGAC">      1.00000000</i>
   <i type="int" name="NKREDX">     1</i>
   <i type="int" name="NKREDY">     1</i>
   <i type="int" name="NKREDZ">     1</i>
   <i type="logical" name="SHIFTRED"> F  </i>
   <i type="logical" name="ODDONLY"> F  </i>
   <i type="logical" name="EVENONLY"> F  </i>
   <i type="int" name="LMAXFOCK">     0</i>
   <i type="int" name="NMAXFOCKAE">     0</i>
   <i type="logical" name="LFOCKAEDFT"> F  </i>
   <i name="HFSCREEN">      0.00000000</i>
   <i name="HFSCREENC">      0.00000000</i>
   <i type="int" name="NBANDSGWLOW">     0</i>
  </separator>
  <separator name="vdW DFT" >
   <i type="logical" name="LUSE_VDW"> F  </i>
   <i name="Zab_VDW">     -0.84910000</i>
   <i name="PARAM1">      0.12340000</i>
   <i name="PARAM2">      1.00000000</i>
   <i name="PARAM3">      0.00000000</i>
  </separator>
  <separator name="model GW" >
   <i type="int" name="MODEL_GW">     0</i>
   <i name="MODEL_EPS0">     12.26650131</i>
   <i name="MODEL_ALPHA">      1.00000000</i>
  </separator>
  <separator name="linear response parameters" >
   <i type="logical" name="LEPSILON"> F  </i>
   <i type="logical" name="LRPA"> F  </i>
   <i type="logical" name="LNABLA"> F  </i>
   <i type="logical" name="LVEL"> F  </i>
   <i type="int" name="KINTER">     0</i>
   <i name="CSHIFT">      0.10000000</i>
   <i name="OMEGAMAX">     -1.00000000</i>
   <i name="DEG_THRESHOLD">      0.00200000</i>
   <i name="RTIME">     -0.10000000</i>
   <i name="WPLASMAI">      0.00000000</i>
   <v name="DFIELD">      0.00000000      0.00000000      0.00000000</v>
   <v name="WPLASMA">      0.00000000      0.00000000      0.00000000      0.00000000      0.00000000      0.00000000      0.00000000      0.00000000      0.00000000</v>
  </separator>
  <separator name="orbital magnetization" >
   <i type="logical" name="NUCIND"> F  </i>
   <v name="MAGPOS">      0.00000000      0.00000000      0.00000000</v>
   <i type="logical" name="LNICSALL"> T  </i>
   <i type="logical" name="ORBITALMAG"> F  </i>
   <i type="logical" name="LMAGBLOCH"> F  </i>
   <i type="logical" name="LCHIMAG"> F  </i>
   <i type="logical" name="LGAUGE"> T  </i>
   <i type="int" name="MAGATOM">     0</i>
   <v name="MAGDIPOL">      0.00000000      0.00000000      0.00000000</v>
   <v name="AVECCONST">      0.00000000      0.00000000      0.00000000</v>
  </separator>
  <separator name="response functions" >
   <i type="logical" name="LADDER"> F  </i>
   <i type="logical" name="LRPAFORCE"> F  </i>
   <i type="logical" name="LFXC"> F  </i>
   <i type="logical" name="LHARTREE"> T  </i>
   <i type="int" name="IBSE">     0</i>
   <v type="int" name="KPOINT">    -1     0     0     0</v>
   <i type="logical" name="LTCTE"> F  </i>
   <i type="logical" name="LTETE"> F  </i>
   <i type="logical" name="LTRIPLET"> F  </i>
   <i type="logical" name="LFXCEPS"> F  </i>
   <i type="logical" name="LFXHEG"> F  </i>
   <i type="int" name="NATURALO">     2</i>
   <i type="logical" name="L2ORDER"> F  </i>
   <i type="logical" name="LMP2LT"> F  </i>
   <i type="logical" name="LUSEW"> F  </i>
   <i name="ENCUTGW">     -2.00000000</i>
   <i name="ENCUTGWSOFT">     -2.00000000</i>
   <i name="ENCUTLF">     -1.00000000</i>
   <i type="int" name="LMAXMP2">    -1</i>
   <i name="SCISSOR">      0.00000000</i>
   <i type="int" name="NOMEGA">     0</i>
   <i type="int" name="NOMEGAR">     0</i>
   <i type="int" name="NBANDSGW">    -1</i>
   <i type="int" name="NBANDSO">    -1</i>
   <i type="int" name="NBANDSV">    -1</i>
   <i type="int" name="NELM">     1</i>
   <i type="int" name="NELMHF">     1</i>
   <i type="int" name="DIM">     3</i>
   <i type="int" name="ANTIRES">     0</i>
   <i name="OMEGAMAX">    -30.00000000</i>
   <i name="OMEGAMIN">    -30.00000000</i>
   <i name="OMEGATL">   -200.00000000</i>
   <i type="int" name="OMEGAGRID">   140</i>
   <i name="CSHIFT">     -0.10000000</i>
   <i type="logical" name="SELFENERGY"> F  </i>
   <i type="logical" name="LSPECTRAL"> F  </i>
   <i type="logical" name="LSPECTRALGW"> F  </i>
   <i type="logical" name="LSINGLES"> F  </i>
   <i type="logical" name="LFERMIGW"> F  </i>
   <i type="logical" name="ODDONLYGW"> F  </i>
   <i type="logical" name="EVENONLYGW"> F  </i>
   <i type="int" name="NKREDLFX">     1</i>
   <i type="int" name="NKREDLFY">     1</i>
   <i type="int" name="NKREDLFZ">     1</i>
   <i type="int" name="MAXMEM">  2800</i>
   <i type="int" name="TELESCOPE">     0</i>
   <i type="int" name="TAUPAR">     1</i>
   <i type="int" name="OMEGAPAR">    -1</i>
   <i name="LAMBDA">      1.00000000</i>
  </separator>
  <separator name="External order field" >
   <i name="OFIELD_KAPPA">      0.00000000</i>
   <v name="OFIELD_K">      0.00000000      0.00000000      0.00000000</v>
   <i name="OFIELD_Q6_NEAR">      0.00000000</i>
   <i name="OFIELD_Q6_FAR">      0.00000000</i>
   <i name="OFIELD_A">      0.00000000</i>
  </separator>
 </parameters>
 <atominfo>
  <atoms>       8 </atoms>
  <types>       1 </types>
  <array name="atoms" >
   <dimension dim="1">ion</dimension>
   <field type="string">element</field>
   <field type="int">atomtype</field>
   <set>
    <rc><c>Si</c><c>   1</c></rc>
    <rc><c>Si</c><c>   1</c></rc>
    <rc><c>Si</c><c>   1</c></rc>
    <rc><c>Si</c><c>   1</c></rc>
    <rc><c>Si</c><c>   1</c></rc>
    <rc><c>Si</c><c>   1</c></rc>
    <rc><c>Si</c><c>   1</c></rc>
    <rc><c>Si</c><c>   1</c></rc>
   </set>
  </array>
  <array name="atomtypes" >
   <dimension dim="1">type</dimension>
   <field type="int">atomspertype</field>
   <field type="string">element</field>
   <field>mass</field>
   <field>valence</field>
   <field type="string">pseudopotential</field>
   <set>
    <rc><c>   8</c><c>Si</c><c>     28.08500000</c><c>      4.00000000</c><c>  PAW_PBE Si 05Jan2001                  </c></rc>
   </set>
  </array>
 </atominfo>
 <structure name="initialpos" >
  <crystal>
   <varray name="basis" >
    <v>       5.46873000       0.00000000       0.00000000 </v>
    <v>       0.00000000       5.46873000       0.00000000 </v>
    <v>       0.00000000       0.00000000       5.46873000 </v>
   </varray>
   <i name="volume">    163.55335084 </i>
   <varray name="rec_basis" >
    <v>       0.18285781       0.00000000       0.00000000 </v>
    <v>       0.00000000       0.18285781       0.00000000 </v>
    <v>       0.00000000       0.00000000       0.18285781 </v>
   </varray>
  </crystal>
  <varray name="positions" >
   <v>       0.50020754       0.49996434       0.00017020 </v>
   <v>       0.49983269       0.99977143       0.50029714 </v>
   <v>       0.00026171       0.50007223       0.49979794 </v>
   <v>       0.99994514       0.99980068       0.99953188 </v>
   <v>       0.24983131       0.25032320       0.75032046 </v>
   <v>       0.24976000       0.75011566       0.24989531 </v>
   <v>       0.75008091       0.24994469       0.24997760 </v>
   <v>       0.75007909       0.75000594       0.75000594 </v>
  </varray>
 </structure>
 <calculation>
  <scstep>
   <time name="diag">    1.03    1.03</time>
   <time name="diis">    1.96    1.96</time>
   <time name="orth">    0.04    0.04</time>
   <time name="total">    3.05    3.05</time>
   <energy>
    <i name="alphaZ">     13.17270701 </i>
    <i name="ewald">   -907.77902387 </i>
    <i name="hartreedc">    -45.29377995 </i>
    <i name="XCdc">    -74.74073471 </i>
    <i name="pawpsdc">    704.99039692 </i>
    <i name="pawaedc">   -564.24414232 </i>
    <i name="eentropy">     -0.00403896 </i>
    <i name="bandstr">    237.75542064 </i>
    <i name="atom">    824.53247641 </i>
    <i name="e_fr_energy">    188.38928117 </i>
    <i name="e_wo_entrp">    188.39332013 </i>
    <i name="e_0_energy">    188.39130065 </i>
   </energy>
  </scstep>
  <scstep>
   <time name="diag">    1.04    1.04</time>
   <time name="diis">    1.75    1.75</time>
   <time name="orth">    0.04    0.04</time>
   <time name="total">    2.84    2.84</time>
   <energy>
    <i name="e_fr_energy">     15.92590939 </i>
    <i name="e_wo_entrp">     15.93333835 </i>
    <i name="e_0_energy">     15.92962387 </i>
   </energy>
  </scstep>
  <scstep>
   <time name="diag">    1.15    1.15</time>
   <time name="diis">    1.66    1.66</time>
   <time name="orth">    0.03    0.03</time>
   <time name="total">    2.85    2.85</time>
   <energy>
    <i name="e_fr_energy">    -24.67411867 </i>
    <i name="e_wo_entrp">    -24.66158446 </i>
    <i name="e_0_energy">    -24.66785157 </i>
   </energy>
  </scstep>
  <scstep>
   <time name="diag">    1.13    1.13</time>
   <time name="diis">    1.69    1.69</time>
   <time name="orth">    0.04    0.04</time>
   <time name="total">    2.87    2.87</time>
   <energy>
    <i name="e_fr_energy">    -37.34775548 </i>
    <i name="e_wo_entrp">    -37.34128682 </i>
    <i name="e_0_energy">    -37.34452115 </i>
   </energy>
  </scstep>
  <scstep>
   <time name="diag">    1.13    1.13</time>
   <time name="diis">    1.86    1.86</time>
   <time name="orth">    0.03    0.03</time>
   <time name="total">    3.03    3.03</time>
   <energy>
    <i name="e_fr_energy">    -41.82850237 </i>
    <i name="e_wo_entrp">    -41.82762450 </i>
    <i name="e_0_energy">    -41.82806343 </i>
   </energy>
  </scstep>
  <scstep>
   <time name="diag">    1.01    1.01</time>
   <time name="diis">    1.81    1.81</time>
   <time name="orth">    0.03    0.03</time>
   <time name="total">    2.86    2.86</time>
   <energy>
    <i name="e_fr_energy">    -43.23630817 </i>
    <i name="e_wo_entrp">    -43.23629971 </i>
    <i name="e_0_energy">    -43.23630394 </i>
   </energy>
  </scstep>
  <scstep>
   <time name="diag">    1.01    1.01</time>
   <time name="diis">    1.94    1.94</time>
   <time name="orth">    0.03    0.03</time>
   <time name="total">    3.00    3.00</time>
   <energy>
    <i name="e_fr_energy">    -43.74280419 </i>
    <i name="e_wo_entrp">    -43.74280418 </i>
    <i name="e_0_energy">    -43.74280419 </i>
   </energy>
  </scstep>
  <scstep>
   <time name="diag">    1.12    1.12</time>
   <time name="diis">    1.81    1.81</time>
   <time name="orth">    0.04    0.04</time>
   <time name="total">    2.97    2.97</time>
   <energy>
    <i name="e_fr_energy">    -43.93527935 </i>
    <i name="e_wo_entrp">    -43.93527935 </i>
    <i name="e_0_energy">    -43.93527935 </i>
   </energy>
  </scstep>
  <scstep>
   <time name="diag">    1.04    1.04</time>
   <time name="diis">    3.86    3.86</time>
   <time name="orth">    0.03    0.03</time>
   <time name="total">    4.94    4.94</time>
   <energy>
    <i name="e_fr_energy">    -44.05675251 </i>
    <i name="e_wo_entrp">    -44.05675251 </i>
    <i name="e_0_energy">    -44.05675251 </i>
   </energy>
  </scstep>
  <scstep>
   <time name="diag">    1.04    1.04</time>
   <time name="diis">    4.31    4.31</time>
   <time name="orth">    0.03    0.03</time>
   <time name="total">    5.39    5.39</time>
   <energy>
    <i name="e_fr_energy">    -44.07125869 </i>
    <i name="e_wo_entrp">    -44.07125869 </i>
    <i name="e_0_energy">    -44.07125869 </i>
   </energy>
  </scstep>
  <scstep>
   <time name="diag">    1.09    1.09</time>
   <time name="diis">    3.89    3.89</time>
   <time name="orth">    0.03    0.03</time>
   <time name="total">    5.02    5.02</time>
   <energy>
    <i name="e_fr_energy">    -44.07212688 </i>
    <i name="e_wo_entrp">    -44.07212688 </i>
    <i name="e_0_energy">    -44.07212688 </i>
   </energy>
  </scstep>
  <scstep>
   <time name="diag">    0.99    0.99</time>
   <time name="diis">    4.24    4.24</time>
   <time name="orth">    0.04    0.04</time>
   <time name="total">    5.57    5.57</time>
   <energy>
    <i name="e_fr_energy">    -44.07218376 </i>
    <i name="e_wo_entrp">    -44.07218376 </i>
    <i name="e_0_energy">    -44.07218376 </i>
   </energy>
  </scstep>
  <scstep>
   <time name="diag">    0.99    0.99</time>
   <time name="diis">    3.33    3.33</time>
   <time name="orth">    0.03    0.03</time>
   <time name="total">    4.64    4.64</time>
   <energy>
    <i name="e_fr_energy">    -43.60870462 </i>
    <i name="e_wo_entrp">    -43.60870462 </i>
    <i name="e_0_energy">    -43.60870462 </i>
   </energy>
  </scstep>
  <scstep>
   <time name="diag">    1.06    1.06</time>
   <time name="diis">    3.30    3.30</time>
   <time name="orth">    0.03    0.03</time>
   <time name="total">    4.65    4.65</time>
   <energy>
    <i name="e_fr_energy">    -43.39555725 </i>
    <i name="e_wo_entrp">    -43.39555691 </i>
    <i name="e_0_energy">    -43.39555708 </i>
   </energy>
  </scstep>
  <scstep>
   <time name="diag">    0.98    0.98</time>
   <time name="diis">    3.62    3.62</time>
   <time name="orth">    0.03    0.03</time>
   <time name="total">    4.89    4.89</time>
   <energy>
    <i name="e_fr_energy">    -43.39891383 </i>
    <i name="e_wo_entrp">    -43.39891368 </i>
    <i name="e_0_energy">    -43.39891376 </i>
   </energy>
  </scstep>
  <scstep>
   <time name="diag">    0.98    0.98</time>
   <time name="diis">    3.70    3.70</time>
   <time name="orth">    0.03    0.03</time>
   <time name="total">    4.98    4.98</time>
   <energy>
    <i name="e_fr_energy">    -43.39982241 </i>
    <i name="e_wo_entrp">    -43.39982228 </i>
    <i name="e_0_energy">    -43.39982234 </i>
   </energy>
  </scstep>
  <scstep>
   <time name="diag">    1.02    1.02</time>
   <time name="diis">    3.91    3.91</time>
   <time name="orth">    0.03    0.03</time>
   <time name="total">    5.24    5.24</time>
   <energy>
    <i name="e_fr_energy">    -43.39994341 </i>
    <i name="e_wo_entrp">    -43.39994329 </i>
    <i name="e_0_energy">    -43.39994335 </i>
   </energy>
  </scstep>
  <scstep>
   <time name="diag">    1.04    1.04</time>
   <time name="diis">    4.08    4.08</time>
   <time name="orth">    0.03    0.03</time>
   <time name="total">    5.40    5.40</time>
   <energy>
    <i name="e_fr_energy">    -43.39994686 </i>
    <i name="e_wo_entrp">    -43.39994673 </i>
    <i name="e_0_energy">    -43.39994679 </i>
   </energy>
  </scstep>
  <scstep>
   <time name="diag">    0.98    0.98</time>
   <time name="diis">    3.22    3.22</time>
   <time name="orth">    0.03    0.03</time>
   <time name="total">    4.26    4.26</time>
   <energy>
    <i name="alphaZ">     13.17270701 </i>
    <i name="ewald">   -907.77902387 </i>
    <i name="hartreedc">    -60.68488325 </i>
    <i name="XCdc">    -72.24547351 </i>
    <i name="pawpsdc">   3316.57456055 </i>
    <i name="pawaedc">  -3176.64918338 </i>
    <i name="eentropy">     -0.00000012 </i>
    <i name="bandstr">     19.67887369 </i>
    <i name="atom">    824.53247641 </i>
    <i name="e_fr_energy">    -43.39994647 </i>
    <i name="e_wo_entrp">    -43.39994635 </i>
    <i name="e_0_energy">    -43.39994641 </i>
   </energy>
  </scstep>
  <structure>
   <crystal>
    <varray name="basis" >
     <v>       5.46873000       0.00000000       0.00000000 </v>
     <v>       0.00000000       5.46873000       0.00000000 </v>
     <v>       0.00000000       0.00000000       5.46873000 </v>
    </varray>
    <i name="volume">    163.55335084 </i>
    <varray name="rec_basis" >
     <v>       0.18285781       0.00000000       0.00000000 </v>
     <v>       0.00000000       0.18285781       0.00000000 </v>
     <v>       0.00000000       0.00000000       0.18285781 </v>
    </varray>
   </crystal>
   <varray name="positions" >
    <v>       0.50020754       0.49996434       0.00017020 </v>
    <v>       0.49983269       0.99977143       0.50029714 </v>
    <v>       0.00026171       0.50007223       0.49979794 </v>
    <v>       0.99994514       0.99980068       0.99953188 </v>
    <v>       0.24983131       0.25032320       0.75032046 </v>
    <v>       0.24976000       0.75011566       0.24989531 </v>
    <v>       0.75008091       0.24994469       0.24997760 </v>
    <v>       0.75007909       0.75000594       0.75000594 </v>
   </varray>
  </structure>
  <varray name="forces" >
   <v>      -0.00839912       0.01050916       0.00321496 </v>
   <v>      -0.00175377       0.02733158      -0.01209295 </v>
   <v>      -0.02086958      -0.00382080       0.00860145 </v>
   <v>      -0.00427121       0.02152812       0.02894271 </v>
   <v>       0.02022583      -0.01398919      -0.02024409 </v>
   <v>       0.02321977      -0.00045372      -0.00469211 </v>
   <v>      -0.00135998      -0.02036157       0.01091301 </v>
   <v>      -0.00679195      -0.02074357      -0.01464297 </v>
  </varray>
  <varray name="stress" >
   <v>       0.01451750       0.19640352       0.37739206 </v>
   <v>       0.19640358       0.01454644      -0.23857342 </v>
   <v>       0.37739201      -0.23857338       0.01381762 </v>
  </varray>
  <energy>
   <i name="e_fr_energy">    -43.39994647 </i>
   <i name="e_wo_entrp">    -43.39994641 </i>
   <i name="e_0_energy">     -0.00000012 </i>
  </energy>
  <time name="totalsc">   82.47   82.47</time>
  <eigenvalues>
   <array>
    <dimension dim="1">band</dimension>
    <dimension dim="2">kpoint</dimension>
    <dimension dim="3">spin</dimension>
    <field>eigene</field>
    <field>occ</field>
    <set>
     <set comment="spin 1">
      <set comment="kpoint 1">
       <r>   -6.1987    1.0000 </r>
       <r>   -2.1370    1.0000 </r>
       <r>   -2.1337    1.0000 </r>
       <r>   -2.1320    1.0000 </r>
       <r>   -2.1283    1.0000 </r>
       <r>   -2.1268    1.0000 </r>
       <r>   -2.1239    1.0000 </r>
       <r>    2.8190    1.0000 </r>
       <r>    2.8202    1.0000 </r>
       <r>    2.8209    1.0000 </r>
       <r>    2.8226    1.0000 </r>
       <r>    2.8236    1.0000 </r>
       <r>    2.8247    1.0000 </r>
       <r>    5.6106    1.0000 </r>
       <r>    5.6135    1.0000 </r>
       <r>    5.6232    1.0000 </r>
       <r>    6.3619    0.0000 </r>
       <r>    6.3650    0.0000 </r>
       <r>    6.3683    0.0000 </r>
       <r>    6.3702    0.0000 </r>
       <r>    6.3726    0.0000 </r>
       <r>    8.1693    0.0000 </r>
       <r>    8.1751    0.0000 </r>
       <r>    8.7447    0.0000 </r>
      </set>
      <set comment="kpoint 2">
       <r>   -6.1111    1.0000 </r>
       <r>   -3.1589    1.0000 </r>
       <r>   -2.1087    1.0000 </r>
       <r>   -2.1056    1.0000 </r>
       <r>   -2.1014    1.0000 </r>
       <r>   -2.0973    1.0000 </r>
       <r>   -0.9974    1.0000 </r>
       <r>    2.5913    1.0000 </r>
       <r>    2.5931    1.0000 </r>
       <r>    2.5949    1.0000 </r>
       <r>    2.5968    1.0000 </r>
       <r>    2.8998    1.0000 </r>
       <r>    2.9022    1.0000 </r>
       <r>    5.0701    1.0000 </r>
       <r>    5.2908    1.0000 </r>
       <r>    5.2962    1.0000 </r>
       <r>    6.2278    0.0000 </r>
       <r>    6.7445    0.0000 </r>
       <r>    6.8141    0.0000 </r>
       <r>    6.8179    0.0000 </r>
       <r>    6.8199    0.0000 </r>
       <r>    6.8238    0.0000 </r>
       <r>    7.9699    0.0000 </r>
       <r>    8.6045    0.0000 </r>
      </set>
      <set comment="kpoint 3">
       <r>   -5.8489    1.0000 </r>
       <r>   -4.0600    1.0000 </r>
       <r>   -2.0449    1.0000 </r>
       <r>   -2.0411    1.0000 </r>
       <r>   -2.0378    1.0000 </r>
       <r>   -2.0330    1.0000 </r>
       <r>    0.2114    1.0000 </r>
       <r>    2.1729    1.0000 </r>
       <r>    2.1748    1.0000 </r>
       <r>    2.1765    1.0000 </r>
       <r>    2.1784    1.0000 </r>
       <r>    3.1354    1.0000 </r>
       <r>    3.1379    1.0000 </r>
       <r>    3.9675    1.0000 </r>
       <r>    4.6643    1.0000 </r>
       <r>    4.6683    1.0000 </r>
       <r>    6.3048    0.0000 </r>
       <r>    7.3726    0.0000 </r>
       <r>    7.5039    0.0000 </r>
       <r>    7.9120    0.0000 </r>
       <r>    7.9163    0.0000 </r>
       <r>    7.9179    0.0000 </r>
       <r>    7.9221    0.0000 </r>
       <r>    9.5543    0.0000 </r>
      </set>
      <set comment="kpoint 4">
       <r>   -5.4155    1.0000 </r>
       <r>   -4.8164    1.0000 </r>
       <r>   -1.9899    1.0000 </r>
       <r>   -1.9852    1.0000 </r>
       <r>   -1.9834    1.0000 </r>
       <r>   -1.9777    1.0000 </r>
       <r>    1.4644    1.0000 </r>
       <r>    1.8909    1.0000 </r>
       <r>    1.8926    1.0000 </r>
       <r>    1.8943    1.0000 </r>
       <r>    1.8962    1.0000 </r>
       <r>    2.7297    1.0000 </r>
       <r>    3.5209    1.0000 </r>
       <r>    3.5236    1.0000 </r>
       <r>    4.0419    1.0000 </r>
       <r>    4.0451    1.0000 </r>
       <r>    6.5728    0.0000 </r>
       <r>    6.9945    0.0000 </r>
       <r>    8.2441    0.0000 </r>
       <r>    9.2724    0.0000 </r>
       <r>    9.3316    0.0000 </r>
       <r>    9.3361    0.0000 </r>
       <r>    9.3379    0.0000 </r>
       <r>    9.3422    0.0000 </r>
      </set>
      <set comment="kpoint 5">
       <r>   -6.1111    1.0000 </r>
       <r>   -3.1589    1.0000 </r>
       <r>   -2.1074    1.0000 </r>
       <r>   -2.1038    1.0000 </r>
       <r>   -2.1018    1.0000 </r>
       <r>   -2.1000    1.0000 </r>
       <r>   -0.9973    1.0000 </r>
       <r>    2.5922    1.0000 </r>
       <r>    2.5934    1.0000 </r>
       <r>    2.5948    1.0000 </r>
       <r>    2.5956    1.0000 </r>
       <r>    2.8992    1.0000 </r>
       <r>    2.9029    1.0000 </r>
       <r>    5.0702    1.0000 </r>
       <r>    5.2893    1.0000 </r>
       <r>    5.2976    1.0000 </r>
       <r>    6.2277    0.0000 </r>
       <r>    6.7445    0.0000 </r>
       <r>    6.8153    0.0000 </r>
       <r>    6.8188    0.0000 </r>
       <r>    6.8193    0.0000 </r>
       <r>    6.8224    0.0000 </r>
       <r>    7.9699    0.0000 </r>
       <r>    8.6041    0.0000 </r>
      </set>
      <set comment="kpoint 6">
       <r>   -6.0239    1.0000 </r>
       <r>   -3.1089    1.0000 </r>
       <r>   -3.1046    1.0000 </r>
       <r>   -2.2271    1.0000 </r>
       <r>   -1.9415    1.0000 </r>
       <r>   -1.0146    1.0000 </r>
       <r>   -1.0122    1.0000 </r>
       <r>    2.0305    1.0000 </r>
       <r>    2.6224    1.0000 </r>
       <r>    2.6237    1.0000 </r>
       <r>    2.7461    1.0000 </r>
       <r>    2.7505    1.0000 </r>
       <r>    2.9622    1.0000 </r>
       <r>    4.3355    1.0000 </r>
       <r>    4.9690    1.0000 </r>
       <r>    5.5343    1.0000 </r>
       <r>    6.5296    0.0000 </r>
       <r>    6.7037    0.0000 </r>
       <r>    6.7065    0.0000 </r>
       <r>    7.1560    0.0000 </r>
       <r>    7.1628    0.0000 </r>
       <r>    7.7638    0.0000 </r>
       <r>    8.3879    0.0000 </r>
       <r>    8.4510    0.0000 </r>
      </set>
      <set comment="kpoint 7">
       <r>   -5.7635    1.0000 </r>
       <r>   -3.9928    1.0000 </r>
       <r>   -2.9604    1.0000 </r>
       <r>   -2.3575    1.0000 </r>
       <r>   -1.7248    1.0000 </r>
       <r>   -1.0831    1.0000 </r>
       <r>    0.1205    1.0000 </r>
       <r>    1.6050    1.0000 </r>
       <r>    2.0957    1.0000 </r>
       <r>    2.4997    1.0000 </r>
       <r>    2.8273    1.0000 </r>
       <r>    2.8737    1.0000 </r>
       <r>    3.0935    1.0000 </r>
       <r>    3.3646    1.0000 </r>
       <r>    4.3365    1.0000 </r>
       <r>    5.0872    1.0000 </r>
       <r>    6.7964    0.0000 </r>
       <r>    7.1317    0.0000 </r>
       <r>    7.7424    0.0000 </r>
       <r>    7.8347    0.0000 </r>
       <r>    7.9661    0.0000 </r>
       <r>    8.2045    0.0000 </r>
       <r>    8.9425    0.0000 </r>
       <r>    9.0783    0.0000 </r>
      </set>
      <set comment="kpoint 8">
       <r>   -5.3334    1.0000 </r>
       <r>   -4.7400    1.0000 </r>
       <r>   -2.7525    1.0000 </r>
       <r>   -2.5336    1.0000 </r>
       <r>   -1.4746    1.0000 </r>
       <r>   -1.2395    1.0000 </r>
       <r>    1.2504    1.0000 </r>
       <r>    1.4726    1.0000 </r>
       <r>    1.6600    1.0000 </r>
       <r>    2.3339    1.0000 </r>
       <r>    2.4241    1.0000 </r>
       <r>    2.5909    1.0000 </r>
       <r>    3.1959    1.0000 </r>
       <r>    3.6301    1.0000 </r>
       <r>    3.7116    1.0000 </r>
       <r>    4.3349    1.0000 </r>
       <r>    7.0669    0.0000 </r>
       <r>    7.4784    0.0000 </r>
       <r>    8.3569    0.0000 </r>
       <r>    8.5624    0.0000 </r>
       <r>    9.2840    0.0000 </r>
       <r>    9.4365    0.0000 </r>
       <r>    9.4932    0.0000 </r>
       <r>   10.1568    0.0000 </r>
      </set>
      <set comment="kpoint 9">
       <r>   -5.3336    1.0000 </r>
       <r>   -4.7398    1.0000 </r>
       <r>   -2.7508    1.0000 </r>
       <r>   -2.5360    1.0000 </r>
       <r>   -1.4713    1.0000 </r>
       <r>   -1.2424    1.0000 </r>
       <r>    1.2480    1.0000 </r>
       <r>    1.4738    1.0000 </r>
       <r>    1.6594    1.0000 </r>
       <r>    2.3370    1.0000 </r>
       <r>    2.4261    1.0000 </r>
       <r>    2.5887    1.0000 </r>
       <r>    3.1963    1.0000 </r>
       <r>    3.6325    1.0000 </r>
       <r>    3.7112    1.0000 </r>
       <r>    4.3316    1.0000 </r>
       <r>    7.0662    0.0000 </r>
       <r>    7.4791    0.0000 </r>
       <r>    8.3541    0.0000 </r>
       <r>    8.5621    0.0000 </r>
       <r>    9.2828    0.0000 </r>
       <r>    9.4359    0.0000 </r>
       <r>    9.4949    0.0000 </r>
       <r>   10.1595    0.0000 </r>
      </set>
      <set comment="kpoint 10">
       <r>   -5.7636    1.0000 </r>
       <r>   -3.9925    1.0000 </r>
       <r>   -2.9593    1.0000 </r>
       <r>   -2.3605    1.0000 </r>
       <r>   -1.7214    1.0000 </r>
       <r>   -1.0852    1.0000 </r>
       <r>    0.1189    1.0000 </r>
       <r>    1.6067    1.0000 </r>
       <r>    2.0955    1.0000 </r>
       <r>    2.5012    1.0000 </r>
       <r>    2.8275    1.0000 </r>
       <r>    2.8717    1.0000 </r>
       <r>    3.0950    1.0000 </r>
       <r>    3.3683    1.0000 </r>
       <r>    4.3360    1.0000 </r>
       <r>    5.0829    1.0000 </r>
       <r>    6.7958    0.0000 </r>
       <r>    7.1290    0.0000 </r>
       <r>    7.7423    0.0000 </r>
       <r>    7.8340    0.0000 </r>
       <r>    7.9669    0.0000 </r>
       <r>    8.2050    0.0000 </r>
       <r>    8.9372    0.0000 </r>
       <r>    9.0753    0.0000 </r>
      </set>
      <set comment="kpoint 11">
       <r>   -6.0239    1.0000 </r>
       <r>   -3.1072    1.0000 </r>
       <r>   -3.1053    1.0000 </r>
       <r>   -2.2305    1.0000 </r>
       <r>   -1.9380    1.0000 </r>
       <r>   -1.0156    1.0000 </r>
       <r>   -1.0134    1.0000 </r>
       <r>    2.0324    1.0000 </r>
       <r>    2.6229    1.0000 </r>
       <r>    2.6232    1.0000 </r>
       <r>    2.7485    1.0000 </r>
       <r>    2.7497    1.0000 </r>
       <r>    2.9603    1.0000 </r>
       <r>    4.3397    1.0000 </r>
       <r>    4.9687    1.0000 </r>
       <r>    5.5292    1.0000 </r>
       <r>    6.5268    0.0000 </r>
       <r>    6.7037    0.0000 </r>
       <r>    6.7054    0.0000 </r>
       <r>    7.1594    0.0000 </r>
       <r>    7.1599    0.0000 </r>
       <r>    7.7664    0.0000 </r>
       <r>    8.3764    0.0000 </r>
       <r>    8.4590    0.0000 </r>
      </set>
      <set comment="kpoint 12">
       <r>   -5.8489    1.0000 </r>
       <r>   -4.0600    1.0000 </r>
       <r>   -2.0435    1.0000 </r>
       <r>   -2.0396    1.0000 </r>
       <r>   -2.0379    1.0000 </r>
       <r>   -2.0358    1.0000 </r>
       <r>    0.2114    1.0000 </r>
       <r>    2.1740    1.0000 </r>
       <r>    2.1748    1.0000 </r>
       <r>    2.1765    1.0000 </r>
       <r>    2.1773    1.0000 </r>
       <r>    3.1347    1.0000 </r>
       <r>    3.1386    1.0000 </r>
       <r>    3.9675    1.0000 </r>
       <r>    4.6632    1.0000 </r>
       <r>    4.6694    1.0000 </r>
       <r>    6.3048    0.0000 </r>
       <r>    7.3726    0.0000 </r>
       <r>    7.5038    0.0000 </r>
       <r>    7.9138    0.0000 </r>
       <r>    7.9167    0.0000 </r>
       <r>    7.9174    0.0000 </r>
       <r>    7.9204    0.0000 </r>
       <r>    9.5500    0.0000 </r>
      </set>
      <set comment="kpoint 13">
       <r>   -5.7635    1.0000 </r>
       <r>   -3.9928    1.0000 </r>
       <r>   -2.9604    1.0000 </r>
       <r>   -2.3575    1.0000 </r>
       <r>   -1.7248    1.0000 </r>
       <r>   -1.0831    1.0000 </r>
       <r>    0.1205    1.0000 </r>
       <r>    1.6050    1.0000 </r>
       <r>    2.0957    1.0000 </r>
       <r>    2.4997    1.0000 </r>
       <r>    2.8273    1.0000 </r>
       <r>    2.8737    1.0000 </r>
       <r>    3.0935    1.0000 </r>
       <r>    3.3646    1.0000 </r>
       <r>    4.3365    1.0000 </r>
       <r>    5.0872    1.0000 </r>
       <r>    6.7964    0.0000 </r>
       <r>    7.1317    0.0000 </r>
       <r>    7.7424    0.0000 </r>
       <r>    7.8347    0.0000 </r>
       <r>    7.9660    0.0000 </r>
       <r>    8.2045    0.0000 </r>
       <r>    8.9389    0.0000 </r>
       <r>    9.0684    0.0000 </r>
      </set>
      <set comment="kpoint 14">
       <r>   -5.5088    1.0000 </r>
       <r>   -3.7992    1.0000 </r>
       <r>   -3.7946    1.0000 </r>
       <r>   -2.7187    1.0000 </r>
       <r>   -1.3721    1.0000 </r>
       <r>   -0.1463    1.0000 </r>
       <r>   -0.1459    1.0000 </r>
       <r>    1.3252    1.0000 </r>
       <r>    2.2333    1.0000 </r>
       <r>    2.2363    1.0000 </r>
       <r>    2.4911    1.0000 </r>
       <r>    3.0753    1.0000 </r>
       <r>    3.0823    1.0000 </r>
       <r>    3.3643    1.0000 </r>
       <r>    3.6952    1.0000 </r>
       <r>    5.2255    1.0000 </r>
       <r>    6.9934    0.0000 </r>
       <r>    7.9353    0.0000 </r>
       <r>    7.9367    0.0000 </r>
       <r>    8.6077    0.0000 </r>
       <r>    8.7108    0.0000 </r>
       <r>    8.7177    0.0000 </r>
       <r>    8.8924    0.0000 </r>
       <r>    9.1414    0.0000 </r>
      </set>
      <set comment="kpoint 15">
       <r>   -5.0894    1.0000 </r>
       <r>   -4.5143    1.0000 </r>
       <r>   -3.4919    1.0000 </r>
       <r>   -3.1133    1.0000 </r>
       <r>   -0.9693    1.0000 </r>
       <r>   -0.5367    1.0000 </r>
       <r>    0.7479    1.0000 </r>
       <r>    1.3719    1.0000 </r>
       <r>    1.6146    1.0000 </r>
       <r>    1.7025    1.0000 </r>
       <r>    2.5682    1.0000 </r>
       <r>    3.0696    1.0000 </r>
       <r>    3.2041    1.0000 </r>
       <r>    3.3945    1.0000 </r>
       <r>    3.8631    1.0000 </r>
       <r>    4.6945    1.0000 </r>
       <r>    7.7158    0.0000 </r>
       <r>    8.1950    0.0000 </r>
       <r>    8.5697    0.0000 </r>
       <r>    8.9468    0.0000 </r>
       <r>    9.0121    0.0000 </r>
       <r>    9.3817    0.0000 </r>
       <r>    9.4321    0.0000 </r>
       <r>   10.2462    0.0000 </r>
      </set>
      <set comment="kpoint 16">
       <r>   -5.0897    1.0000 </r>
       <r>   -4.5138    1.0000 </r>
       <r>   -3.4907    1.0000 </r>
       <r>   -3.1151    1.0000 </r>
       <r>   -0.9658    1.0000 </r>
       <r>   -0.5400    1.0000 </r>
       <r>    0.7446    1.0000 </r>
       <r>    1.3726    1.0000 </r>
       <r>    1.6182    1.0000 </r>
       <r>    1.7024    1.0000 </r>
       <r>    2.5686    1.0000 </r>
       <r>    3.0691    1.0000 </r>
       <r>    3.2067    1.0000 </r>
       <r>    3.3920    1.0000 </r>
       <r>    3.8662    1.0000 </r>
       <r>    4.6907    1.0000 </r>
       <r>    7.7129    0.0000 </r>
       <r>    8.1940    0.0000 </r>
       <r>    8.5709    0.0000 </r>
       <r>    8.9447    0.0000 </r>
       <r>    9.0152    0.0000 </r>
       <r>    9.3803    0.0000 </r>
       <r>    9.4303    0.0000 </r>
       <r>    9.7257    0.0000 </r>
      </set>
      <set comment="kpoint 17">
       <r>   -5.5090    1.0000 </r>
       <r>   -3.7971    1.0000 </r>
       <r>   -3.7953    1.0000 </r>
       <r>   -2.7211    1.0000 </r>
       <r>   -1.3686    1.0000 </r>
       <r>   -0.1502    1.0000 </r>
       <r>   -0.1476    1.0000 </r>
       <r>    1.3264    1.0000 </r>
       <r>    2.2346    1.0000 </r>
       <r>    2.2353    1.0000 </r>
       <r>    2.4948    1.0000 </r>
       <r>    3.0805    1.0000 </r>
       <r>    3.0818    1.0000 </r>
       <r>    3.3620    1.0000 </r>
       <r>    3.6946    1.0000 </r>
       <r>    5.2210    1.0000 </r>
       <r>    6.9906    0.0000 </r>
       <r>    7.9340    0.0000 </r>
       <r>    7.9362    0.0000 </r>
       <r>    8.6062    0.0000 </r>
       <r>    8.7142    0.0000 </r>
       <r>    8.7149    0.0000 </r>
       <r>    8.8954    0.0000 </r>
       <r>    9.1395    0.0000 </r>
      </set>
      <set comment="kpoint 18">
       <r>   -5.7636    1.0000 </r>
       <r>   -3.9925    1.0000 </r>
       <r>   -2.9593    1.0000 </r>
       <r>   -2.3605    1.0000 </r>
       <r>   -1.7214    1.0000 </r>
       <r>   -1.0852    1.0000 </r>
       <r>    0.1189    1.0000 </r>
       <r>    1.6067    1.0000 </r>
       <r>    2.0955    1.0000 </r>
       <r>    2.5012    1.0000 </r>
       <r>    2.8274    1.0000 </r>
       <r>    2.8717    1.0000 </r>
       <r>    3.0950    1.0000 </r>
       <r>    3.3683    1.0000 </r>
       <r>    4.3360    1.0000 </r>
       <r>    5.0829    1.0000 </r>
       <r>    6.7958    0.0000 </r>
       <r>    7.1290    0.0000 </r>
       <r>    7.7424    0.0000 </r>
       <r>    7.8340    0.0000 </r>
       <r>    7.9669    0.0000 </r>
       <r>    8.2050    0.0000 </r>
       <r>    8.9373    0.0000 </r>
       <r>    9.0709    0.0000 </r>
      </set>
      <set comment="kpoint 19">
       <r>   -5.4155    1.0000 </r>
       <r>   -4.8164    1.0000 </r>
       <r>   -1.9885    1.0000 </r>
       <r>   -1.9842    1.0000 </r>
       <r>   -1.9831    1.0000 </r>
       <r>   -1.9805    1.0000 </r>
       <r>    1.4644    1.0000 </r>
       <r>    1.8918    1.0000 </r>
       <r>    1.8927    1.0000 </r>
       <r>    1.8944    1.0000 </r>
       <r>    1.8951    1.0000 </r>
       <r>    2.7297    1.0000 </r>
       <r>    3.5201    1.0000 </r>
       <r>    3.5244    1.0000 </r>
       <r>    4.0410    1.0000 </r>
       <r>    4.0460    1.0000 </r>
       <r>    6.5728    0.0000 </r>
       <r>    6.9945    0.0000 </r>
       <r>    8.2441    0.0000 </r>
       <r>    9.2738    0.0000 </r>
       <r>    9.3338    0.0000 </r>
       <r>    9.3373    0.0000 </r>
       <r>    9.3382    0.0000 </r>
       <r>   10.9415    0.0000 </r>
      </set>
      <set comment="kpoint 20">
       <r>   -5.3334    1.0000 </r>
       <r>   -4.7400    1.0000 </r>
       <r>   -2.7525    1.0000 </r>
       <r>   -2.5336    1.0000 </r>
       <r>   -1.4746    1.0000 </r>
       <r>   -1.2395    1.0000 </r>
       <r>    1.2504    1.0000 </r>
       <r>    1.4726    1.0000 </r>
       <r>    1.6600    1.0000 </r>
       <r>    2.3339    1.0000 </r>
       <r>    2.4241    1.0000 </r>
       <r>    2.5909    1.0000 </r>
       <r>    3.1959    1.0000 </r>
       <r>    3.6302    1.0000 </r>
       <r>    3.7116    1.0000 </r>
       <r>    4.3349    1.0000 </r>
       <r>    7.0669    0.0000 </r>
       <r>    7.4784    0.0000 </r>
       <r>    8.3569    0.0000 </r>
       <r>    8.5624    0.0000 </r>
       <r>    9.2839    0.0000 </r>
       <r>    9.4349    0.0000 </r>
       <r>    9.4927    0.0000 </r>
       <r>   10.1576    0.0000 </r>
      </set>
      <set comment="kpoint 21">
       <r>   -5.0894    1.0000 </r>
       <r>   -4.5143    1.0000 </r>
       <r>   -3.4919    1.0000 </r>
       <r>   -3.1133    1.0000 </r>
       <r>   -0.9693    1.0000 </r>
       <r>   -0.5367    1.0000 </r>
       <r>    0.7479    1.0000 </r>
       <r>    1.3719    1.0000 </r>
       <r>    1.6145    1.0000 </r>
       <r>    1.7026    1.0000 </r>
       <r>    2.5682    1.0000 </r>
       <r>    3.0696    1.0000 </r>
       <r>    3.2041    1.0000 </r>
       <r>    3.3945    1.0000 </r>
       <r>    3.8631    1.0000 </r>
       <r>    4.6945    1.0000 </r>
       <r>    7.7158    0.0000 </r>
       <r>    8.1950    0.0000 </r>
       <r>    8.5697    0.0000 </r>
       <r>    8.9467    0.0000 </r>
       <r>    9.0121    0.0000 </r>
       <r>    9.3815    0.0000 </r>
       <r>    9.4310    0.0000 </r>
       <r>    9.7222    0.0000 </r>
      </set>
      <set comment="kpoint 22">
       <r>   -4.6904    1.0000 </r>
       <r>   -4.1529    1.0000 </r>
       <r>   -4.1482    1.0000 </r>
       <r>   -3.6701    1.0000 </r>
       <r>   -0.4310    1.0000 </r>
       <r>    0.1542    1.0000 </r>
       <r>    0.1552    1.0000 </r>
       <r>    0.8673    1.0000 </r>
       <r>    1.5597    1.0000 </r>
       <r>    1.9789    1.0000 </r>
       <r>    1.9825    1.0000 </r>
       <r>    2.4541    1.0000 </r>
       <r>    3.9709    1.0000 </r>
       <r>    4.0553    1.0000 </r>
       <r>    4.0636    1.0000 </r>
       <r>    4.6569    1.0000 </r>
       <r>    7.6852    0.0000 </r>
       <r>    8.3726    0.0000 </r>
       <r>    8.4392    0.0000 </r>
       <r>    8.4465    0.0000 </r>
       <r>    9.6071    0.0000 </r>
       <r>    9.6425    0.0000 </r>
       <r>    9.8905    0.0000 </r>
       <r>   10.8773    0.0000 </r>
      </set>
      <set comment="kpoint 23">
       <r>   -4.6909    1.0000 </r>
       <r>   -4.1506    1.0000 </r>
       <r>   -4.1488    1.0000 </r>
       <r>   -3.6714    1.0000 </r>
       <r>   -0.4275    1.0000 </r>
       <r>    0.1498    1.0000 </r>
       <r>    0.1525    1.0000 </r>
       <r>    0.8709    1.0000 </r>
       <r>    1.5598    1.0000 </r>
       <r>    1.9805    1.0000 </r>
       <r>    1.9813    1.0000 </r>
       <r>    2.4537    1.0000 </r>
       <r>    3.9682    1.0000 </r>
       <r>    4.0619    1.0000 </r>
       <r>    4.0632    1.0000 </r>
       <r>    4.6534    1.0000 </r>
       <r>    7.6822    0.0000 </r>
       <r>    8.3699    0.0000 </r>
       <r>    8.4453    0.0000 </r>
       <r>    8.4463    0.0000 </r>
       <r>    9.6052    0.0000 </r>
       <r>    9.6066    0.0000 </r>
       <r>    9.7924    0.0000 </r>
       <r>   10.6321    0.0000 </r>
      </set>
      <set comment="kpoint 24">
       <r>   -5.0897    1.0000 </r>
       <r>   -4.5138    1.0000 </r>
       <r>   -3.4907    1.0000 </r>
       <r>   -3.1151    1.0000 </r>
       <r>   -0.9658    1.0000 </r>
       <r>   -0.5400    1.0000 </r>
       <r>    0.7446    1.0000 </r>
       <r>    1.3726    1.0000 </r>
       <r>    1.6182    1.0000 </r>
       <r>    1.7023    1.0000 </r>
       <r>    2.5686    1.0000 </r>
       <r>    3.0691    1.0000 </r>
       <r>    3.2067    1.0000 </r>
       <r>    3.3920    1.0000 </r>
       <r>    3.8662    1.0000 </r>
       <r>    4.6907    1.0000 </r>
       <r>    7.7129    0.0000 </r>
       <r>    8.1940    0.0000 </r>
       <r>    8.5709    0.0000 </r>
       <r>    8.9447    0.0000 </r>
       <r>    9.0152    0.0000 </r>
       <r>    9.3803    0.0000 </r>
       <r>    9.4303    0.0000 </r>
       <r>    9.7412    0.0000 </r>
      </set>
      <set comment="kpoint 25">
       <r>   -5.3336    1.0000 </r>
       <r>   -4.7398    1.0000 </r>
       <r>   -2.7508    1.0000 </r>
       <r>   -2.5360    1.0000 </r>
       <r>   -1.4713    1.0000 </r>
       <r>   -1.2424    1.0000 </r>
       <r>    1.2480    1.0000 </r>
       <r>    1.4738    1.0000 </r>
       <r>    1.6594    1.0000 </r>
       <r>    2.3370    1.0000 </r>
       <r>    2.4261    1.0000 </r>
       <r>    2.5887    1.0000 </r>
       <r>    3.1963    1.0000 </r>
       <r>    3.6326    1.0000 </r>
       <r>    3.7111    1.0000 </r>
       <r>    4.3316    1.0000 </r>
       <r>    7.0662    0.0000 </r>
       <r>    7.4791    0.0000 </r>
       <r>    8.3541    0.0000 </r>
       <r>    8.5621    0.0000 </r>
       <r>    9.2828    0.0000 </r>
       <r>    9.4359    0.0000 </r>
       <r>    9.4948    0.0000 </r>
       <r>   10.1334    0.0000 </r>
      </set>
      <set comment="kpoint 26">
       <r>   -6.1111    1.0000 </r>
       <r>   -3.1589    1.0000 </r>
       <r>   -2.1079    1.0000 </r>
       <r>   -2.1056    1.0000 </r>
       <r>   -2.1001    1.0000 </r>
       <r>   -2.0994    1.0000 </r>
       <r>   -0.9973    1.0000 </r>
       <r>    2.5918    1.0000 </r>
       <r>    2.5928    1.0000 </r>
       <r>    2.5952    1.0000 </r>
       <r>    2.5961    1.0000 </r>
       <r>    2.9001    1.0000 </r>
       <r>    2.9020    1.0000 </r>
       <r>    5.0701    1.0000 </r>
       <r>    5.2913    1.0000 </r>
       <r>    5.2957    1.0000 </r>
       <r>    6.2278    0.0000 </r>
       <r>    6.7445    0.0000 </r>
       <r>    6.8150    0.0000 </r>
       <r>    6.8165    0.0000 </r>
       <r>    6.8215    0.0000 </r>
       <r>    6.8227    0.0000 </r>
       <r>    7.9699    0.0000 </r>
       <r>    8.6029    0.0000 </r>
      </set>
      <set comment="kpoint 27">
       <r>   -6.0239    1.0000 </r>
       <r>   -3.1080    1.0000 </r>
       <r>   -3.1060    1.0000 </r>
       <r>   -2.2256    1.0000 </r>
       <r>   -1.9431    1.0000 </r>
       <r>   -1.0137    1.0000 </r>
       <r>   -1.0121    1.0000 </r>
       <r>    2.0296    1.0000 </r>
       <r>    2.6228    1.0000 </r>
       <r>    2.6233    1.0000 </r>
       <r>    2.7470    1.0000 </r>
       <r>    2.7488    1.0000 </r>
       <r>    2.9631    1.0000 </r>
       <r>    4.3335    1.0000 </r>
       <r>    4.9693    1.0000 </r>
       <r>    5.5367    1.0000 </r>
       <r>    6.5308    0.0000 </r>
       <r>    6.7046    0.0000 </r>
       <r>    6.7060    0.0000 </r>
       <r>    7.1581    0.0000 </r>
       <r>    7.1606    0.0000 </r>
       <r>    7.7626    0.0000 </r>
       <r>    8.3505    0.0000 </r>
       <r>    8.4466    0.0000 </r>
      </set>
      <set comment="kpoint 28">
       <r>   -5.7635    1.0000 </r>
       <r>   -3.9930    1.0000 </r>
       <r>   -2.9609    1.0000 </r>
       <r>   -2.3561    1.0000 </r>
       <r>   -1.7265    1.0000 </r>
       <r>   -1.0821    1.0000 </r>
       <r>    0.1212    1.0000 </r>
       <r>    1.6042    1.0000 </r>
       <r>    2.0958    1.0000 </r>
       <r>    2.4990    1.0000 </r>
       <r>    2.8271    1.0000 </r>
       <r>    2.8747    1.0000 </r>
       <r>    3.0928    1.0000 </r>
       <r>    3.3628    1.0000 </r>
       <r>    4.3368    1.0000 </r>
       <r>    5.0893    1.0000 </r>
       <r>    6.7967    0.0000 </r>
       <r>    7.1330    0.0000 </r>
       <r>    7.7424    0.0000 </r>
       <r>    7.8351    0.0000 </r>
       <r>    7.9657    0.0000 </r>
       <r>    8.2042    0.0000 </r>
       <r>    8.9391    0.0000 </r>
       <r>    9.0684    0.0000 </r>
      </set>
      <set comment="kpoint 29">
       <r>   -5.3334    1.0000 </r>
       <r>   -4.7401    1.0000 </r>
       <r>   -2.7533    1.0000 </r>
       <r>   -2.5325    1.0000 </r>
       <r>   -1.4761    1.0000 </r>
       <r>   -1.2382    1.0000 </r>
       <r>    1.2515    1.0000 </r>
       <r>    1.4720    1.0000 </r>
       <r>    1.6604    1.0000 </r>
       <r>    2.3324    1.0000 </r>
       <r>    2.4232    1.0000 </r>
       <r>    2.5919    1.0000 </r>
       <r>    3.1957    1.0000 </r>
       <r>    3.6290    1.0000 </r>
       <r>    3.7119    1.0000 </r>
       <r>    4.3365    1.0000 </r>
       <r>    7.0672    0.0000 </r>
       <r>    7.4780    0.0000 </r>
       <r>    8.3582    0.0000 </r>
       <r>    8.5626    0.0000 </r>
       <r>    9.2856    0.0000 </r>
       <r>    9.4351    0.0000 </r>
       <r>   10.1406    0.0000 </r>
       <r>   10.1937    0.0000 </r>
      </set>
      <set comment="kpoint 30">
       <r>   -5.3337    1.0000 </r>
       <r>   -4.7397    1.0000 </r>
       <r>   -2.7500    1.0000 </r>
       <r>   -2.5371    1.0000 </r>
       <r>   -1.4697    1.0000 </r>
       <r>   -1.2438    1.0000 </r>
       <r>    1.2470    1.0000 </r>
       <r>    1.4744    1.0000 </r>
       <r>    1.6591    1.0000 </r>
       <r>    2.3385    1.0000 </r>
       <r>    2.4271    1.0000 </r>
       <r>    2.5877    1.0000 </r>
       <r>    3.1965    1.0000 </r>
       <r>    3.6336    1.0000 </r>
       <r>    3.7110    1.0000 </r>
       <r>    4.3300    1.0000 </r>
       <r>    7.0659    0.0000 </r>
       <r>    7.4794    0.0000 </r>
       <r>    8.3528    0.0000 </r>
       <r>    8.5620    0.0000 </r>
       <r>    9.2823    0.0000 </r>
       <r>    9.4364    0.0000 </r>
       <r>    9.4958    0.0000 </r>
       <r>   10.1271    0.0000 </r>
      </set>
      <set comment="kpoint 31">
       <r>   -5.7637    1.0000 </r>
       <r>   -3.9923    1.0000 </r>
       <r>   -2.9588    1.0000 </r>
       <r>   -2.3619    1.0000 </r>
       <r>   -1.7197    1.0000 </r>
       <r>   -1.0862    1.0000 </r>
       <r>    0.1181    1.0000 </r>
       <r>    1.6075    1.0000 </r>
       <r>    2.0954    1.0000 </r>
       <r>    2.5019    1.0000 </r>
       <r>    2.8276    1.0000 </r>
       <r>    2.8707    1.0000 </r>
       <r>    3.0956    1.0000 </r>
       <r>    3.3701    1.0000 </r>
       <r>    4.3357    1.0000 </r>
       <r>    5.0808    1.0000 </r>
       <r>    6.7955    0.0000 </r>
       <r>    7.1278    0.0000 </r>
       <r>    7.7424    0.0000 </r>
       <r>    7.8335    0.0000 </r>
       <r>    7.9673    0.0000 </r>
       <r>    8.2052    0.0000 </r>
       <r>    8.9524    0.0000 </r>
       <r>    9.2948    0.0000 </r>
      </set>
      <set comment="kpoint 32">
       <r>   -6.0239    1.0000 </r>
       <r>   -3.1078    1.0000 </r>
       <r>   -3.1042    1.0000 </r>
       <r>   -2.2320    1.0000 </r>
       <r>   -1.9364    1.0000 </r>
       <r>   -1.0164    1.0000 </r>
       <r>   -1.0136    1.0000 </r>
       <r>    2.0333    1.0000 </r>
       <r>    2.6226    1.0000 </r>
       <r>    2.6236    1.0000 </r>
       <r>    2.7477    1.0000 </r>
       <r>    2.7511    1.0000 </r>
       <r>    2.9593    1.0000 </r>
       <r>    4.3417    1.0000 </r>
       <r>    4.9685    1.0000 </r>
       <r>    5.5267    1.0000 </r>
       <r>    6.5256    0.0000 </r>
       <r>    6.7030    0.0000 </r>
       <r>    6.7056    0.0000 </r>
       <r>    7.1573    0.0000 </r>
       <r>    7.1622    0.0000 </r>
       <r>    7.7676    0.0000 </r>
       <r>    8.3742    0.0000 </r>
       <r>    8.4611    0.0000 </r>
      </set>
      <set comment="kpoint 33">
       <r>   -6.0239    1.0000 </r>
       <r>   -3.1089    1.0000 </r>
       <r>   -3.1034    1.0000 </r>
       <r>   -2.2309    1.0000 </r>
       <r>   -1.9376    1.0000 </r>
       <r>   -1.0178    1.0000 </r>
       <r>   -1.0115    1.0000 </r>
       <r>    2.0327    1.0000 </r>
       <r>    2.6226    1.0000 </r>
       <r>    2.6236    1.0000 </r>
       <r>    2.7472    1.0000 </r>
       <r>    2.7512    1.0000 </r>
       <r>    2.9600    1.0000 </r>
       <r>    4.3402    1.0000 </r>
       <r>    4.9686    1.0000 </r>
       <r>    5.5286    1.0000 </r>
       <r>    6.5265    0.0000 </r>
       <r>    6.7021    0.0000 </r>
       <r>    6.7069    0.0000 </r>
       <r>    7.1580    0.0000 </r>
       <r>    7.1613    0.0000 </r>
       <r>    7.7667    0.0000 </r>
       <r>    8.3922    0.0000 </r>
       <r>    8.4450    0.0000 </r>
      </set>
      <set comment="kpoint 34">
       <r>   -5.9374    1.0000 </r>
       <r>   -3.0704    1.0000 </r>
       <r>   -3.0673    1.0000 </r>
       <r>   -3.0631    1.0000 </r>
       <r>   -1.0450    1.0000 </r>
       <r>   -1.0403    1.0000 </r>
       <r>   -1.0380    1.0000 </r>
       <r>    2.1602    1.0000 </r>
       <r>    2.1626    1.0000 </r>
       <r>    2.1641    1.0000 </r>
       <r>    3.0369    1.0000 </r>
       <r>    3.0391    1.0000 </r>
       <r>    3.0402    1.0000 </r>
       <r>    3.6941    1.0000 </r>
       <r>    5.2631    1.0000 </r>
       <r>    5.2718    1.0000 </r>
       <r>    6.6100    0.0000 </r>
       <r>    6.6132    0.0000 </r>
       <r>    6.6164    0.0000 </r>
       <r>    7.9000    0.0000 </r>
       <r>    7.9039    0.0000 </r>
       <r>    7.9076    0.0000 </r>
       <r>    7.9952    0.0000 </r>
       <r>    8.6863    0.0000 </r>
      </set>
      <set comment="kpoint 35">
       <r>   -5.6790    1.0000 </r>
       <r>   -3.9311    1.0000 </r>
       <r>   -2.9702    1.0000 </r>
       <r>   -2.9656    1.0000 </r>
       <r>   -1.1263    1.0000 </r>
       <r>   -1.1214    1.0000 </r>
       <r>   -0.0109    1.0000 </r>
       <r>    1.7837    1.0000 </r>
       <r>    1.7864    1.0000 </r>
       <r>    2.5632    1.0000 </r>
       <r>    2.7866    1.0000 </r>
       <r>    2.9749    1.0000 </r>
       <r>    2.9771    1.0000 </r>
       <r>    3.2652    1.0000 </r>
       <r>    4.7090    1.0000 </r>
       <r>    4.9297    1.0000 </r>
       <r>    6.8548    0.0000 </r>
       <r>    7.2237    0.0000 </r>
       <r>    7.2273    0.0000 </r>
       <r>    8.0559    0.0000 </r>
       <r>    8.3272    0.0000 </r>
       <r>    8.6579    0.0000 </r>
       <r>    9.1775    0.0000 </r>
       <r>    9.3839    0.0000 </r>
      </set>
      <set comment="kpoint 36">
       <r>   -5.2527    1.0000 </r>
       <r>   -4.6664    1.0000 </r>
       <r>   -2.8780    1.0000 </r>
       <r>   -2.8747    1.0000 </r>
       <r>   -1.2153    1.0000 </r>
       <r>   -1.2123    1.0000 </r>
       <r>    0.9669    1.0000 </r>
       <r>    1.6308    1.0000 </r>
       <r>    1.6327    1.0000 </r>
       <r>    1.8803    1.0000 </r>
       <r>    2.7806    1.0000 </r>
       <r>    2.7825    1.0000 </r>
       <r>    3.2276    1.0000 </r>
       <r>    3.6363    1.0000 </r>
       <r>    4.0897    1.0000 </r>
       <r>    4.1311    1.0000 </r>
       <r>    7.2316    0.0000 </r>
       <r>    7.6910    0.0000 </r>
       <r>    8.4384    0.0000 </r>
       <r>    8.4432    0.0000 </r>
       <r>    9.0186    0.0000 </r>
       <r>    9.4408    0.0000 </r>
       <r>    9.9453    0.0000 </r>
       <r>    9.9528    0.0000 </r>
      </set>
      <set comment="kpoint 37">
       <r>   -5.2532    1.0000 </r>
       <r>   -4.6657    1.0000 </r>
       <r>   -2.8778    1.0000 </r>
       <r>   -2.8745    1.0000 </r>
       <r>   -1.2158    1.0000 </r>
       <r>   -1.2128    1.0000 </r>
       <r>    0.9606    1.0000 </r>
       <r>    1.6324    1.0000 </r>
       <r>    1.6341    1.0000 </r>
       <r>    1.8871    1.0000 </r>
       <r>    2.7797    1.0000 </r>
       <r>    2.7815    1.0000 </r>
       <r>    3.2347    1.0000 </r>
       <r>    3.6357    1.0000 </r>
       <r>    4.0814    1.0000 </r>
       <r>    4.1318    1.0000 </r>
       <r>    7.2311    0.0000 </r>
       <r>    7.6908    0.0000 </r>
       <r>    8.4339    0.0000 </r>
       <r>    8.4387    0.0000 </r>
       <r>    9.0172    0.0000 </r>
       <r>    9.4447    0.0000 </r>
       <r>    9.9524    0.0000 </r>
       <r>   10.0463    0.0000 </r>
      </set>
      <set comment="kpoint 38">
       <r>   -5.6793    1.0000 </r>
       <r>   -3.9300    1.0000 </r>
       <r>   -2.9699    1.0000 </r>
       <r>   -2.9653    1.0000 </r>
       <r>   -1.1275    1.0000 </r>
       <r>   -1.1226    1.0000 </r>
       <r>   -0.0158    1.0000 </r>
       <r>    1.7874    1.0000 </r>
       <r>    1.7899    1.0000 </r>
       <r>    2.5682    1.0000 </r>
       <r>    2.7932    1.0000 </r>
       <r>    2.9726    1.0000 </r>
       <r>    2.9748    1.0000 </r>
       <r>    3.2648    1.0000 </r>
       <r>    4.7099    1.0000 </r>
       <r>    4.9208    1.0000 </r>
       <r>    6.8542    0.0000 </r>
       <r>    7.2193    0.0000 </r>
       <r>    7.2230    0.0000 </r>
       <r>    8.0524    0.0000 </r>
       <r>    8.3269    0.0000 </r>
       <r>    8.6620    0.0000 </r>
       <r>    9.1829    0.0000 </r>
       <r>    9.3333    0.0000 </r>
      </set>
      <set comment="kpoint 39">
       <r>   -5.9375    1.0000 </r>
       <r>   -3.0699    1.0000 </r>
       <r>   -3.0655    1.0000 </r>
       <r>   -3.0634    1.0000 </r>
       <r>   -1.0465    1.0000 </r>
       <r>   -1.0424    1.0000 </r>
       <r>   -1.0397    1.0000 </r>
       <r>    2.1642    1.0000 </r>
       <r>    2.1660    1.0000 </r>
       <r>    2.1673    1.0000 </r>
       <r>    3.0356    1.0000 </r>
       <r>    3.0364    1.0000 </r>
       <r>    3.0379    1.0000 </r>
       <r>    3.7005    1.0000 </r>
       <r>    5.2625    1.0000 </r>
       <r>    5.2651    1.0000 </r>
       <r>    6.6083    0.0000 </r>
       <r>    6.6102    0.0000 </r>
       <r>    6.6127    0.0000 </r>
       <r>    7.9035    0.0000 </r>
       <r>    7.9058    0.0000 </r>
       <r>    7.9092    0.0000 </r>
       <r>    7.9917    0.0000 </r>
       <r>    8.6846    0.0000 </r>
      </set>
      <set comment="kpoint 40">
       <r>   -5.7636    1.0000 </r>
       <r>   -3.9924    1.0000 </r>
       <r>   -2.9592    1.0000 </r>
       <r>   -2.3609    1.0000 </r>
       <r>   -1.7210    1.0000 </r>
       <r>   -1.0855    1.0000 </r>
       <r>    0.1187    1.0000 </r>
       <r>    1.6069    1.0000 </r>
       <r>    2.0955    1.0000 </r>
       <r>    2.5014    1.0000 </r>
       <r>    2.8275    1.0000 </r>
       <r>    2.8714    1.0000 </r>
[...]
       <r>   -4.1055    1.0000 </r>
       <r>   -3.6712    1.0000 </r>
       <r>   -0.7221    1.0000 </r>
       <r>   -0.2214    1.0000 </r>
       <r>   -0.2174    1.0000 </r>
       <r>    0.4029    1.0000 </r>
       <r>    2.0364    1.0000 </r>
       <r>    2.4656    1.0000 </r>
       <r>    2.4689    1.0000 </r>
       <r>    3.0091    1.0000 </r>
       <r>    4.0171    1.0000 </r>
       <r>    4.0892    1.0000 </r>
       <r>    4.0927    1.0000 </r>
       <r>    4.6451    1.0000 </r>
       <r>    7.7481    0.0000 </r>
       <r>    8.2199    0.0000 </r>
       <r>    8.4228    0.0000 </r>
       <r>    8.4246    0.0000 </r>
       <r>    9.0643    0.0000 </r>
       <r>    9.0687    0.0000 </r>
       <r>    9.5250    0.0000 </r>
       <r>   10.5084    0.0000 </r>
      </set>
      <set comment="kpoint 170">
       <r>   -4.6254    1.0000 </r>
       <r>   -4.1069    1.0000 </r>
       <r>   -4.1030    1.0000 </r>
       <r>   -3.6743    1.0000 </r>
       <r>   -0.7140    1.0000 </r>
       <r>   -0.2263    1.0000 </r>
       <r>   -0.2236    1.0000 </r>
       <r>    0.4068    1.0000 </r>
       <r>    2.0361    1.0000 </r>
       <r>    2.4648    1.0000 </r>
       <r>    2.4669    1.0000 </r>
       <r>    3.0115    1.0000 </r>
       <r>    4.0119    1.0000 </r>
       <r>    4.0945    1.0000 </r>
       <r>    4.1004    1.0000 </r>
       <r>    4.6378    1.0000 </r>
       <r>    7.7426    0.0000 </r>
       <r>    8.2164    0.0000 </r>
       <r>    8.4250    0.0000 </r>
       <r>    8.4302    0.0000 </r>
       <r>    9.0655    0.0000 </r>
       <r>    9.0677    0.0000 </r>
       <r>    9.5172    0.0000 </r>
       <r>   11.7820    0.0000 </r>
      </set>
      <set comment="kpoint 171">
       <r>   -5.0139    1.0000 </r>
       <r>   -4.4487    1.0000 </r>
       <r>   -3.4927    1.0000 </r>
       <r>   -3.2245    1.0000 </r>
       <r>   -1.0518    1.0000 </r>
       <r>   -0.7583    1.0000 </r>
       <r>    0.3755    1.0000 </r>
       <r>    1.1288    1.0000 </r>
       <r>    1.7388    1.0000 </r>
       <r>    1.9994    1.0000 </r>
       <r>    2.9314    1.0000 </r>
       <r>    3.3450    1.0000 </r>
       <r>    3.4738    1.0000 </r>
       <r>    3.5958    1.0000 </r>
       <r>    3.8770    1.0000 </r>
       <r>    4.6035    1.0000 </r>
       <r>    7.7962    0.0000 </r>
       <r>    7.8839    0.0000 </r>
       <r>    8.2066    0.0000 </r>
       <r>    8.6768    0.0000 </r>
       <r>    8.9592    0.0000 </r>
       <r>    9.0828    0.0000 </r>
       <r>    9.7026    0.0000 </r>
       <r>   10.0041    0.0000 </r>
      </set>
      <set comment="kpoint 172">
       <r>   -5.2529    1.0000 </r>
       <r>   -4.6659    1.0000 </r>
       <r>   -2.8806    1.0000 </r>
       <r>   -2.8736    1.0000 </r>
       <r>   -1.2162    1.0000 </r>
       <r>   -1.2083    1.0000 </r>
       <r>    0.9623    1.0000 </r>
       <r>    1.6292    1.0000 </r>
       <r>    1.6322    1.0000 </r>
       <r>    1.8836    1.0000 </r>
       <r>    2.7795    1.0000 </r>
       <r>    2.7846    1.0000 </r>
       <r>    3.2298    1.0000 </r>
       <r>    3.6386    1.0000 </r>
       <r>    4.0822    1.0000 </r>
       <r>    4.1346    1.0000 </r>
       <r>    7.2334    0.0000 </r>
       <r>    7.6923    0.0000 </r>
       <r>    8.4353    0.0000 </r>
       <r>    8.4408    0.0000 </r>
       <r>    9.0159    0.0000 </r>
       <r>    9.4440    0.0000 </r>
       <r>    9.9511    0.0000 </r>
       <r>   10.1380    0.0000 </r>
      </set>
     </set>
    </set>
   </array>
  </eigenvalues>
  <separator name="orbital magnetization" >
   <v name="MAGDIPOLOUT">      0.00000000      0.00000000      0.00000000</v>
  </separator>
  <dos>
   <i name="efermi">      5.91686743 </i>
   <total>
    <array>
     <dimension dim="1">gridpoints</dimension>
     <dimension dim="2">spin</dimension>
     <field>energy</field>
     <field>total</field>
     <field>integrated</field>
     <set>
      <set comment="spin 1">
       <r>    -7.1987     0.0000     0.0000 </r>
       <r>    -7.1272     0.0000     0.0000 </r>
       <r>    -7.0557     0.0000     0.0000 </r>
       <r>    -6.9841     0.0000     0.0000 </r>
       <r>    -6.9126     0.0000     0.0000 </r>
       <r>    -6.8411     0.0000     0.0000 </r>
       <r>    -6.7695     0.0000     0.0000 </r>
       <r>    -6.6980     0.0000     0.0000 </r>
       <r>    -6.6265     0.0000     0.0000 </r>
       <r>    -6.5549     0.0000     0.0000 </r>
       <r>    -6.4834     0.0000     0.0000 </r>
       <r>    -6.4119     0.0001     0.0000 </r>
       <r>    -6.3403     0.0020     0.0002 </r>
       <r>    -6.2688     0.0175     0.0014 </r>
       <r>    -6.1973     0.0833     0.0074 </r>
       <r>    -6.1257     0.2464     0.0250 </r>
       <r>    -6.0542     0.4764     0.0591 </r>
       <r>    -5.9827     0.6186     0.1033 </r>
       <r>    -5.9111     0.5994     0.1462 </r>
       <r>    -5.8396     0.6673     0.1939 </r>
       <r>    -5.7681     1.0438     0.2686 </r>
       <r>    -5.6965     1.3394     0.3644 </r>
       <r>    -5.6250     1.0794     0.4416 </r>
       <r>    -5.5535     0.6978     0.4915 </r>
       <r>    -5.4819     0.9119     0.5568 </r>
       <r>    -5.4104     1.4357     0.6595 </r>
       <r>    -5.3389     1.6730     0.7791 </r>
       <r>    -5.2673     1.6284     0.8956 </r>
       <r>    -5.1958     1.3927     0.9952 </r>
       <r>    -5.1243     1.3209     1.0897 </r>
       <r>    -5.0528     1.8367     1.2211 </r>
       <r>    -4.9812     2.0149     1.3652 </r>
       <r>    -4.9097     1.2424     1.4541 </r>
       <r>    -4.8382     0.9828     1.5244 </r>
       <r>    -4.7666     1.7874     1.6523 </r>
       <r>    -4.6951     2.5145     1.8321 </r>
       <r>    -4.6236     2.5124     2.0119 </r>
       <r>    -4.5520     2.1644     2.1667 </r>
       <r>    -4.4805     2.5772     2.3510 </r>
       <r>    -4.4090     2.8391     2.5541 </r>
       <r>    -4.3374     1.7971     2.6827 </r>
       <r>    -4.2659     1.2032     2.7688 </r>
       <r>    -4.1944     1.7025     2.8905 </r>
       <r>    -4.1228     2.7222     3.0853 </r>
       <r>    -4.0513     3.4857     3.3346 </r>
       <r>    -3.9798     3.8201     3.6079 </r>
       <r>    -3.9082     3.5076     3.8588 </r>
       <r>    -3.8367     2.8611     4.0634 </r>
       <r>    -3.7652     3.3166     4.3007 </r>
       <r>    -3.6936     4.0889     4.5932 </r>
       <r>    -3.6221     3.8385     4.8678 </r>
       <r>    -3.5506     3.7205     5.1339 </r>
       <r>    -3.4790     3.8667     5.4105 </r>
       <r>    -3.4075     2.4379     5.5849 </r>
       <r>    -3.3360     0.8808     5.6479 </r>
       <r>    -3.2644     1.0329     5.7218 </r>
       <r>    -3.1929     2.1465     5.8753 </r>
       <r>    -3.1214     3.0832     6.0959 </r>
       <r>    -3.0498     3.7778     6.3661 </r>
       <r>    -2.9783     4.1123     6.6603 </r>
       <r>    -2.9068     3.8590     6.9363 </r>
       <r>    -2.8352     2.8574     7.1407 </r>
       <r>    -2.7637     1.8887     7.2758 </r>
       <r>    -2.6922     1.3300     7.3709 </r>
       <r>    -2.6206     0.8028     7.4284 </r>
       <r>    -2.5491     0.7381     7.4812 </r>
       <r>    -2.4776     0.8219     7.5400 </r>
       <r>    -2.4060     0.7520     7.5937 </r>
       <r>    -2.3345     0.8729     7.6562 </r>
       <r>    -2.2630     0.8263     7.7153 </r>
       <r>    -2.1914     0.8291     7.7746 </r>
       <r>    -2.1199     1.2882     7.8667 </r>
       <r>    -2.0484     1.9290     8.0047 </r>
       <r>    -1.9768     2.0578     8.1519 </r>
       <r>    -1.9053     1.4137     8.2531 </r>
       <r>    -1.8338     0.6323     8.2983 </r>
       <r>    -1.7622     0.5472     8.3374 </r>
       <r>    -1.6907     0.7654     8.3922 </r>
       <r>    -1.6192     0.5304     8.4301 </r>
       <r>    -1.5476     0.3784     8.4572 </r>
       <r>    -1.4761     0.7323     8.5096 </r>
       <r>    -1.4046     0.9631     8.5785 </r>
       <r>    -1.3330     1.0427     8.6531 </r>
       <r>    -1.2615     2.1520     8.8070 </r>
       <r>    -1.1900     4.6677     9.1409 </r>
       <r>    -1.1184     7.2243     9.6577 </r>
       <r>    -1.0469     8.2577    10.2484 </r>
       <r>    -0.9754     6.2016    10.6920 </r>
       <r>    -0.9038     3.2056    10.9213 </r>
       <r>    -0.8323     2.7783    11.1200 </r>
       <r>    -0.7608     4.1346    11.4158 </r>
       <r>    -0.6892     3.6934    11.6800 </r>
       <r>    -0.6177     1.7434    11.8047 </r>
       <r>    -0.5462     0.9729    11.8743 </r>
       <r>    -0.4746     1.1201    11.9544 </r>
       <r>    -0.4031     1.6981    12.0759 </r>
       <r>    -0.3316     2.8540    12.2800 </r>
       <r>    -0.2600     3.6159    12.5387 </r>
       <r>    -0.1885     3.3522    12.7785 </r>
       <r>    -0.1170     2.2295    12.9380 </r>
       <r>    -0.0454     1.3164    13.0321 </r>
       <r>     0.0261     1.1452    13.1140 </r>
       <r>     0.0976     1.3981    13.2141 </r>
       <r>     0.1692     1.6993    13.3356 </r>
       <r>     0.2407     1.3637    13.4332 </r>
       <r>     0.3122     1.5163    13.5416 </r>
       <r>     0.3838     2.7532    13.7386 </r>
       <r>     0.4553     2.6134    13.9255 </r>
       <r>     0.5268     1.0307    13.9992 </r>
       <r>     0.5984     0.1985    14.0134 </r>
       <r>     0.6699     0.2514    14.0314 </r>
       <r>     0.7414     0.6849    14.0804 </r>
       <r>     0.8130     0.8987    14.1447 </r>
       <r>     0.8845     0.8807    14.2077 </r>
       <r>     0.9560     1.0188    14.2806 </r>
       <r>     1.0276     1.1422    14.3623 </r>
       <r>     1.0991     1.5780    14.4752 </r>
       <r>     1.1706     2.0448    14.6214 </r>
       <r>     1.2422     1.7819    14.7489 </r>
       <r>     1.3137     1.5860    14.8624 </r>
       <r>     1.3852     1.6523    14.9806 </r>
       <r>     1.4568     1.7354    15.1047 </r>
       <r>     1.5283     2.2735    15.2673 </r>
       <r>     1.5998     4.1359    15.5632 </r>
       <r>     1.6714     5.9746    15.9906 </r>
       <r>     1.7429     5.7253    16.4001 </r>
       <r>     1.8144     4.5112    16.7228 </r>
       <r>     1.8860     3.7863    16.9937 </r>
       <r>     1.9575     4.2672    17.2989 </r>
       <r>     2.0290     4.7553    17.6391 </r>
       <r>     2.1006     4.0655    17.9299 </r>
       <r>     2.1721     3.3983    18.1730 </r>
       <r>     2.2436     3.5055    18.4237 </r>
       <r>     2.3152     3.6256    18.6831 </r>
       <r>     2.3867     3.8463    18.9582 </r>
       <r>     2.4582     5.2256    19.3320 </r>
       <r>     2.5298     6.8443    19.8216 </r>
       <r>     2.6013     6.6796    20.2994 </r>
       <r>     2.6728     4.5862    20.6275 </r>
       <r>     2.7443     3.7279    20.8941 </r>
       <r>     2.8159     4.7504    21.2339 </r>
       <r>     2.8874     5.3070    21.6136 </r>
       <r>     2.9589     6.0996    22.0499 </r>
       <r>     3.0305     6.7208    22.5307 </r>
       <r>     3.1020     5.8057    22.9460 </r>
       <r>     3.1735     4.6391    23.2778 </r>
       <r>     3.2451     5.1395    23.6454 </r>
       <r>     3.3166     7.0498    24.1497 </r>
       <r>     3.3881     8.1066    24.7296 </r>
       <r>     3.4597     6.6207    25.2032 </r>
       <r>     3.5312     4.6893    25.5387 </r>
       <r>     3.6027     4.6458    25.8710 </r>
       <r>     3.6743     5.4080    26.2578 </r>
       <r>     3.7458     4.8287    26.6033 </r>
       <r>     3.8173     3.6767    26.8663 </r>
       <r>     3.8889     3.9915    27.1518 </r>
       <r>     3.9604     5.0725    27.5146 </r>
       <r>     4.0319     5.8328    27.9319 </r>
       <r>     4.1035     6.4635    28.3942 </r>
       <r>     4.1750     6.0561    28.8274 </r>
       <r>     4.2465     4.7867    29.1698 </r>
       <r>     4.3181     4.6710    29.5040 </r>
       <r>     4.3896     4.4327    29.8211 </r>
       <r>     4.4611     2.6116    30.0079 </r>
       <r>     4.5327     1.9490    30.1473 </r>
       <r>     4.6042     3.4277    30.3925 </r>
       <r>     4.6757     4.6869    30.7277 </r>
       <r>     4.7473     3.7433    30.9955 </r>
       <r>     4.8188     1.8716    31.1294 </r>
       <r>     4.8903     1.0560    31.2049 </r>
       <r>     4.9619     1.2939    31.2975 </r>
       <r>     5.0334     1.6417    31.4149 </r>
       <r>     5.1049     1.9678    31.5557 </r>
       <r>     5.1765     1.7008    31.6774 </r>
       <r>     5.2480     1.3716    31.7755 </r>
       <r>     5.3195     1.1859    31.8603 </r>
       <r>     5.3911     0.6113    31.9040 </r>
       <r>     5.4626     0.2712    31.9234 </r>
       <r>     5.5341     0.3801    31.9506 </r>
       <r>     5.6057     0.4091    31.9799 </r>
       <r>     5.6772     0.2143    31.9952 </r>
       <r>     5.7487     0.0583    31.9994 </r>
       <r>     5.8203     0.0080    32.0000 </r>
       <r>     5.8918     0.0005    32.0000 </r>
       <r>     5.9633     0.0001    32.0000 </r>
       <r>     6.0349     0.0015    32.0001 </r>
       <r>     6.1064     0.0207    32.0016 </r>
       <r>     6.1779     0.1146    32.0098 </r>
       <r>     6.2495     0.2922    32.0307 </r>
       <r>     6.3210     0.4089    32.0599 </r>
       <r>     6.3925     0.3742    32.0867 </r>
       <r>     6.4641     0.3768    32.1137 </r>
       <r>     6.5356     0.7583    32.1679 </r>
       <r>     6.6071     1.3297    32.2630 </r>
       <r>     6.6787     1.6768    32.3830 </r>
       <r>     6.7502     2.0701    32.5311 </r>
       <r>     6.8217     2.5559    32.7139 </r>
       <r>     6.8933     2.2272    32.8732 </r>
       <r>     6.9648     1.4953    32.9802 </r>
       <r>     7.0363     1.8970    33.1159 </r>
       <r>     7.1079     3.1945    33.3444 </r>
       <r>     7.1794     4.0547    33.6344 </r>
       <r>     7.2509     3.7076    33.8996 </r>
       <r>     7.3225     2.4698    34.0763 </r>
       <r>     7.3940     2.1645    34.2311 </r>
       <r>     7.4655     3.3395    34.4700 </r>
       <r>     7.5371     3.9348    34.7515 </r>
       <r>     7.6086     3.2659    34.9851 </r>
       <r>     7.6801     4.2207    35.2870 </r>
       <r>     7.7517     6.6651    35.7638 </r>
       <r>     7.8232     7.6494    36.3110 </r>
       <r>     7.8947     7.5519    36.8512 </r>
       <r>     7.9663     7.7844    37.4080 </r>
       <r>     8.0378     7.3025    37.9304 </r>
       <r>     8.1093     5.0544    38.2920 </r>
       <r>     8.1809     4.1250    38.5870 </r>
       <r>     8.2524     4.6223    38.9177 </r>
       <r>     8.3239     4.3212    39.2268 </r>
       <r>     8.3955     5.1212    39.5931 </r>
       <r>     8.4670     5.7751    40.0062 </r>
       <r>     8.5385     4.5388    40.3309 </r>
       <r>     8.6101     3.9561    40.6139 </r>
       <r>     8.6816     4.3562    40.9255 </r>
       <r>     8.7531     3.9563    41.2085 </r>
       <r>     8.8247     3.6581    41.4702 </r>
       <r>     8.8962     5.1678    41.8399 </r>
       <r>     8.9677     7.2876    42.3612 </r>
       <r>     9.0393     7.9346    42.9288 </r>
       <r>     9.1108     7.1997    43.4438 </r>
       <r>     9.1823     5.7883    43.8578 </r>
       <r>     9.2539     5.1190    44.2240 </r>
       <r>     9.3254     5.2884    44.6023 </r>
       <r>     9.3969     5.6114    45.0037 </r>
       <r>     9.4685     5.9529    45.4295 </r>
       <r>     9.5400     5.1892    45.8007 </r>
       <r>     9.6115     3.6996    46.0654 </r>
       <r>     9.6831     3.0691    46.2849 </r>
       <r>     9.7546     2.7843    46.4841 </r>
       <r>     9.8261     1.9364    46.6226 </r>
       <r>     9.8977     1.4969    46.7297 </r>
       <r>     9.9692     2.1117    46.8807 </r>
       <r>    10.0407     2.6130    47.0677 </r>
       <r>    10.1123     2.4323    47.2416 </r>
       <r>    10.1838     1.9074    47.3781 </r>
       <r>    10.2553     1.1068    47.4573 </r>
       <r>    10.3268     0.5240    47.4947 </r>
       <r>    10.3984     0.4541    47.5272 </r>
       <r>    10.4699     0.7524    47.5810 </r>
       <r>    10.5414     0.9927    47.6521 </r>
       <r>    10.6130     0.8651    47.7139 </r>
       <r>    10.6845     0.5846    47.7558 </r>
       <r>    10.7560     0.4288    47.7864 </r>
       <r>    10.8276     0.4461    47.8183 </r>
       <r>    10.8991     0.4666    47.8517 </r>
       <r>    10.9706     0.3144    47.8742 </r>
       <r>    11.0422     0.1292    47.8835 </r>
       <r>    11.1137     0.0726    47.8886 </r>
       <r>    11.1852     0.0638    47.8932 </r>
       <r>    11.2568     0.0559    47.8972 </r>
       <r>    11.3283     0.1028    47.9046 </r>
       <r>    11.3998     0.1289    47.9138 </r>
       <r>    11.4714     0.0918    47.9203 </r>
       <r>    11.5429     0.0733    47.9256 </r>
       <r>    11.6144     0.0485    47.9291 </r>
       <r>    11.6860     0.0263    47.9309 </r>
       <r>    11.7575     0.0484    47.9344 </r>
       <r>    11.8290     0.0833    47.9404 </r>
       <r>    11.9006     0.1333    47.9499 </r>
       <r>    11.9721     0.1933    47.9637 </r>
       <r>    12.0436     0.1372    47.9735 </r>
       <r>    12.1152     0.0393    47.9763 </r>
       <r>    12.1867     0.0044    47.9767 </r>
       <r>    12.2582     0.0002    47.9767 </r>
       <r>    12.3298     0.0000    47.9767 </r>
       <r>    12.4013     0.0000    47.9767 </r>
       <r>    12.4728     0.0000    47.9767 </r>
       <r>    12.5444     0.0000    47.9767 </r>
       <r>    12.6159     0.0000    47.9767 </r>
       <r>    12.6874     0.0000    47.9767 </r>
       <r>    12.7590     0.0000    47.9767 </r>
       <r>    12.8305     0.0000    47.9767 </r>
       <r>    12.9020     0.0012    47.9768 </r>
       <r>    12.9736     0.0114    47.9776 </r>
       <r>    13.0451     0.0431    47.9807 </r>
       <r>    13.1166     0.0660    47.9854 </r>
       <r>    13.1882     0.0572    47.9895 </r>
       <r>    13.2597     0.0636    47.9940 </r>
       <r>    13.3312     0.0573    47.9981 </r>
       <r>    13.4028     0.0226    47.9997 </r>
       <r>    13.4743     0.0035    48.0000 </r>
       <r>    13.5458     0.0002    48.0000 </r>
       <r>    13.6174     0.0000    48.0000 </r>
       <r>    13.6889     0.0000    48.0000 </r>
       <r>    13.7604     0.0000    48.0000 </r>
       <r>    13.8320     0.0000    48.0000 </r>
       <r>    13.9035     0.0000    48.0000 </r>
       <r>    13.9750     0.0000    48.0000 </r>
       <r>    14.0466     0.0000    48.0000 </r>
       <r>    14.1181     0.0000    48.0000 </r>
       <r>    14.1896     0.0000    48.0000 </r>
       <r>    14.2612     0.0000    48.0000 </r>
      </set>
     </set>
    </array>
   </total>
  </dos>
 </calculation>
 <structure name="finalpos" >
  <crystal>
   <varray name="basis" >
    <v>       5.46873000       0.00000000       0.00000000 </v>
    <v>       0.00000000       5.46873000       0.00000000 </v>
    <v>       0.00000000       0.00000000       5.46873000 </v>
   </varray>
   <i name="volume">    163.55335084 </i>
   <varray name="rec_basis" >
    <v>       0.18285781       0.00000000       0.00000000 </v>
    <v>       0.00000000       0.18285781       0.00000000 </v>
    <v>       0.00000000       0.00000000       0.18285781 </v>
   </varray>
  </crystal>
  <varray name="positions" >
   <v>       0.50020754       0.49996434       0.00017020 </v>
   <v>       0.49983269       0.99977143       0.50029714 </v>
   <v>       0.00026171       0.50007223       0.49979794 </v>
   <v>       0.99994514       0.99980068       0.99953188 </v>
   <v>       0.24983131       0.25032320       0.75032046 </v>
   <v>       0.24976000       0.75011566       0.24989531 </v>
   <v>       0.75008091       0.24994469       0.24997760 </v>
   <v>       0.75007909       0.75000594       0.75000594 </v>
  </varray>
 </structure>
</modeling>
