/ibex/scratch/jangira/current-projects/crg-project-restart/05-DFT/1-MoTe2/2H-ortho/10-relax/calc/fullRelax/CONTCAR

6 	 atoms 
2  atom types
0.0      6.1638660430999996  xlo xhi
0.0      3.5587060452000001  ylo yhi
0.0                      20  zlo zhi


Atoms 

     1   2   0.0      5.1364923951266039      1.7793530226000001      8.3482725017259405
     2   2   0.0       2.054558662776603                       0      8.3482725017259405
     3   2   0.0      5.1364924034435013      1.7793530226000001       11.65185111805849
     4   2   0.0      2.0545586710935004                       0       11.65185111805849
     5   1   0.0       1.027438287514602      1.7793530226000001      10.000062940215519
     6   1   0.0      4.1093709619326626                       0      10.000062940215519
