 running on  192 total cores
 distrk:  each k-point on  192 cores,    1 groups
 distr:  one band on   24 cores,    8 groups
 using from now: INCAR     
 vasp.5.4.4.18Apr17-6-g9f103f2a35 (build Oct 01 2024 10:11:53) complex          
  
 POSCAR found type information on POSCAR  Se Sn
 POSCAR found :  2 types and       4 ions
 scaLAPACK will be used
 WARNING: PSMAXN for non-local potential too small
 LDA part: xc-table for Pade appr. of Perdew
 found WAVECAR, reading the header
  number of k-points has changed, file:    41 present:    40
  trying to continue reading WAVECAR, but it might fail
 WARNING: stress and forces are not correct
 POSCAR, INCAR and KPOINTS ok, starting setup
 FFT: planning ...
 reading WAVECAR
 the WAVECAR file was read successfully
 charge-density read from file: unknown                                 
 entering main loop
       N       E                     dE             d eps       ncg     rms          rms(c)
DAV:   1    -0.132311746937E+02   -0.13231E+02   -0.38045E+02  1744   0.645E+01
DAV:   2    -0.162308676973E+02   -0.29997E+01   -0.29744E+01  1544   0.227E+01
DAV:   3    -0.162660173427E+02   -0.35150E-01   -0.35136E-01  1752   0.288E+00
DAV:   4    -0.162664635981E+02   -0.44626E-03   -0.44624E-03  1608   0.320E-01
DAV:   5    -0.162664760023E+02   -0.12404E-04   -0.12403E-04  1768   0.520E-02
DAV:   6    -0.162664764593E+02   -0.45696E-06   -0.45697E-06  1560   0.891E-03
   1 F= -.16266476E+02 E0= -.16266476E+02  d E =0.000000E+00
 writing wavefunctions
