 vasp.5.4.4.18Apr17-6-g9f103f2a35 (build Sep 16 2021 13:51:27) complex          
  
 executed on             LinuxIFC date 2023.03.16  11:28:57
 running on   24 total cores
 distrk:  each k-point on   24 cores,    1 groups
 distr:  one band on NCORES_PER_BAND=  24 cores,    1 groups


--------------------------------------------------------------------------------------------------------


 INCAR:
 POTCAR:    PAW_PBE Sn 08Apr2002                  
 POTCAR:    PAW_PBE Se 06Sep2000                  

 ----------------------------------------------------------------------------- 
|                                                                             |
|           W    W    AA    RRRRR   N    N  II  N    N   GGGG   !!!           |
|           W    W   A  A   R    R  NN   N  II  NN   N  G    G  !!!           |
|           W    W  A    A  R    R  N N  N  II  N N  N  G       !!!           |
|           W WW W  AAAAAA  RRRRR   N  N N  II  N  N N  G  GGG   !            |
|           WW  WW  A    A  R   R   N   NN  II  N   NN  G    G                |
|           W    W  A    A  R    R  N    N  II  N    N   GGGG   !!!           |
|                                                                             |
|      For optimal performance we recommend to set                            |
|        NCORE= 4 - approx SQRT( number of cores)                             |
|      NCORE specifies how many cores store one orbital (NPAR=cpu/NCORE).     |
|      This setting can  greatly improve the performance of VASP for DFT.     |
|      The default,   NCORE=1            might be grossly inefficient         |
|      on modern multi-core architectures or massively parallel machines.     |
|      Do your own testing !!!!                                               |
|      Unfortunately you need to use the default for GW and RPA calculations. |
|      (for HF NCORE is supported but not extensively tested yet)             |
|                                                                             |
 ----------------------------------------------------------------------------- 

 POTCAR:    PAW_PBE Sn 08Apr2002                  
   VRHFIN =Sn: s2p2                                                             
   LEXCH  = PE                                                                  
   EATOM  =    94.0860 eV,    6.9151 Ry                                         
                                                                                
   TITEL  = PAW_PBE Sn 08Apr2002                                                
   LULTRA =        F    use ultrasoft PP ?                                      
   IUNSCR =        1    unscreen: 0-lin 1-nonlin 2-no                           
   RPACOR =    2.000    partial core radius                                     
   POMASS =  118.710; ZVAL   =    4.000    mass and valenz                      
   RCORE  =    3.000    outmost cutoff radius                                   
   RWIGS  =    2.960; RWIGS  =    1.566    wigner-seitz radius (au A)           
   ENMAX  =  103.236; ENMIN  =   77.427 eV                                      
   ICORE  =        3    local potential                                         
   LCOR   =        T    correct aug charges                                     
   LPAW   =        T    paw PP                                                  
   EAUG   =  263.585                                                            
   DEXC   =    0.000                                                            
   RMAX   =    3.078    core radius for proj-oper                               
   RAUG   =    1.300    factor for augmentation sphere                          
   RDEP   =    3.022    radius for radial grids                                 
   RDEPT  =    2.655    core radius for aug-charge                              
                                                                                
   Atomic configuration                                                         
   13 entries                                                                   
     n  l   j            E        occ.                                          
     1  0  0.50    -29007.2859   2.0000                                         
     2  0  0.50     -4378.8056   2.0000                                         
     2  1  1.50     -3930.4293   6.0000                                         
     3  0  0.50      -845.0264   2.0000                                         
     3  1  1.50      -698.5725   6.0000                                         
     3  2  2.50      -473.2839  10.0000                                         
     4  0  0.50      -133.9036   2.0000                                         
     4  1  1.50       -89.6752   6.0000                                         
     4  2  2.50       -25.8375  10.0000                                         
     5  0  0.50       -10.5484   2.0000                                         
     5  1  0.50        -3.6940   2.0000                                         
     5  2  1.50        -1.3606   0.0000                                         
     4  3  2.50        -4.0817   0.0000                                         
   Description                                                                  
     l       E           TYP  RCUT    TYP  RCUT                                 
     0    -10.5483727     23  3.000                                             
     0     27.2116520     23  3.000                                             
     1     -3.6939829     23  3.000                                             
     1      1.9821976     23  3.000                                             
     2     -1.3605826     23  3.000                                             
     3     -2.7211652     23  3.000                                             
  local pseudopotential read in
  partial core-charges read in
  partial kinetic energy density read in
  atomic valenz-charges read in
  non local Contribution for L=           0  read in
    real space projection operators read in
  non local Contribution for L=           0  read in
    real space projection operators read in
  non local Contribution for L=           1  read in
    real space projection operators read in
  non local Contribution for L=           1  read in
    real space projection operators read in
  non local Contribution for L=           2  read in
    real space projection operators read in
    PAW grid and wavefunctions read in
 
   number of l-projection  operators is LMAX  =           5
   number of lm-projection operators is LMMAX =          13
 
 POTCAR:    PAW_PBE Se 06Sep2000                  
   VRHFIN =Se: s2p4                                                             
   LEXCH  = PE                                                                  
   EATOM  =   257.1286 eV,   18.8984 Ry                                         
                                                                                
   TITEL  = PAW_PBE Se 06Sep2000                                                
   LULTRA =        F    use ultrasoft PP ?                                      
   IUNSCR =        1    unscreen: 0-lin 1-nonlin 2-no                           
   RPACOR =    1.900    partial core radius                                     
   POMASS =   78.960; ZVAL   =    6.000    mass and valenz                      
   RCORE  =    2.100    outmost cutoff radius                                   
   RWIGS  =    2.200; RWIGS  =    1.164    wigner-seitz radius (au A)           
   ENMAX  =  211.555; ENMIN  =  158.666 eV                                      
   ICORE  =        3    local potential                                         
   LCOR   =        T    correct aug charges                                     
   LPAW   =        T    paw PP                                                  
   EAUG   =  446.842                                                            
   DEXC   =    0.000                                                            
   RMAX   =    2.147    core radius for proj-oper                               
   RAUG   =    1.300    factor for augmentation sphere                          
   RDEP   =    2.177    radius for radial grids                                 
   RDEPT  =    1.928    core radius for aug-charge                              
                                                                                
   Atomic configuration                                                         
   10 entries                                                                   
     n  l   j            E        occ.                                          
     1  0  0.50    -12503.4787   2.0000                                         
     2  0  0.50     -1606.9547   2.0000                                         
     2  1  1.50     -1413.3140   6.0000                                         
     3  0  0.50      -213.4885   2.0000                                         
     3  1  1.50      -152.9538   6.0000                                         
     3  2  2.50       -53.1221  10.0000                                         
     4  0  0.50       -17.2865   2.0000                                         
     4  1  0.50        -6.5110   4.0000                                         
     4  2  2.50        -6.8029   0.0000                                         
     4  3  2.50        -6.8029   0.0000                                         
   Description                                                                  
     l       E           TYP  RCUT    TYP  RCUT                                 
     0    -17.2865377     23  2.100                                             
     0    -15.3094411     23  2.100                                             
     1     -6.5110275     23  2.100                                             
     1     -0.0695192     23  2.100                                             
     2     -6.8029130     23  2.100                                             
     3     -1.3605826      7  2.100                                             
  local pseudopotential read in
  partial core-charges read in
  partial kinetic energy density read in
  atomic valenz-charges read in
  non local Contribution for L=           0  read in
    real space projection operators read in
  non local Contribution for L=           0  read in
    real space projection operators read in
  non local Contribution for L=           1  read in
    real space projection operators read in
  non local Contribution for L=           1  read in
    real space projection operators read in
  non local Contribution for L=           2  read in
    real space projection operators read in
    PAW grid and wavefunctions read in
 
   number of l-projection  operators is LMAX  =           5
   number of lm-projection operators is LMMAX =          13
 
 WARNING: PSMAXN for non-local potential too small
          PSMAXN should be >   12.5490833729506       NTYP=           1
  PAW_PBE Sn 08Apr2002                  :
 energy of atom  1       EATOM=  -94.0860
 kinetic energy error for atom=    0.0000 (will be added to EATOM!!)
  PAW_PBE Se 06Sep2000                  :
 energy of atom  2       EATOM= -257.1286
 kinetic energy error for atom=    0.0006 (will be added to EATOM!!)
 
 
 POSCAR:  POSCAR with strain of 0.003            
  positions in direct lattice
  No initial velocities read in
 exchange correlation table for  LEXCH =        8
   RHO(1)=    0.500       N(1)  =     2000
   RHO(2)=  100.500       N(2)  =     4000
 


--------------------------------------------------------------------------------------------------------


 ion  position               nearest neighbor table
   1  0.581  0.750  0.569-   4 2.72   3 2.92   3 2.93   3 3.22   3 3.23
   2  0.081  0.250  0.431-   3 2.72   4 2.92   4 2.93   4 3.22   4 3.23
   3  0.033  0.250  0.567-   2 2.72   1 2.92   1 2.93   1 3.22   1 3.23
   4  0.533  0.750  0.433-   1 2.72   2 2.92   2 2.93   2 3.22   2 3.23
 
  LATTYP: Found a simple monoclinic cell.
 ALAT       =     6.1498613374
 B/A-ratio  =     3.2521058448
 C/A-ratio  =     1.5916944119
 COS(beta)  =    -0.9496663979
  
  Lattice vectors:
  
 A1 = (  -4.3986782542,  -4.2979558031,   0.0000000000)
 A2 = (   0.0000000000,   0.0000000000, -20.0000000000)
 A3 = (   8.7919909110,   4.3034337491,   0.0000000000)


Analysis of symmetry for initial positions (statically):
=====================================================================
 Subroutine PRICEL returns:
 Original cell was already a primitive cell.
 

 Routine SETGRP: Setting up the symmetry group for a 
 simple monoclinic supercell.


 Subroutine GETGRP returns: Found  2 space group operations
 (whereof  1 operations were pure point group operations)
 out of a pool of  4 trial point group operations.


The static configuration has the point symmetry C_1 .
 The point group associated with its full space group is C_1h.


Analysis of symmetry for dynamics (positions and initial velocities):
=====================================================================
 Subroutine PRICEL returns:
 Original cell was already a primitive cell.
 

 Routine SETGRP: Setting up the symmetry group for a 
 simple monoclinic supercell.


 Subroutine GETGRP returns: Found  2 space group operations
 (whereof  1 operations were pure point group operations)
 out of a pool of  4 trial point group operations.


The dynamic configuration has the point symmetry C_1 .
 The point group associated with its full space group is C_1h.


 Subroutine INISYM returns: Found  2 space group operations
 (whereof  1 operations are pure point group operations),
 and found     1 'primitive' translations

 
 
 KPOINTS: KMesh Grid                              

Automatic generation of k-mesh.
Space group operators:
 irot       det(A)        alpha          n_x          n_y          n_z        tau_x        tau_y        tau_z
    1     1.000000     0.000000     1.000000     0.000000     0.000000     0.000000     0.000000     0.000000
    2    -1.000000   180.000000     0.000000     0.000000     1.000000    -0.500000    -0.500000     0.000000
 
 Subroutine IBZKPT returns following result:
 ===========================================
 
 Found    113 irreducible k-points:
 
 Following reciprocal coordinates:
            Coordinates               Weight
  0.000000  0.000000  0.000000      1.000000
  0.066667 -0.000000  0.000000      2.000000
  0.133333 -0.000000  0.000000      2.000000
  0.200000  0.000000  0.000000      2.000000
  0.266667 -0.000000  0.000000      2.000000
  0.333333 -0.000000  0.000000      2.000000
  0.400000  0.000000  0.000000      2.000000
  0.466667 -0.000000  0.000000      2.000000
  0.000000  0.066667  0.000000      2.000000
  0.066667  0.066667  0.000000      2.000000
  0.133333  0.066667  0.000000      2.000000
  0.200000  0.066667  0.000000      2.000000
  0.266667  0.066667  0.000000      2.000000
  0.333333  0.066667  0.000000      2.000000
  0.400000  0.066667  0.000000      2.000000
  0.466667  0.066667  0.000000      2.000000
 -0.466667  0.066667  0.000000      2.000000
 -0.400000  0.066667  0.000000      2.000000
 -0.333333  0.066667  0.000000      2.000000
 -0.266667  0.066667  0.000000      2.000000
 -0.200000  0.066667  0.000000      2.000000
 -0.133333  0.066667  0.000000      2.000000
 -0.066667  0.066667  0.000000      2.000000
  0.000000  0.133333  0.000000      2.000000
  0.066667  0.133333  0.000000      2.000000
  0.133333  0.133333  0.000000      2.000000
  0.200000  0.133333  0.000000      2.000000
  0.266667  0.133333  0.000000      2.000000
  0.333333  0.133333  0.000000      2.000000
  0.400000  0.133333  0.000000      2.000000
  0.466667  0.133333  0.000000      2.000000
 -0.466667  0.133333  0.000000      2.000000
 -0.400000  0.133333  0.000000      2.000000
 -0.333333  0.133333  0.000000      2.000000
 -0.266667  0.133333  0.000000      2.000000
 -0.200000  0.133333  0.000000      2.000000
 -0.133333  0.133333  0.000000      2.000000
 -0.066667  0.133333  0.000000      2.000000
 -0.000000  0.200000  0.000000      2.000000
  0.066667  0.200000  0.000000      2.000000
  0.133333  0.200000  0.000000      2.000000
  0.200000  0.200000  0.000000      2.000000
  0.266667  0.200000  0.000000      2.000000
  0.333333  0.200000  0.000000      2.000000
  0.400000  0.200000  0.000000      2.000000
  0.466667  0.200000  0.000000      2.000000
 -0.466667  0.200000  0.000000      2.000000
 -0.400000  0.200000  0.000000      2.000000
 -0.333333  0.200000  0.000000      2.000000
 -0.266667  0.200000  0.000000      2.000000
 -0.200000  0.200000  0.000000      2.000000
 -0.133333  0.200000  0.000000      2.000000
 -0.066667  0.200000  0.000000      2.000000
  0.000000  0.266667  0.000000      2.000000
  0.066667  0.266667  0.000000      2.000000
  0.133333  0.266667  0.000000      2.000000
  0.200000  0.266667  0.000000      2.000000
  0.266667  0.266667  0.000000      2.000000
  0.333333  0.266667  0.000000      2.000000
  0.400000  0.266667  0.000000      2.000000
  0.466667  0.266667  0.000000      2.000000
 -0.466667  0.266667  0.000000      2.000000
 -0.400000  0.266667  0.000000      2.000000
 -0.333333  0.266667  0.000000      2.000000
 -0.266667  0.266667  0.000000      2.000000
 -0.200000  0.266667  0.000000      2.000000
 -0.133333  0.266667  0.000000      2.000000
 -0.066667  0.266667  0.000000      2.000000
 -0.000000  0.333333  0.000000      2.000000
  0.066667  0.333333  0.000000      2.000000
  0.133333  0.333333  0.000000      2.000000
  0.200000  0.333333  0.000000      2.000000
  0.266667  0.333333  0.000000      2.000000
  0.333333  0.333333  0.000000      2.000000
  0.400000  0.333333  0.000000      2.000000
  0.466667  0.333333  0.000000      2.000000
 -0.466667  0.333333  0.000000      2.000000
 -0.400000  0.333333  0.000000      2.000000
 -0.333333  0.333333  0.000000      2.000000
 -0.266667  0.333333  0.000000      2.000000
 -0.200000  0.333333  0.000000      2.000000
 -0.133333  0.333333  0.000000      2.000000
 -0.066667  0.333333  0.000000      2.000000
 -0.000000  0.400000  0.000000      2.000000
  0.066667  0.400000  0.000000      2.000000
  0.133333  0.400000  0.000000      2.000000
  0.200000  0.400000  0.000000      2.000000
  0.266667  0.400000  0.000000      2.000000
  0.333333  0.400000  0.000000      2.000000
  0.400000  0.400000  0.000000      2.000000
  0.466667  0.400000  0.000000      2.000000
 -0.466667  0.400000  0.000000      2.000000
 -0.400000  0.400000  0.000000      2.000000
 -0.333333  0.400000  0.000000      2.000000
 -0.266667  0.400000  0.000000      2.000000
 -0.200000  0.400000  0.000000      2.000000
 -0.133333  0.400000  0.000000      2.000000
 -0.066667  0.400000  0.000000      2.000000
  0.000000  0.466667  0.000000      2.000000
  0.066667  0.466667  0.000000      2.000000
  0.133333  0.466667  0.000000      2.000000
  0.200000  0.466667  0.000000      2.000000
  0.266667  0.466667  0.000000      2.000000
  0.333333  0.466667  0.000000      2.000000
  0.400000  0.466667  0.000000      2.000000
  0.466667  0.466667  0.000000      2.000000
 -0.466667  0.466667  0.000000      2.000000
 -0.400000  0.466667  0.000000      2.000000
 -0.333333  0.466667  0.000000      2.000000
 -0.266667  0.466667  0.000000      2.000000
 -0.200000  0.466667  0.000000      2.000000
 -0.133333  0.466667  0.000000      2.000000
 -0.066667  0.466667  0.000000      2.000000
 
 Following cartesian coordinates:
            Coordinates               Weight
  0.000000  0.000000  0.000000      1.000000
  0.015175 -0.000019  0.000000      2.000000
  0.030349 -0.000038  0.000000      2.000000
  0.045524 -0.000057  0.000000      2.000000
  0.060698 -0.000076  0.000000      2.000000
  0.075873 -0.000095  0.000000      2.000000
  0.091048 -0.000114  0.000000      2.000000
  0.106222 -0.000133  0.000000      2.000000
 -0.000019  0.015531  0.000000      2.000000
  0.015155  0.015512  0.000000      2.000000
  0.030330  0.015493  0.000000      2.000000
  0.045504  0.015474  0.000000      2.000000
  0.060679  0.015455  0.000000      2.000000
  0.075854  0.015436  0.000000      2.000000
  0.091028  0.015417  0.000000      2.000000
  0.106203  0.015398  0.000000      2.000000
 -0.106242  0.015664  0.000000      2.000000
 -0.091067  0.015645  0.000000      2.000000
 -0.075892  0.015626  0.000000      2.000000
 -0.060718  0.015607  0.000000      2.000000
 -0.045543  0.015588  0.000000      2.000000
 -0.030369  0.015569  0.000000      2.000000
 -0.015194  0.015550  0.000000      2.000000
 -0.000039  0.031062  0.000000      2.000000
  0.015136  0.031043  0.000000      2.000000
  0.030310  0.031024  0.000000      2.000000
  0.045485  0.031005  0.000000      2.000000
  0.060660  0.030986  0.000000      2.000000
  0.075834  0.030967  0.000000      2.000000
  0.091009  0.030948  0.000000      2.000000
  0.106183  0.030929  0.000000      2.000000
 -0.106261  0.031195  0.000000      2.000000
 -0.091086  0.031176  0.000000      2.000000
 -0.075912  0.031157  0.000000      2.000000
 -0.060737  0.031138  0.000000      2.000000
 -0.045563  0.031119  0.000000      2.000000
 -0.030388  0.031100  0.000000      2.000000
 -0.015213  0.031081  0.000000      2.000000
 -0.000058  0.046593  0.000000      2.000000
  0.015117  0.046574  0.000000      2.000000
  0.030291  0.046555  0.000000      2.000000
  0.045466  0.046536  0.000000      2.000000
  0.060640  0.046517  0.000000      2.000000
  0.075815  0.046498  0.000000      2.000000
  0.090990  0.046479  0.000000      2.000000
  0.106164  0.046460  0.000000      2.000000
 -0.106280  0.046726  0.000000      2.000000
 -0.091106  0.046707  0.000000      2.000000
 -0.075931  0.046688  0.000000      2.000000
 -0.060757  0.046669  0.000000      2.000000
 -0.045582  0.046650  0.000000      2.000000
 -0.030407  0.046631  0.000000      2.000000
 -0.015233  0.046612  0.000000      2.000000
 -0.000077  0.062124  0.000000      2.000000
  0.015097  0.062105  0.000000      2.000000
  0.030272  0.062086  0.000000      2.000000
  0.045446  0.062067  0.000000      2.000000
  0.060621  0.062048  0.000000      2.000000
  0.075796  0.062029  0.000000      2.000000
  0.090970  0.062010  0.000000      2.000000
  0.106145  0.061991  0.000000      2.000000
 -0.106300  0.062257  0.000000      2.000000
 -0.091125  0.062238  0.000000      2.000000
 -0.075950  0.062219  0.000000      2.000000
 -0.060776  0.062200  0.000000      2.000000
 -0.045601  0.062181  0.000000      2.000000
 -0.030427  0.062162  0.000000      2.000000
 -0.015252  0.062143  0.000000      2.000000
 -0.000097  0.077655  0.000000      2.000000
  0.015078  0.077636  0.000000      2.000000
  0.030252  0.077617  0.000000      2.000000
  0.045427  0.077598  0.000000      2.000000
  0.060602  0.077579  0.000000      2.000000
  0.075776  0.077561  0.000000      2.000000
  0.090951  0.077542  0.000000      2.000000
  0.106125  0.077523  0.000000      2.000000
 -0.106319  0.077788  0.000000      2.000000
 -0.091144  0.077769  0.000000      2.000000
 -0.075970  0.077750  0.000000      2.000000
 -0.060795  0.077731  0.000000      2.000000
 -0.045621  0.077712  0.000000      2.000000
 -0.030446  0.077693  0.000000      2.000000
 -0.015271  0.077674  0.000000      2.000000
 -0.000116  0.093186  0.000000      2.000000
  0.015058  0.093167  0.000000      2.000000
  0.030233  0.093148  0.000000      2.000000
  0.045408  0.093130  0.000000      2.000000
  0.060582  0.093111  0.000000      2.000000
  0.075757  0.093092  0.000000      2.000000
  0.090931  0.093073  0.000000      2.000000
  0.106106  0.093054  0.000000      2.000000
 -0.106338  0.093319  0.000000      2.000000
 -0.091164  0.093300  0.000000      2.000000
 -0.075989  0.093281  0.000000      2.000000
 -0.060815  0.093262  0.000000      2.000000
 -0.045640  0.093243  0.000000      2.000000
 -0.030465  0.093224  0.000000      2.000000
 -0.015291  0.093205  0.000000      2.000000
 -0.000136  0.108717  0.000000      2.000000
  0.015039  0.108699  0.000000      2.000000
  0.030214  0.108680  0.000000      2.000000
  0.045388  0.108661  0.000000      2.000000
  0.060563  0.108642  0.000000      2.000000
  0.075737  0.108623  0.000000      2.000000
  0.090912  0.108604  0.000000      2.000000
  0.106087  0.108585  0.000000      2.000000
 -0.106358  0.108850  0.000000      2.000000
 -0.091183  0.108831  0.000000      2.000000
 -0.076009  0.108812  0.000000      2.000000
 -0.060834  0.108793  0.000000      2.000000
 -0.045659  0.108774  0.000000      2.000000
 -0.030485  0.108755  0.000000      2.000000
 -0.015310  0.108736  0.000000      2.000000
 


--------------------------------------------------------------------------------------------------------




 Dimension of arrays:
   k-points           NKPTS =    113   k-points in BZ     NKDIM =    113   number of bands    NBANDS=     14
   number of dos      NEDOS =    301   number of ions     NIONS =      4
   non local maximal  LDIM  =      5   non local SUM 2l+1 LMDIM =     13
   total plane-waves  NPLWV = 207360
   max r-space proj   IRMAX =      1   max aug-charges    IRDMAX=  53115
   dimension x,y,z NGX =    36 NGY =   36 NGZ =  160
   dimension x,y,z NGXF=    72 NGYF=   72 NGZF=  320
   support grid    NGXF=    72 NGYF=   72 NGZF=  320
   ions per type =               2   2
   NGX,Y,Z   is equivalent  to a cutoff of  13.62, 13.94, 13.30 a.u.
   NGXF,Y,Z  is equivalent  to a cutoff of  27.25, 27.89, 26.60 a.u.

 SYSTEM =  SnSe                                    
 POSCAR =   POSCAR with strain of 0.003            

 Startparameter for this run:
   NWRITE =      2    write-flag & timer
   PREC   = accura    normal or accurate (medium, high low for compatibility)
   ISTART =      0    job   : 0-new  1-cont  2-samecut
   ICHARG =      2    charge: 1-file 2-atom 10-const
   ISPIN  =      1    spin polarized calculation?
   LNONCOLLINEAR =      F non collinear calculations
   LSORBIT =      F    spin-orbit coupling
   INIWAV =      1    electr: 0-lowe 1-rand  2-diag
   LASPH  =      F    aspherical Exc in radial PAW
   METAGGA=      F    non-selfconsistent MetaGGA calc.

 Electronic Relaxation 1
   ENCUT  =  600.0 eV  44.10 Ry    6.64 a.u.   8.77  8.57 39.94*2*pi/ulx,y,z
   ENINI  =  600.0     initial cutoff
   ENAUG  =  446.8 eV  augmentation charge cutoff
   NELM   =     60;   NELMIN=  2; NELMDL= -5     # of ELM steps 
   EDIFF  = 0.1E-05   stopping-criterion for ELM
   LREAL  =      F    real-space projection
   NLSPLINE    = F    spline interpolate recip. space projectors
   LCOMPAT=      F    compatible to vasp.4.4
   GGA_COMPAT  = T    GGA compatible to vasp.4.4-vasp.4.6
   LMAXPAW     = -100 max onsite density
   LMAXMIX     =    2 max onsite mixed and CHGCAR
   VOSKOWN=      0    Vosko Wilk Nusair interpolation
   ROPT   =    0.00000   0.00000
 Ionic relaxation
   EDIFFG = -.1E-02   stopping-criterion for IOM
   NSW    =    100    number of steps for IOM
   NBLOCK =      1;   KBLOCK =    100    inner block; outer block 
   IBRION =      2    ionic relax: 0-MD 1-quasi-New 2-CG
   NFREE  =      1    steps in history (QN), initial steepest desc. (CG)
   ISIF   =      2    stress and relaxation
   IWAVPR =     11    prediction:  0-non 1-charg 2-wave 3-comb
   ISYM   =      2    0-nonsym 1-usesym 2-fastsym
   LCORR  =      T    Harris-Foulkes like correction to forces

   POTIM  = 0.5000    time-step for ionic-motion
   TEIN   =    0.0    initial temperature
   TEBEG  =    0.0;   TEEND  =   0.0 temperature during run
   SMASS  =  -3.00    Nose mass-parameter (am)
   estimated Nose-frequenzy (Omega)   =  0.10E-29 period in steps =****** mass=  -0.441E-27a.u.
   SCALEE = 1.0000    scale energy and forces
   NPACO  =    256;   APACO  = 16.0  distance and # of slots for P.C.
   PSTRESS=    0.0 pullay stress

  Mass of Ions in am
   POMASS = 118.71 78.96
  Ionic Valenz
   ZVAL   =   4.00  6.00
  Atomic Wigner-Seitz radii
   RWIGS  =  -1.00 -1.00
  virtual crystal weights 
   VCA    =   1.00  1.00
   NELECT =      20.0000    total number of electrons
   NUPDOWN=      -1.0000    fix difference up-down

 DOS related values:
   EMIN   =  10.00;   EMAX   =-10.00  energy-range for DOS
   EFERMI =   0.00
   ISMEAR =     0;   SIGMA  =   0.10  broadening in eV -4-tet -1-fermi 0-gaus

 Electronic relaxation 2 (details)
   IALGO  =     38    algorithm
   LDIAG  =      T    sub-space diagonalisation (order eigenvalues)
   LSUBROT=      F    optimize rotation matrix (better conditioning)
   TURBO    =      0    0=normal 1=particle mesh
   IRESTART =      0    0=no restart 2=restart with 2 vectors
   NREBOOT  =      0    no. of reboots
   NMIN     =      0    reboot dimension
   EREF     =   0.00    reference energy to select bands
   IMIX   =      4    mixing-type and parameters
     AMIX     =   0.40;   BMIX     =  1.00
     AMIX_MAG =   1.60;   BMIX_MAG =  1.00
     AMIN     =   0.10
     WC   =   100.;   INIMIX=   1;  MIXPRE=   1;  MAXMIX= -45

 Intra band minimization:
   WEIMIN = 0.0010     energy-eigenvalue tresh-hold
   EBREAK =  0.18E-07  absolut break condition
   DEPER  =   0.30     relativ break condition  

   TIME   =   0.40     timestep for ELM

  volume/ion in A,a.u.               =      94.29       636.31
  Fermi-wavevector in a.u.,A,eV,Ry     =   0.615047  1.162270  5.146851  0.378283
  Thomas-Fermi vector in A             =   1.672276
 
 Write flags
   LWAVE        =      T    write WAVECAR
   LDOWNSAMPLE  =      F    k-point downsampling of WAVECAR
   LCHARG       =      T    write CHGCAR
   LVTOT        =      F    write LOCPOT, total local potential
   LVHAR        =      F    write LOCPOT, Hartree potential only
   LELF         =      F    write electronic localiz. function (ELF)
   LORBIT       =      0    0 simple, 1 ext, 2 COOP (PROOUT), +10 PAW based schemes


 Dipole corrections
   LMONO  =      F    monopole corrections only (constant potential shift)
   LDIPOL =      F    correct potential (dipole corrections)
   IDIPOL =      0    1-x, 2-y, 3-z, 4-all directions 
   EPSILON=  1.0000000 bulk dielectric constant

 Exchange correlation treatment:
   GGA     =    PE    GGA type
   LEXCH   =     8    internal setting for exchange type
   VOSKOWN=      0    Vosko Wilk Nusair interpolation
   LHFCALC =     F    Hartree Fock is set to
   LHFONE  =     F    Hartree Fock one center treatment
   AEXX    =    0.0000 exact exchange contribution

 Linear response parameters
   LEPSILON=     F    determine dielectric tensor
   LRPA    =     F    only Hartree local field effects (RPA)
   LNABLA  =     F    use nabla operator in PAW spheres
   LVEL    =     F    velocity operator in full k-point grid
   LINTERFAST=   F  fast interpolation
   KINTER  =     0    interpolate to denser k-point grid
   CSHIFT  =0.1000    complex shift for real part using Kramers Kronig
   OMEGAMAX=  -1.0    maximum frequency
   DEG_THRESHOLD= 0.2000000E-02 threshold for treating states as degnerate
   RTIME   =   -0.100 relaxation time in fs
  (WPLASMAI=    0.000 imaginary part of plasma frequency in eV, 0.658/RTIME)
   DFIELD  = 0.0000000 0.0000000 0.0000000 field for delta impulse in time
 
 Orbital magnetization related:
   ORBITALMAG=     F  switch on orbital magnetization
   LCHIMAG   =     F  perturbation theory with respect to B field
   DQ        =  0.001000  dq finite difference perturbation B field
   LLRAUG    =     F  two centre corrections for induced B field



--------------------------------------------------------------------------------------------------------


 conjugate gradient relaxation of ions
 charge density and potential will be updated during run
 non-spin polarized calculation
 Variant of blocked Davidson
 Davidson routine will perform the subspace rotation
 perform sub-space diagonalisation
    after iterative eigenvector-optimisation
 modified Broyden-mixing scheme, WC =      100.0
 initial mixing is a Kerker type mixing with AMIX =  0.4000 and BMIX =      1.0000
 Hartree-type preconditioning will be used
 using additional bands            4
 reciprocal scheme for non local part
 use partial core corrections
 calculate Harris-corrections to forces 
   (improved forces if not selfconsistent)
 use gradient corrections 
 use of overlap-Matrix (Vanderbilt PP)
 Gauss-broadening in eV      SIGMA  =   0.10


--------------------------------------------------------------------------------------------------------


  energy-cutoff  :      600.00
  volume of cell :      377.16
      direct lattice vectors                 reciprocal lattice vectors
     4.393312657  0.005477946  0.000000000     0.227619028 -0.000284524  0.000000000
     0.005365597  4.292477857  0.000000000    -0.000290481  0.232966038  0.000000000
     0.000000000  0.000000000 20.000000000     0.000000000  0.000000000  0.050000000

  length of vectors
     4.393316072  4.292481211 20.000000000     0.227619206  0.232966219  0.050000000


 
 k-points in units of 2pi/SCALE and weight: KMesh Grid                              
   0.00000000  0.00000000  0.00000000       0.004
   0.01517460 -0.00001897  0.00000000       0.009
   0.03034920 -0.00003794  0.00000000       0.009
   0.04552381 -0.00005690  0.00000000       0.009
   0.06069841 -0.00007587  0.00000000       0.009
   0.07587301 -0.00009484  0.00000000       0.009
   0.09104761 -0.00011381  0.00000000       0.009
   0.10622221 -0.00013278  0.00000000       0.009
  -0.00001937  0.01553107  0.00000000       0.009
   0.01515524  0.01551210  0.00000000       0.009
   0.03032984  0.01549313  0.00000000       0.009
   0.04550444  0.01547416  0.00000000       0.009
   0.06067904  0.01545520  0.00000000       0.009
   0.07585364  0.01543623  0.00000000       0.009
   0.09102825  0.01541726  0.00000000       0.009
   0.10620285  0.01539829  0.00000000       0.009
  -0.10624158  0.01566385  0.00000000       0.009
  -0.09106698  0.01564488  0.00000000       0.009
  -0.07589237  0.01562591  0.00000000       0.009
  -0.06071777  0.01560694  0.00000000       0.009
  -0.04554317  0.01558797  0.00000000       0.009
  -0.03036857  0.01556901  0.00000000       0.009
  -0.01519397  0.01555004  0.00000000       0.009
  -0.00003873  0.03106214  0.00000000       0.009
   0.01513587  0.03104317  0.00000000       0.009
   0.03031047  0.03102420  0.00000000       0.009
   0.04548507  0.03100523  0.00000000       0.009
   0.06065968  0.03098627  0.00000000       0.009
   0.07583428  0.03096730  0.00000000       0.009
   0.09100888  0.03094833  0.00000000       0.009
   0.10618348  0.03092936  0.00000000       0.009
  -0.10626094  0.03119492  0.00000000       0.009
  -0.09108634  0.03117595  0.00000000       0.009
  -0.07591174  0.03115698  0.00000000       0.009
  -0.06073714  0.03113801  0.00000000       0.009
  -0.04556254  0.03111904  0.00000000       0.009
  -0.03038793  0.03110007  0.00000000       0.009
  -0.01521333  0.03108111  0.00000000       0.009
  -0.00005810  0.04659321  0.00000000       0.009
   0.01511651  0.04657424  0.00000000       0.009
   0.03029111  0.04655527  0.00000000       0.009
   0.04546571  0.04653630  0.00000000       0.009
   0.06064031  0.04651733  0.00000000       0.009
   0.07581491  0.04649837  0.00000000       0.009
   0.09098952  0.04647940  0.00000000       0.009
   0.10616412  0.04646043  0.00000000       0.009
  -0.10628031  0.04672599  0.00000000       0.009
  -0.09110571  0.04670702  0.00000000       0.009
  -0.07593111  0.04668805  0.00000000       0.009
  -0.06075650  0.04666908  0.00000000       0.009
  -0.04558190  0.04665011  0.00000000       0.009
  -0.03040730  0.04663114  0.00000000       0.009
  -0.01523270  0.04661218  0.00000000       0.009
  -0.00007746  0.06212428  0.00000000       0.009
   0.01509714  0.06210531  0.00000000       0.009
   0.03027174  0.06208634  0.00000000       0.009
   0.04544634  0.06206737  0.00000000       0.009
   0.06062095  0.06204840  0.00000000       0.009
   0.07579555  0.06202944  0.00000000       0.009
   0.09097015  0.06201047  0.00000000       0.009
   0.10614475  0.06199150  0.00000000       0.009
  -0.10629967  0.06225705  0.00000000       0.009
  -0.09112507  0.06223809  0.00000000       0.009
  -0.07595047  0.06221912  0.00000000       0.009
  -0.06077587  0.06220015  0.00000000       0.009
  -0.04560127  0.06218118  0.00000000       0.009
  -0.03042667  0.06216221  0.00000000       0.009
  -0.01525206  0.06214324  0.00000000       0.009
  -0.00009683  0.07765535  0.00000000       0.009
   0.01507777  0.07763638  0.00000000       0.009
   0.03025238  0.07761741  0.00000000       0.009
   0.04542698  0.07759844  0.00000000       0.009
   0.06060158  0.07757947  0.00000000       0.009
   0.07577618  0.07756050  0.00000000       0.009
   0.09095078  0.07754154  0.00000000       0.009
   0.10612539  0.07752257  0.00000000       0.009
  -0.10631904  0.07778812  0.00000000       0.009
  -0.09114444  0.07776916  0.00000000       0.009
  -0.07596984  0.07775019  0.00000000       0.009
  -0.06079523  0.07773122  0.00000000       0.009
  -0.04562063  0.07771225  0.00000000       0.009
  -0.03044603  0.07769328  0.00000000       0.009
  -0.01527143  0.07767431  0.00000000       0.009
  -0.00011619  0.09318642  0.00000000       0.009
   0.01505841  0.09316745  0.00000000       0.009
   0.03023301  0.09314848  0.00000000       0.009
   0.04540761  0.09312951  0.00000000       0.009
   0.06058222  0.09311054  0.00000000       0.009
   0.07575682  0.09309157  0.00000000       0.009
   0.09093142  0.09307261  0.00000000       0.009
   0.10610602  0.09305364  0.00000000       0.009
  -0.10633841  0.09331919  0.00000000       0.009
  -0.09116380  0.09330022  0.00000000       0.009
  -0.07598920  0.09328126  0.00000000       0.009
  -0.06081460  0.09326229  0.00000000       0.009
  -0.04564000  0.09324332  0.00000000       0.009
  -0.03046540  0.09322435  0.00000000       0.009
  -0.01529079  0.09320538  0.00000000       0.009
  -0.00013556  0.10871748  0.00000000       0.009
   0.01503904  0.10869852  0.00000000       0.009
   0.03021365  0.10867955  0.00000000       0.009
   0.04538825  0.10866058  0.00000000       0.009
   0.06056285  0.10864161  0.00000000       0.009
   0.07573745  0.10862264  0.00000000       0.009
   0.09091205  0.10860367  0.00000000       0.009
   0.10608666  0.10858471  0.00000000       0.009
  -0.10635777  0.10885026  0.00000000       0.009
  -0.09118317  0.10883129  0.00000000       0.009
  -0.07600857  0.10881233  0.00000000       0.009
  -0.06083397  0.10879336  0.00000000       0.009
  -0.04565936  0.10877439  0.00000000       0.009
  -0.03048476  0.10875542  0.00000000       0.009
  -0.01531016  0.10873645  0.00000000       0.009
 
 k-points in reciprocal lattice and weights: KMesh Grid                              
   0.00000000  0.00000000  0.00000000       0.004
   0.06666667 -0.00000000  0.00000000       0.009
   0.13333333 -0.00000000  0.00000000       0.009
   0.20000000  0.00000000  0.00000000       0.009
   0.26666667 -0.00000000  0.00000000       0.009
   0.33333333 -0.00000000  0.00000000       0.009
   0.40000000  0.00000000  0.00000000       0.009
   0.46666667 -0.00000000  0.00000000       0.009
   0.00000000  0.06666667  0.00000000       0.009
   0.06666667  0.06666667  0.00000000       0.009
   0.13333333  0.06666667  0.00000000       0.009
   0.20000000  0.06666667  0.00000000       0.009
   0.26666667  0.06666667  0.00000000       0.009
   0.33333333  0.06666667  0.00000000       0.009
   0.40000000  0.06666667  0.00000000       0.009
   0.46666667  0.06666667  0.00000000       0.009
  -0.46666667  0.06666667  0.00000000       0.009
  -0.40000000  0.06666667  0.00000000       0.009
  -0.33333333  0.06666667  0.00000000       0.009
  -0.26666667  0.06666667  0.00000000       0.009
  -0.20000000  0.06666667  0.00000000       0.009
  -0.13333333  0.06666667  0.00000000       0.009
  -0.06666667  0.06666667  0.00000000       0.009
   0.00000000  0.13333333  0.00000000       0.009
   0.06666667  0.13333333  0.00000000       0.009
   0.13333333  0.13333333  0.00000000       0.009
   0.20000000  0.13333333  0.00000000       0.009
   0.26666667  0.13333333  0.00000000       0.009
   0.33333333  0.13333333  0.00000000       0.009
   0.40000000  0.13333333  0.00000000       0.009
   0.46666667  0.13333333  0.00000000       0.009
  -0.46666667  0.13333333  0.00000000       0.009
  -0.40000000  0.13333333  0.00000000       0.009
  -0.33333333  0.13333333  0.00000000       0.009
  -0.26666667  0.13333333  0.00000000       0.009
  -0.20000000  0.13333333  0.00000000       0.009
  -0.13333333  0.13333333  0.00000000       0.009
  -0.06666667  0.13333333  0.00000000       0.009
  -0.00000000  0.20000000  0.00000000       0.009
   0.06666667  0.20000000  0.00000000       0.009
   0.13333333  0.20000000  0.00000000       0.009
   0.20000000  0.20000000  0.00000000       0.009
   0.26666667  0.20000000  0.00000000       0.009
   0.33333333  0.20000000  0.00000000       0.009
   0.40000000  0.20000000  0.00000000       0.009
   0.46666667  0.20000000  0.00000000       0.009
  -0.46666667  0.20000000  0.00000000       0.009
  -0.40000000  0.20000000  0.00000000       0.009
  -0.33333333  0.20000000  0.00000000       0.009
  -0.26666667  0.20000000  0.00000000       0.009
  -0.20000000  0.20000000  0.00000000       0.009
  -0.13333333  0.20000000  0.00000000       0.009
  -0.06666667  0.20000000  0.00000000       0.009
   0.00000000  0.26666667  0.00000000       0.009
   0.06666667  0.26666667  0.00000000       0.009
   0.13333333  0.26666667  0.00000000       0.009
   0.20000000  0.26666667  0.00000000       0.009
   0.26666667  0.26666667  0.00000000       0.009
   0.33333333  0.26666667  0.00000000       0.009
   0.40000000  0.26666667  0.00000000       0.009
   0.46666667  0.26666667  0.00000000       0.009
  -0.46666667  0.26666667  0.00000000       0.009
  -0.40000000  0.26666667  0.00000000       0.009
  -0.33333333  0.26666667  0.00000000       0.009
  -0.26666667  0.26666667  0.00000000       0.009
  -0.20000000  0.26666667  0.00000000       0.009
  -0.13333333  0.26666667  0.00000000       0.009
  -0.06666667  0.26666667  0.00000000       0.009
  -0.00000000  0.33333333  0.00000000       0.009
   0.06666667  0.33333333  0.00000000       0.009
   0.13333333  0.33333333  0.00000000       0.009
   0.20000000  0.33333333  0.00000000       0.009
   0.26666667  0.33333333  0.00000000       0.009
   0.33333333  0.33333333  0.00000000       0.009
   0.40000000  0.33333333  0.00000000       0.009
   0.46666667  0.33333333  0.00000000       0.009
  -0.46666667  0.33333333  0.00000000       0.009
  -0.40000000  0.33333333  0.00000000       0.009
  -0.33333333  0.33333333  0.00000000       0.009
  -0.26666667  0.33333333  0.00000000       0.009
  -0.20000000  0.33333333  0.00000000       0.009
  -0.13333333  0.33333333  0.00000000       0.009
  -0.06666667  0.33333333  0.00000000       0.009
  -0.00000000  0.40000000  0.00000000       0.009
   0.06666667  0.40000000  0.00000000       0.009
   0.13333333  0.40000000  0.00000000       0.009
   0.20000000  0.40000000  0.00000000       0.009
   0.26666667  0.40000000  0.00000000       0.009
   0.33333333  0.40000000  0.00000000       0.009
   0.40000000  0.40000000  0.00000000       0.009
   0.46666667  0.40000000  0.00000000       0.009
  -0.46666667  0.40000000  0.00000000       0.009
  -0.40000000  0.40000000  0.00000000       0.009
  -0.33333333  0.40000000  0.00000000       0.009
  -0.26666667  0.40000000  0.00000000       0.009
  -0.20000000  0.40000000  0.00000000       0.009
  -0.13333333  0.40000000  0.00000000       0.009
  -0.06666667  0.40000000  0.00000000       0.009
   0.00000000  0.46666667  0.00000000       0.009
   0.06666667  0.46666667  0.00000000       0.009
   0.13333333  0.46666667  0.00000000       0.009
   0.20000000  0.46666667  0.00000000       0.009
   0.26666667  0.46666667  0.00000000       0.009
   0.33333333  0.46666667  0.00000000       0.009
   0.40000000  0.46666667  0.00000000       0.009
   0.46666667  0.46666667  0.00000000       0.009
  -0.46666667  0.46666667  0.00000000       0.009
  -0.40000000  0.46666667  0.00000000       0.009
  -0.33333333  0.46666667  0.00000000       0.009
  -0.26666667  0.46666667  0.00000000       0.009
  -0.20000000  0.46666667  0.00000000       0.009
  -0.13333333  0.46666667  0.00000000       0.009
  -0.06666667  0.46666667  0.00000000       0.009
 
 position of ions in fractional coordinates (direct lattice) 
   0.58124336  0.75000000  0.56874314
   0.08124336  0.25000000  0.43125686
   0.03286064  0.25000000  0.56707387
   0.53286061  0.75000000  0.43292613
 
 position of ions in cartesian coordinates  (Angst):
   2.55760800  3.22254241 11.37486283
   0.35826887  1.07356451  8.62513717
   0.14570848  1.07329947 11.34147733
   2.34504748  3.22227737  8.65852267
 


--------------------------------------------------------------------------------------------------------


 k-point  1 :   0.0000 0.0000 0.0000  plane waves:   12671
 k-point  2 :   0.0667-0.0000 0.0000  plane waves:   12634
 k-point  3 :   0.1333-0.0000 0.0000  plane waves:   12612
 k-point  4 :   0.2000 0.0000 0.0000  plane waves:   12573
 k-point  5 :   0.2667-0.0000 0.0000  plane waves:   12555
 k-point  6 :   0.3333-0.0000 0.0000  plane waves:   12606
 k-point  7 :   0.4000 0.0000 0.0000  plane waves:   12622
 k-point  8 :   0.4667-0.0000 0.0000  plane waves:   12617
 k-point  9 :   0.0000 0.0667 0.0000  plane waves:   12611
 k-point 10 :   0.0667 0.0667 0.0000  plane waves:   12623
 k-point 11 :   0.1333 0.0667 0.0000  plane waves:   12596
 k-point 12 :   0.2000 0.0667 0.0000  plane waves:   12583
 k-point 13 :   0.2667 0.0667 0.0000  plane waves:   12583
 k-point 14 :   0.3333 0.0667 0.0000  plane waves:   12598
 k-point 15 :   0.4000 0.0667 0.0000  plane waves:   12612
 k-point 16 :   0.4667 0.0667 0.0000  plane waves:   12629
 k-point 17 :  -0.4667 0.0667 0.0000  plane waves:   12611
 k-point 18 :  -0.4000 0.0667 0.0000  plane waves:   12612
 k-point 19 :  -0.3333 0.0667 0.0000  plane waves:   12612
 k-point 20 :  -0.2667 0.0667 0.0000  plane waves:   12586
 k-point 21 :  -0.2000 0.0667 0.0000  plane waves:   12578
 k-point 22 :  -0.1333 0.0667 0.0000  plane waves:   12614
 k-point 23 :  -0.0667 0.0667 0.0000  plane waves:   12622
 k-point 24 :   0.0000 0.1333 0.0000  plane waves:   12595
 k-point 25 :   0.0667 0.1333 0.0000  plane waves:   12602
 k-point 26 :   0.1333 0.1333 0.0000  plane waves:   12580
 k-point 27 :   0.2000 0.1333 0.0000  plane waves:   12558
 k-point 28 :   0.2667 0.1333 0.0000  plane waves:   12569
 k-point 29 :   0.3333 0.1333 0.0000  plane waves:   12600
 k-point 30 :   0.4000 0.1333 0.0000  plane waves:   12601
 k-point 31 :   0.4667 0.1333 0.0000  plane waves:   12606
 k-point 32 :  -0.4667 0.1333 0.0000  plane waves:   12612
 k-point 33 :  -0.4000 0.1333 0.0000  plane waves:   12612
 k-point 34 :  -0.3333 0.1333 0.0000  plane waves:   12610
 k-point 35 :  -0.2667 0.1333 0.0000  plane waves:   12589
 k-point 36 :  -0.2000 0.1333 0.0000  plane waves:   12582
 k-point 37 :  -0.1333 0.1333 0.0000  plane waves:   12582
 k-point 38 :  -0.0667 0.1333 0.0000  plane waves:   12604
 k-point 39 :  -0.0000 0.2000 0.0000  plane waves:   12609
 k-point 40 :   0.0667 0.2000 0.0000  plane waves:   12594
 k-point 41 :   0.1333 0.2000 0.0000  plane waves:   12592
 k-point 42 :   0.2000 0.2000 0.0000  plane waves:   12591
 k-point 43 :   0.2667 0.2000 0.0000  plane waves:   12581
 k-point 44 :   0.3333 0.2000 0.0000  plane waves:   12590
 k-point 45 :   0.4000 0.2000 0.0000  plane waves:   12604
 k-point 46 :   0.4667 0.2000 0.0000  plane waves:   12619
 k-point 47 :  -0.4667 0.2000 0.0000  plane waves:   12610
 k-point 48 :  -0.4000 0.2000 0.0000  plane waves:   12610
 k-point 49 :  -0.3333 0.2000 0.0000  plane waves:   12585
 k-point 50 :  -0.2667 0.2000 0.0000  plane waves:   12586
 k-point 51 :  -0.2000 0.2000 0.0000  plane waves:   12597
 k-point 52 :  -0.1333 0.2000 0.0000  plane waves:   12578
 k-point 53 :  -0.0667 0.2000 0.0000  plane waves:   12585
 k-point 54 :   0.0000 0.2667 0.0000  plane waves:   12584
 k-point 55 :   0.0667 0.2667 0.0000  plane waves:   12580
 k-point 56 :   0.1333 0.2667 0.0000  plane waves:   12577
 k-point 57 :   0.2000 0.2667 0.0000  plane waves:   12584
 k-point 58 :   0.2667 0.2667 0.0000  plane waves:   12590
 k-point 59 :   0.3333 0.2667 0.0000  plane waves:   12585
 k-point 60 :   0.4000 0.2667 0.0000  plane waves:   12591
 k-point 61 :   0.4667 0.2667 0.0000  plane waves:   12591
 k-point 62 :  -0.4667 0.2667 0.0000  plane waves:   12599
 k-point 63 :  -0.4000 0.2667 0.0000  plane waves:   12590
 k-point 64 :  -0.3333 0.2667 0.0000  plane waves:   12591
 k-point 65 :  -0.2667 0.2667 0.0000  plane waves:   12586
 k-point 66 :  -0.2000 0.2667 0.0000  plane waves:   12595
 k-point 67 :  -0.1333 0.2667 0.0000  plane waves:   12579
 k-point 68 :  -0.0667 0.2667 0.0000  plane waves:   12589
 k-point 69 :  -0.0000 0.3333 0.0000  plane waves:   12567
 k-point 70 :   0.0667 0.3333 0.0000  plane waves:   12563
 k-point 71 :   0.1333 0.3333 0.0000  plane waves:   12568
 k-point 72 :   0.2000 0.3333 0.0000  plane waves:   12581
 k-point 73 :   0.2667 0.3333 0.0000  plane waves:   12569
 k-point 74 :   0.3333 0.3333 0.0000  plane waves:   12576
 k-point 75 :   0.4000 0.3333 0.0000  plane waves:   12583
 k-point 76 :   0.4667 0.3333 0.0000  plane waves:   12587
 k-point 77 :  -0.4667 0.3333 0.0000  plane waves:   12595
 k-point 78 :  -0.4000 0.3333 0.0000  plane waves:   12587
 k-point 79 :  -0.3333 0.3333 0.0000  plane waves:   12576
 k-point 80 :  -0.2667 0.3333 0.0000  plane waves:   12583
 k-point 81 :  -0.2000 0.3333 0.0000  plane waves:   12587
 k-point 82 :  -0.1333 0.3333 0.0000  plane waves:   12569
 k-point 83 :  -0.0667 0.3333 0.0000  plane waves:   12556
 k-point 84 :  -0.0000 0.4000 0.0000  plane waves:   12541
 k-point 85 :   0.0667 0.4000 0.0000  plane waves:   12546
 k-point 86 :   0.1333 0.4000 0.0000  plane waves:   12564
 k-point 87 :   0.2000 0.4000 0.0000  plane waves:   12568
 k-point 88 :   0.2667 0.4000 0.0000  plane waves:   12586
 k-point 89 :   0.3333 0.4000 0.0000  plane waves:   12569
 k-point 90 :   0.4000 0.4000 0.0000  plane waves:   12575
 k-point 91 :   0.4667 0.4000 0.0000  plane waves:   12567
 k-point 92 :  -0.4667 0.4000 0.0000  plane waves:   12578
 k-point 93 :  -0.4000 0.4000 0.0000  plane waves:   12567
 k-point 94 :  -0.3333 0.4000 0.0000  plane waves:   12573
 k-point 95 :  -0.2667 0.4000 0.0000  plane waves:   12585
 k-point 96 :  -0.2000 0.4000 0.0000  plane waves:   12568
 k-point 97 :  -0.1333 0.4000 0.0000  plane waves:   12570
 k-point 98 :  -0.0667 0.4000 0.0000  plane waves:   12551
 k-point 99 :   0.0000 0.4667 0.0000  plane waves:   12567
 k-point ** :   0.0667 0.4667 0.0000  plane waves:   12544
 k-point ** :   0.1333 0.4667 0.0000  plane waves:   12564
 k-point ** :   0.2000 0.4667 0.0000  plane waves:   12568
 k-point ** :   0.2667 0.4667 0.0000  plane waves:   12550
 k-point ** :   0.3333 0.4667 0.0000  plane waves:   12563
 k-point ** :   0.4000 0.4667 0.0000  plane waves:   12564
 k-point ** :   0.4667 0.4667 0.0000  plane waves:   12571
 k-point ** :  -0.4667 0.4667 0.0000  plane waves:   12573
 k-point ** :  -0.4000 0.4667 0.0000  plane waves:   12552
 k-point ** :  -0.3333 0.4667 0.0000  plane waves:   12560
 k-point ** :  -0.2667 0.4667 0.0000  plane waves:   12570
 k-point ** :  -0.2000 0.4667 0.0000  plane waves:   12573
 k-point ** :  -0.1333 0.4667 0.0000  plane waves:   12564
 k-point ** :  -0.0667 0.4667 0.0000  plane waves:   12564

 maximum and minimum number of plane-waves per node :       547      500

 maximum number of plane-waves:     12671
 maximum index in each direction: 
   IXMAX=    9   IYMAX=    8   IZMAX=   39
   IXMIN=   -9   IYMIN=   -9   IZMIN=  -39


 parallel 3D FFT for wavefunctions:
    minimum data exchange during FFTs selected (reduces bandwidth)
 parallel 3D FFT for charge:
    minimum data exchange during FFTs selected (reduces bandwidth)


 total amount of memory used by VASP MPI-rank0    63416. kBytes
=======================================================================

   base      :      30000. kBytes
   nonl-proj :      12561. kBytes
   fftplans  :       2678. kBytes
   grid      :       4349. kBytes
   one-center:          8. kBytes
   wavefun   :      13820. kBytes
 
     INWAV:  cpu time    0.0001: real time    0.0002
 Broyden mixing: mesh for mixing (old mesh)
   NGX = 17   NGY = 17   NGZ = 79
  (NGX  = 72   NGY  = 72   NGZ  =320)
  gives a total of  22831 points

 initial charge density was supplied:
 charge density of overlapping atoms calculated
 number of electron      20.0000000 magnetization 
 keeping initial charge density in first step


--------------------------------------------------------------------------------------------------------


 Maximum index for augmentation-charges         2218 (set IRDMAX)


--------------------------------------------------------------------------------------------------------


 First call to EWALD:  gamma=   0.245
 Maximum number of real-space cells 4x 4x 1
 Maximum number of reciprocal cells 2x 2x 7

    FEWALD:  cpu time    0.0013: real time    0.0013


--------------------------------------- Iteration      1(   1)  ---------------------------------------


    POTLOK:  cpu time    0.0618: real time    0.4621
    SETDIJ:  cpu time    0.0071: real time    0.0107
     EDDAV:  cpu time    3.1763: real time    3.1934
       DOS:  cpu time    0.0053: real time    0.0054
    --------------------------------------------
      LOOP:  cpu time    3.2505: real time    3.6717

 eigenvalue-minimisations  :  3164
 total energy-change (2. order) : 0.1439933E+03  (-0.6248271E+03)
 number of electron      20.0000000 magnetization 
 augmentation part       20.0000000 magnetization 

 Free energy of the ion-electron system (eV)
  ---------------------------------------------------
  alpha Z        PSCENC =         9.48053103
  Ewald energy   TEWEN  =      1148.71758670
  -Hartree energ DENC   =     -1750.55984367
  -exchange      EXHF   =         0.00000000
  -V(xc)+E(xc)   XCENC  =      -238.60457742
  PAW double counting   =       799.43158084     -524.17639913
  entropy T*S    EENTRO =        -0.00958536
  eigenvalues    EBANDS =        -2.71391882
  atomic energy  EATOM  =       702.42789710
  Solvation  Ediel_sol  =         0.00000000
  ---------------------------------------------------
  free energy    TOTEN  =       143.99327127 eV

  energy without entropy =      144.00285663  energy(sigma->0) =      143.99806395


--------------------------------------------------------------------------------------------------------




--------------------------------------- Iteration      1(   2)  ---------------------------------------


     EDDAV:  cpu time    3.7236: real time    3.7341
       DOS:  cpu time    0.0055: real time    0.0055
    --------------------------------------------
      LOOP:  cpu time    3.7291: real time    3.7397

 eigenvalue-minimisations  :  5262
 total energy-change (2. order) :-0.1396697E+03  (-0.1358545E+03)
 number of electron      20.0000000 magnetization 
 augmentation part       20.0000000 magnetization 

 Free energy of the ion-electron system (eV)
  ---------------------------------------------------
  alpha Z        PSCENC =         9.48053103
  Ewald energy   TEWEN  =      1148.71758670
  -Hartree energ DENC   =     -1750.55984367
  -exchange      EXHF   =         0.00000000
  -V(xc)+E(xc)   XCENC  =      -238.60457742
  PAW double counting   =       799.43158084     -524.17639913
  entropy T*S    EENTRO =        -0.00193075
  eigenvalues    EBANDS =      -142.39126156
  atomic energy  EATOM  =       702.42789710
  Solvation  Ediel_sol  =         0.00000000
  ---------------------------------------------------
  free energy    TOTEN  =         4.32358314 eV

  energy without entropy =        4.32551389  energy(sigma->0) =        4.32454851


--------------------------------------------------------------------------------------------------------




--------------------------------------- Iteration      1(   3)  ---------------------------------------


     EDDAV:  cpu time    3.0482: real time    3.0570
       DOS:  cpu time    0.0035: real time    0.0036
    --------------------------------------------
      LOOP:  cpu time    3.0517: real time    3.0605

 eigenvalue-minimisations  :  4028
 total energy-change (2. order) :-0.2034340E+02  (-0.2017814E+02)
 number of electron      20.0000000 magnetization 
 augmentation part       20.0000000 magnetization 

 Free energy of the ion-electron system (eV)
  ---------------------------------------------------
  alpha Z        PSCENC =         9.48053103
  Ewald energy   TEWEN  =      1148.71758670
  -Hartree energ DENC   =     -1750.55984367
  -exchange      EXHF   =         0.00000000
  -V(xc)+E(xc)   XCENC  =      -238.60457742
  PAW double counting   =       799.43158084     -524.17639913
  entropy T*S    EENTRO =        -0.00000000
  eigenvalues    EBANDS =      -162.73659510
  atomic energy  EATOM  =       702.42789710
  Solvation  Ediel_sol  =         0.00000000
  ---------------------------------------------------
  free energy    TOTEN  =       -16.01981965 eV

  energy without entropy =      -16.01981965  energy(sigma->0) =      -16.01981965


--------------------------------------------------------------------------------------------------------




--------------------------------------- Iteration      1(   4)  ---------------------------------------


     EDDAV:  cpu time    3.2876: real time    3.2972
       DOS:  cpu time    0.0036: real time    0.0036
    --------------------------------------------
      LOOP:  cpu time    3.2911: real time    3.3008

 eigenvalue-minimisations  :  4528
 total energy-change (2. order) :-0.7625303E+00  (-0.7602748E+00)
 number of electron      20.0000000 magnetization 
 augmentation part       20.0000000 magnetization 

 Free energy of the ion-electron system (eV)
  ---------------------------------------------------
  alpha Z        PSCENC =         9.48053103
  Ewald energy   TEWEN  =      1148.71758670
  -Hartree energ DENC   =     -1750.55984367
  -exchange      EXHF   =         0.00000000
  -V(xc)+E(xc)   XCENC  =      -238.60457742
  PAW double counting   =       799.43158084     -524.17639913
  entropy T*S    EENTRO =        -0.00000000
  eigenvalues    EBANDS =      -163.49912544
  atomic energy  EATOM  =       702.42789710
  Solvation  Ediel_sol  =         0.00000000
  ---------------------------------------------------
  free energy    TOTEN  =       -16.78234999 eV

  energy without entropy =      -16.78234999  energy(sigma->0) =      -16.78234999


--------------------------------------------------------------------------------------------------------




--------------------------------------- Iteration      1(   5)  ---------------------------------------


     EDDAV:  cpu time    3.0513: real time    3.0599
       DOS:  cpu time    0.0037: real time    0.0037
    CHARGE:  cpu time    0.2247: real time    0.2252
    MIXING:  cpu time    0.0019: real time    0.0023
    --------------------------------------------
      LOOP:  cpu time    3.2816: real time    3.2911

 eigenvalue-minimisations  :  4158
 total energy-change (2. order) :-0.1653842E-01  (-0.1652499E-01)
 number of electron      20.0000000 magnetization 
 augmentation part       -4.5224037 magnetization 

 Broyden mixing:
  rms(total) = 0.45018E+00    rms(broyden)= 0.45018E+00
  rms(prec ) = 0.49115E+00
  weight for this iteration     100.00

 Free energy of the ion-electron system (eV)
  ---------------------------------------------------
  alpha Z        PSCENC =         9.48053103
  Ewald energy   TEWEN  =      1148.71758670
  -Hartree energ DENC   =     -1750.55984367
  -exchange      EXHF   =         0.00000000
  -V(xc)+E(xc)   XCENC  =      -238.60457742
  PAW double counting   =       799.43158084     -524.17639913
  entropy T*S    EENTRO =        -0.00000000
  eigenvalues    EBANDS =      -163.51566386
  atomic energy  EATOM  =       702.42789710
  Solvation  Ediel_sol  =         0.00000000
  ---------------------------------------------------
  free energy    TOTEN  =       -16.79888841 eV

  energy without entropy =      -16.79888841  energy(sigma->0) =      -16.79888841


--------------------------------------------------------------------------------------------------------




--------------------------------------- Iteration      1(   6)  ---------------------------------------


    POTLOK:  cpu time    0.0372: real time    0.0373
    SETDIJ:  cpu time    0.0036: real time    0.0036
     EDDAV:  cpu time    2.9678: real time    2.9769
       DOS:  cpu time    0.0037: real time    0.0037
    CHARGE:  cpu time    0.2288: real time    0.2294
    MIXING:  cpu time    0.0014: real time    0.0016
    --------------------------------------------
      LOOP:  cpu time    3.2424: real time    3.2524

 eigenvalue-minimisations  :  3918
 total energy-change (2. order) : 0.4942038E+00  (-0.1266685E+00)
 number of electron      20.0000000 magnetization 
 augmentation part       -4.4897155 magnetization 

 Broyden mixing:
  rms(total) = 0.27600E+00    rms(broyden)= 0.27600E+00
  rms(prec ) = 0.28517E+00
  weight for this iteration     100.00

 eigenvalues of (default mixing * dielectric matrix)
  average eigenvalue GAMMA=   1.7883
  1.7883

 Free energy of the ion-electron system (eV)
  ---------------------------------------------------
  alpha Z        PSCENC =         9.48053103
  Ewald energy   TEWEN  =      1148.71758670
  -Hartree energ DENC   =     -1758.45615586
  -exchange      EXHF   =         0.00000000
  -V(xc)+E(xc)   XCENC  =      -238.12060617
  PAW double counting   =       923.52731237     -648.45272283
  entropy T*S    EENTRO =        -0.00000000
  eigenvalues    EBANDS =      -155.42852696
  atomic energy  EATOM  =       702.42789710
  Solvation  Ediel_sol  =         0.00000000
  ---------------------------------------------------
  free energy    TOTEN  =       -16.30468462 eV

  energy without entropy =      -16.30468462  energy(sigma->0) =      -16.30468462


--------------------------------------------------------------------------------------------------------




--------------------------------------- Iteration      1(   7)  ---------------------------------------


    POTLOK:  cpu time    0.0374: real time    0.0375
    SETDIJ:  cpu time    0.0035: real time    0.0035
     EDDAV:  cpu time    3.0297: real time    3.0377
       DOS:  cpu time    0.0038: real time    0.0038
    CHARGE:  cpu time    0.2360: real time    0.2365
    MIXING:  cpu time    0.0014: real time    0.0015
    --------------------------------------------
      LOOP:  cpu time    3.3116: real time    3.3205

 eigenvalue-minimisations  :  4116
 total energy-change (2. order) : 0.2699373E-01  (-0.3123041E-01)
 number of electron      20.0000000 magnetization 
 augmentation part       -4.4816115 magnetization 

 Broyden mixing:
  rms(total) = 0.10539E+00    rms(broyden)= 0.10539E+00
  rms(prec ) = 0.11079E+00
  weight for this iteration     100.00

 eigenvalues of (default mixing * dielectric matrix)
  average eigenvalue GAMMA=   1.7300
  1.3687  2.0914

 Free energy of the ion-electron system (eV)
  ---------------------------------------------------
  alpha Z        PSCENC =         9.48053103
  Ewald energy   TEWEN  =      1148.71758670
  -Hartree energ DENC   =     -1763.42983788
  -exchange      EXHF   =         0.00000000
  -V(xc)+E(xc)   XCENC  =      -237.79908966
  PAW double counting   =      1063.11707389     -788.17869675
  entropy T*S    EENTRO =        -0.00000000
  eigenvalues    EBANDS =      -150.61315532
  atomic energy  EATOM  =       702.42789710
  Solvation  Ediel_sol  =         0.00000000
  ---------------------------------------------------
  free energy    TOTEN  =       -16.27769089 eV

  energy without entropy =      -16.27769089  energy(sigma->0) =      -16.27769089


--------------------------------------------------------------------------------------------------------




--------------------------------------- Iteration      1(   8)  ---------------------------------------


    POTLOK:  cpu time    0.0387: real time    0.0388
    SETDIJ:  cpu time    0.0036: real time    0.0036
     EDDAV:  cpu time    3.2942: real time    3.3037
       DOS:  cpu time    0.0038: real time    0.0038
    CHARGE:  cpu time    0.2422: real time    0.2428
    MIXING:  cpu time    0.0014: real time    0.0014
    --------------------------------------------
      LOOP:  cpu time    3.5839: real time    3.5941

 eigenvalue-minimisations  :  4448
 total energy-change (2. order) : 0.9543020E-02  (-0.3789002E-02)
 number of electron      20.0000000 magnetization 
 augmentation part       -4.4858124 magnetization 

 Broyden mixing:
  rms(total) = 0.20311E-01    rms(broyden)= 0.20311E-01
  rms(prec ) = 0.27750E-01
  weight for this iteration     100.00

 eigenvalues of (default mixing * dielectric matrix)
  average eigenvalue GAMMA=   1.7030
  2.5245  1.2923  1.2923

 Free energy of the ion-electron system (eV)
  ---------------------------------------------------
  alpha Z        PSCENC =         9.48053103
  Ewald energy   TEWEN  =      1148.71758670
  -Hartree energ DENC   =     -1765.15180708
  -exchange      EXHF   =         0.00000000
  -V(xc)+E(xc)   XCENC  =      -237.71872941
  PAW double counting   =      1129.47556751     -854.57599150
  entropy T*S    EENTRO =        -0.00000000
  eigenvalues    EBANDS =      -148.92320221
  atomic energy  EATOM  =       702.42789710
  Solvation  Ediel_sol  =         0.00000000
  ---------------------------------------------------
  free energy    TOTEN  =       -16.26814787 eV

  energy without entropy =      -16.26814787  energy(sigma->0) =      -16.26814787


--------------------------------------------------------------------------------------------------------




--------------------------------------- Iteration      1(   9)  ---------------------------------------


    POTLOK:  cpu time    0.0388: real time    0.0390
    SETDIJ:  cpu time    0.0036: real time    0.0036
     EDDAV:  cpu time    3.2460: real time    3.2558
       DOS:  cpu time    0.0039: real time    0.0039
    CHARGE:  cpu time    0.2299: real time    0.2305
    MIXING:  cpu time    0.0013: real time    0.0013
    --------------------------------------------
      LOOP:  cpu time    3.5235: real time    3.5340

 eigenvalue-minimisations  :  4316
 total energy-change (2. order) : 0.3711284E-02  (-0.6548673E-03)
 number of electron      20.0000000 magnetization 
 augmentation part       -4.4839539 magnetization 

 Broyden mixing:
  rms(total) = 0.10039E-01    rms(broyden)= 0.10039E-01
  rms(prec ) = 0.15623E-01
  weight for this iteration     100.00

 eigenvalues of (default mixing * dielectric matrix)
  average eigenvalue GAMMA=   1.7083
  2.2262  2.2262  1.1904  1.1904

 Free energy of the ion-electron system (eV)
  ---------------------------------------------------
  alpha Z        PSCENC =         9.48053103
  Ewald energy   TEWEN  =      1148.71758670
  -Hartree energ DENC   =     -1767.11785639
  -exchange      EXHF   =         0.00000000
  -V(xc)+E(xc)   XCENC  =      -237.64589598
  PAW double counting   =      1147.32208987     -872.43419339
  entropy T*S    EENTRO =        -0.00000000
  eigenvalues    EBANDS =      -147.01459553
  atomic energy  EATOM  =       702.42789710
  Solvation  Ediel_sol  =         0.00000000
  ---------------------------------------------------
  free energy    TOTEN  =       -16.26443659 eV

  energy without entropy =      -16.26443659  energy(sigma->0) =      -16.26443659


--------------------------------------------------------------------------------------------------------




--------------------------------------- Iteration      1(  10)  ---------------------------------------


    POTLOK:  cpu time    0.0385: real time    0.0387
    SETDIJ:  cpu time    0.0035: real time    0.0035
     EDDAV:  cpu time    3.2654: real time    3.2750
       DOS:  cpu time    0.0038: real time    0.0038
    CHARGE:  cpu time    0.2332: real time    0.2339
    MIXING:  cpu time    0.0014: real time    0.0014
    --------------------------------------------
      LOOP:  cpu time    3.5459: real time    3.5563

 eigenvalue-minimisations  :  4364
 total energy-change (2. order) : 0.1275986E-02  (-0.1202139E-03)
 number of electron      20.0000000 magnetization 
 augmentation part       -4.4826972 magnetization 

 Broyden mixing:
  rms(total) = 0.50739E-02    rms(broyden)= 0.50739E-02
  rms(prec ) = 0.93755E-02
  weight for this iteration     100.00

 eigenvalues of (default mixing * dielectric matrix)
  average eigenvalue GAMMA=   1.8609
  3.3292  2.5982  1.2356  1.2356  0.9058

 Free energy of the ion-electron system (eV)
  ---------------------------------------------------
  alpha Z        PSCENC =         9.48053103
  Ewald energy   TEWEN  =      1148.71758670
  -Hartree energ DENC   =     -1768.38085286
  -exchange      EXHF   =         0.00000000
  -V(xc)+E(xc)   XCENC  =      -237.63463106
  PAW double counting   =      1137.08282090     -862.18498619
  entropy T*S    EENTRO =        -0.00000000
  eigenvalues    EBANDS =      -145.77152623
  atomic energy  EATOM  =       702.42789710
  Solvation  Ediel_sol  =         0.00000000
  ---------------------------------------------------
  free energy    TOTEN  =       -16.26316060 eV

  energy without entropy =      -16.26316060  energy(sigma->0) =      -16.26316060


--------------------------------------------------------------------------------------------------------




--------------------------------------- Iteration      1(  11)  ---------------------------------------


    POTLOK:  cpu time    0.0390: real time    0.0391
    SETDIJ:  cpu time    0.0034: real time    0.0034
     EDDAV:  cpu time    3.1890: real time    3.1988
       DOS:  cpu time    0.0039: real time    0.0039
    CHARGE:  cpu time    0.2292: real time    0.2298
    MIXING:  cpu time    0.0014: real time    0.0014
    --------------------------------------------
      LOOP:  cpu time    3.4659: real time    3.4764

 eigenvalue-minimisations  :  4292
 total energy-change (2. order) : 0.7416074E-03  (-0.1266806E-03)
 number of electron      20.0000000 magnetization 
 augmentation part       -4.4813116 magnetization 

 Broyden mixing:
  rms(total) = 0.32543E-02    rms(broyden)= 0.32543E-02
  rms(prec ) = 0.49927E-02
  weight for this iteration     100.00

 eigenvalues of (default mixing * dielectric matrix)
  average eigenvalue GAMMA=   1.8295
  3.4010  2.3457  1.9671  1.1904  1.1904  0.8826

 Free energy of the ion-electron system (eV)
  ---------------------------------------------------
  alpha Z        PSCENC =         9.48053103
  Ewald energy   TEWEN  =      1148.71758670
  -Hartree energ DENC   =     -1769.98446772
  -exchange      EXHF   =         0.00000000
  -V(xc)+E(xc)   XCENC  =      -237.60315726
  PAW double counting   =      1138.45458452     -863.55562523
  entropy T*S    EENTRO =        -0.00000000
  eigenvalues    EBANDS =      -144.19976813
  atomic energy  EATOM  =       702.42789710
  Solvation  Ediel_sol  =         0.00000000
  ---------------------------------------------------
  free energy    TOTEN  =       -16.26241899 eV

  energy without entropy =      -16.26241899  energy(sigma->0) =      -16.26241899


--------------------------------------------------------------------------------------------------------




--------------------------------------- Iteration      1(  12)  ---------------------------------------


    POTLOK:  cpu time    0.0814: real time    0.0816
    SETDIJ:  cpu time    0.0038: real time    0.0038
     EDDAV:  cpu time    2.8442: real time    2.8527
       DOS:  cpu time    0.0038: real time    0.0038
    CHARGE:  cpu time    0.2396: real time    0.2403
    MIXING:  cpu time    0.0016: real time    0.0015
    --------------------------------------------
      LOOP:  cpu time    3.1743: real time    3.1838

 eigenvalue-minimisations  :  3638
 total energy-change (2. order) :-0.8146526E-03  (-0.2899264E-04)
 number of electron      20.0000000 magnetization 
 augmentation part       -4.4806810 magnetization 

 Broyden mixing:
  rms(total) = 0.18212E-02    rms(broyden)= 0.18212E-02
  rms(prec ) = 0.28128E-02
  weight for this iteration     100.00

 eigenvalues of (default mixing * dielectric matrix)
  average eigenvalue GAMMA=   2.0649
  4.6060  3.0702  2.5009  1.2033  1.2033  1.0260  0.8450

 Free energy of the ion-electron system (eV)
  ---------------------------------------------------
  alpha Z        PSCENC =         9.48053103
  Ewald energy   TEWEN  =      1148.71758670
  -Hartree energ DENC   =     -1770.62296528
  -exchange      EXHF   =         0.00000000
  -V(xc)+E(xc)   XCENC  =      -237.59355511
  PAW double counting   =      1140.20669966     -865.31033734
  entropy T*S    EENTRO =        -0.00000000
  eigenvalues    EBANDS =      -143.56909041
  atomic energy  EATOM  =       702.42789710
  Solvation  Ediel_sol  =         0.00000000
  ---------------------------------------------------
  free energy    TOTEN  =       -16.26323365 eV

  energy without entropy =      -16.26323365  energy(sigma->0) =      -16.26323365


--------------------------------------------------------------------------------------------------------




--------------------------------------- Iteration      1(  13)  ---------------------------------------


    POTLOK:  cpu time    0.0397: real time    0.0398
    SETDIJ:  cpu time    0.0035: real time    0.0035
     EDDAV:  cpu time    2.8743: real time    2.8829
       DOS:  cpu time    0.0039: real time    0.0039
    CHARGE:  cpu time    0.2385: real time    0.2391
    MIXING:  cpu time    0.0017: real time    0.0017
    --------------------------------------------
      LOOP:  cpu time    3.1616: real time    3.1709

 eigenvalue-minimisations  :  3704
 total energy-change (2. order) :-0.4362675E-03  (-0.7981492E-05)
 number of electron      20.0000000 magnetization 
 augmentation part       -4.4804745 magnetization 

 Broyden mixing:
  rms(total) = 0.11301E-02    rms(broyden)= 0.11301E-02
  rms(prec ) = 0.15100E-02
  weight for this iteration     100.00

 eigenvalues of (default mixing * dielectric matrix)
  average eigenvalue GAMMA=   2.2336
  5.6220  3.2981  2.5037  2.1506  1.1576  1.1576  1.0698  0.9093

 Free energy of the ion-electron system (eV)
  ---------------------------------------------------
  alpha Z        PSCENC =         9.48053103
  Ewald energy   TEWEN  =      1148.71758670
  -Hartree energ DENC   =     -1771.03683393
  -exchange      EXHF   =         0.00000000
  -V(xc)+E(xc)   XCENC  =      -237.59218641
  PAW double counting   =      1139.07382265     -864.17630914
  entropy T*S    EENTRO =        -0.00000000
  eigenvalues    EBANDS =      -143.15817790
  atomic energy  EATOM  =       702.42789710
  Solvation  Ediel_sol  =         0.00000000
  ---------------------------------------------------
  free energy    TOTEN  =       -16.26366991 eV

  energy without entropy =      -16.26366991  energy(sigma->0) =      -16.26366991


--------------------------------------------------------------------------------------------------------




--------------------------------------- Iteration      1(  14)  ---------------------------------------


    POTLOK:  cpu time    0.0405: real time    0.0407
    SETDIJ:  cpu time    0.0034: real time    0.0034
     EDDAV:  cpu time    2.9681: real time    2.9770
       DOS:  cpu time    0.0038: real time    0.0038
    CHARGE:  cpu time    0.2279: real time    0.2285
    MIXING:  cpu time    0.0016: real time    0.0016
    --------------------------------------------
      LOOP:  cpu time    3.2453: real time    3.2550

 eigenvalue-minimisations  :  3914
 total energy-change (2. order) :-0.2669998E-03  (-0.4143858E-05)
 number of electron      20.0000000 magnetization 
 augmentation part       -4.4804457 magnetization 

 Broyden mixing:
  rms(total) = 0.39658E-03    rms(broyden)= 0.39658E-03
  rms(prec ) = 0.61594E-03
  weight for this iteration     100.00

 eigenvalues of (default mixing * dielectric matrix)
  average eigenvalue GAMMA=   2.2444
  6.7446  3.0758  2.5325  2.5325  1.1834  1.1834  1.0337  0.9568  0.9568

 Free energy of the ion-electron system (eV)
  ---------------------------------------------------
  alpha Z        PSCENC =         9.48053103
  Ewald energy   TEWEN  =      1148.71758670
  -Hartree energ DENC   =     -1771.24557018
  -exchange      EXHF   =         0.00000000
  -V(xc)+E(xc)   XCENC  =      -237.59206098
  PAW double counting   =      1139.32316822     -864.42512093
  entropy T*S    EENTRO =        -0.00000000
  eigenvalues    EBANDS =      -142.95036787
  atomic energy  EATOM  =       702.42789710
  Solvation  Ediel_sol  =         0.00000000
  ---------------------------------------------------
  free energy    TOTEN  =       -16.26393691 eV

  energy without entropy =      -16.26393691  energy(sigma->0) =      -16.26393691


--------------------------------------------------------------------------------------------------------




--------------------------------------- Iteration      1(  15)  ---------------------------------------


    POTLOK:  cpu time    0.0433: real time    0.0435
    SETDIJ:  cpu time    0.0034: real time    0.0034
     EDDAV:  cpu time    2.9391: real time    2.9477
       DOS:  cpu time    0.0038: real time    0.0038
    CHARGE:  cpu time    0.2312: real time    0.2318
    MIXING:  cpu time    0.0017: real time    0.0017
    --------------------------------------------
      LOOP:  cpu time    3.2225: real time    3.2319

 eigenvalue-minimisations  :  3812
 total energy-change (2. order) :-0.5719048E-04  (-0.2036483E-06)
 number of electron      20.0000000 magnetization 
 augmentation part       -4.4804632 magnetization 

 Broyden mixing:
  rms(total) = 0.32737E-03    rms(broyden)= 0.32737E-03
  rms(prec ) = 0.50076E-03
  weight for this iteration     100.00

 eigenvalues of (default mixing * dielectric matrix)
  average eigenvalue GAMMA=   2.3553
  6.5511  4.2631  2.7038  2.7038  1.9719  1.1413  1.1413  1.2057  0.9356  0.9356

 Free energy of the ion-electron system (eV)
  ---------------------------------------------------
  alpha Z        PSCENC =         9.48053103
  Ewald energy   TEWEN  =      1148.71758670
  -Hartree energ DENC   =     -1771.26082360
  -exchange      EXHF   =         0.00000000
  -V(xc)+E(xc)   XCENC  =      -237.59245859
  PAW double counting   =      1139.11910188     -864.22089969
  entropy T*S    EENTRO =        -0.00000000
  eigenvalues    EBANDS =      -142.93492893
  atomic energy  EATOM  =       702.42789710
  Solvation  Ediel_sol  =         0.00000000
  ---------------------------------------------------
  free energy    TOTEN  =       -16.26399410 eV

  energy without entropy =      -16.26399410  energy(sigma->0) =      -16.26399410


--------------------------------------------------------------------------------------------------------




--------------------------------------- Iteration      1(  16)  ---------------------------------------


    POTLOK:  cpu time    0.0390: real time    0.0392
    SETDIJ:  cpu time    0.0033: real time    0.0033
     EDDAV:  cpu time    2.7480: real time    2.7562
       DOS:  cpu time    0.0039: real time    0.0039
    CHARGE:  cpu time    0.2315: real time    0.2320
    MIXING:  cpu time    0.0018: real time    0.0018
    --------------------------------------------
      LOOP:  cpu time    3.0275: real time    3.0363

 eigenvalue-minimisations  :  3552
 total energy-change (2. order) :-0.4606880E-04  (-0.8251759E-06)
 number of electron      20.0000000 magnetization 
[...]
      3      -8.6712      2.00000
      4      -8.5183      2.00000
      5      -6.3781      2.00000
      6      -5.5191      2.00000
      7      -5.0758      2.00000
      8      -4.3556      2.00000
      9      -3.9487      2.00000
     10      -3.3832      2.00000
     11       0.5102      0.00000
     12       1.3177      0.00000
     13       1.5592      0.00000
     14       2.2024      0.00000

 k-point    95 :      -0.2667    0.4000    0.0000
  band No.  band energies     occupation 
      1     -14.5646      2.00000
      2     -14.3154      2.00000
      3      -8.8463      2.00000
      4      -8.6209      2.00000
      5      -6.0704      2.00000
      6      -5.1209      2.00000
      7      -4.8461      2.00000
      8      -4.1029      2.00000
      9      -3.8554      2.00000
     10      -3.0955      2.00000
     11       0.1091      0.00000
     12       1.0583      0.00000
     13       1.1453      0.00000
     14       1.5607      0.00000

 k-point    96 :      -0.2000    0.4000    0.0000
  band No.  band energies     occupation 
      1     -14.6333      2.00000
      2     -14.3367      2.00000
      3      -9.0060      2.00000
      4      -8.7210      2.00000
      5      -5.6424      2.00000
      6      -4.8382      2.00000
      7      -4.5729      2.00000
      8      -3.9713      2.00000
      9      -3.4998      2.00000
     10      -2.7220      2.00000
     11      -0.3626      0.00000
     12       0.5337      0.00000
     13       0.7003      0.00000
     14       1.2071      0.00000

 k-point    97 :      -0.1333    0.4000    0.0000
  band No.  band energies     occupation 
      1     -14.6884      2.00000
      2     -14.3581      2.00000
      3      -9.1299      2.00000
      4      -8.8030      2.00000
      5      -5.1344      2.00000
      6      -4.7784      2.00000
      7      -4.1601      2.00000
      8      -3.9275      2.00000
      9      -2.9500      2.00000
     10      -2.4995      2.00000
     11      -0.6361      0.00000
     12      -0.1890      0.00000
     13       0.4841      0.00000
     14       0.7675      0.00000

 k-point    98 :      -0.0667    0.4000    0.0000
  band No.  band energies     occupation 
      1     -14.7241      2.00000
      2     -14.3734      2.00000
      3      -9.2071      2.00000
      4      -8.8559      2.00000
      5      -4.7823      2.00000
      6      -4.6088      2.00000
      7      -3.9540      2.00000
      8      -3.7582      2.00000
      9      -2.6671      2.00000
     10      -2.3915      2.00000
     11      -0.7768      0.00000
     12      -0.3897      0.00000
     13       0.2135      0.00000
     14       0.3673      0.00000

 k-point    99 :       0.0000    0.4667    0.0000
  band No.  band energies     occupation 
      1     -14.5931      2.00000
      2     -14.4699      2.00000
      3      -9.2166      2.00000
      4      -9.0933      2.00000
      5      -4.5457      2.00000
      6      -4.3310      2.00000
      7      -3.8764      2.00000
      8      -3.6843      2.00000
      9      -2.5874      2.00000
     10      -2.2536      2.00000
     11      -0.9133      0.00000
     12      -0.4814      0.00000
     13      -0.0773      0.00000
     14       0.1203      0.00000

 k-point   100 :       0.0667    0.4667    0.0000
  band No.  band energies     occupation 
      1     -14.5837      2.00000
      2     -14.4617      2.00000
      3      -9.1889      2.00000
      4      -9.0684      2.00000
      5      -4.5621      2.00000
      6      -4.4418      2.00000
      7      -4.0204      2.00000
      8      -3.8918      2.00000
      9      -2.5150      2.00000
     10      -2.4023      2.00000
     11      -0.8172      0.00000
     12      -0.7079      0.00000
     13       0.2742      0.00000
     14       0.5827      0.00000

 k-point   101 :       0.1333    0.4667    0.0000
  band No.  band energies     occupation 
      1     -14.5556      2.00000
      2     -14.4394      2.00000
      3      -9.1074      2.00000
      4      -8.9958      2.00000
      5      -4.8506      2.00000
      6      -4.6770      2.00000
      7      -4.2517      2.00000
      8      -4.1346      2.00000
      9      -2.8618      2.00000
     10      -2.6680      2.00000
     11      -0.5704      0.00000
     12      -0.3347      0.00000
     13       0.7818      0.00000
     14       0.8732      0.00000

 k-point   102 :       0.2000    0.4667    0.0000
  band No.  band energies     occupation 
      1     -14.5125      2.00000
      2     -14.4067      2.00000
      3      -8.9760      2.00000
      4      -8.8801      2.00000
      5      -5.3603      2.00000
      6      -5.0465      2.00000
      7      -4.4394      2.00000
      8      -4.2142      2.00000
      9      -3.3705      2.00000
     10      -3.0753      2.00000
     11      -0.0521      0.00000
     12       0.3142      0.00000
     13       0.9995      0.00000
     14       1.2276      0.00000

 k-point   103 :       0.2667    0.4667    0.0000
  band No.  band energies     occupation 
      1     -14.4602      2.00000
      2     -14.3697      2.00000
      3      -8.8029      2.00000
      4      -8.7304      2.00000
      5      -5.8327      2.00000
      6      -5.4947      2.00000
      7      -4.6360      2.00000
      8      -4.3867      2.00000
      9      -3.7094      2.00000
     10      -3.4279      2.00000
     11       0.4648      0.00000
     12       0.8304      0.00000
     13       1.3891      0.00000
     14       1.6410      0.00000

 k-point   104 :       0.3333    0.4667    0.0000
  band No.  band energies     occupation 
      1     -14.4063      2.00000
      2     -14.3357      2.00000
      3      -8.6048      2.00000
      4      -8.5627      2.00000
      5      -6.2196      2.00000
      6      -5.9022      2.00000
      7      -4.9335      2.00000
      8      -4.6860      2.00000
      9      -3.8186      2.00000
     10      -3.6047      2.00000
     11       0.8175      0.00000
     12       1.0933      0.00000
     13       1.9331      0.00000
     14       2.2158      0.00000

 k-point   105 :       0.4000    0.4667    0.0000
  band No.  band energies     occupation 
      1     -14.3590      2.00000
      2     -14.3126      2.00000
      3      -8.4154      2.00000
      4      -8.4054      2.00000
      5      -6.4865      2.00000
      6      -6.2409      2.00000
      7      -5.1885      2.00000
      8      -5.0016      2.00000
      9      -3.8142      2.00000
     10      -3.6759      2.00000
     11       1.0562      0.00000
     12       1.2227      0.00000
     13       2.4221      0.00000
     14       2.6655      0.00000

 k-point   106 :       0.4667    0.4667    0.0000
  band No.  band energies     occupation 
      1     -14.3259      2.00000
      2     -14.3065      2.00000
      3      -8.3033      2.00000
      4      -8.2925      2.00000
      5      -6.5916      2.00000
      6      -6.4802      2.00000
      7      -5.2938      2.00000
      8      -5.2242      2.00000
      9      -3.7776      2.00000
     10      -3.7178      2.00000
     11       1.2105      0.00000
     12       1.2599      0.00000
     13       2.6741      0.00000
     14       2.8055      0.00000

 k-point   107 :      -0.4667    0.4667    0.0000
  band No.  band energies     occupation 
      1     -14.3206      2.00000
      2     -14.3117      2.00000
      3      -8.3078      2.00000
      4      -8.2900      2.00000
      5      -6.5664      2.00000
      6      -6.5051      2.00000
      7      -5.2946      2.00000
      8      -5.2209      2.00000
      9      -3.7579      2.00000
     10      -3.7373      2.00000
     11       1.2022      0.00000
     12       1.2686      0.00000
     13       2.6853      0.00000
     14       2.7887      0.00000

 k-point   108 :      -0.4000    0.4667    0.0000
  band No.  band energies     occupation 
      1     -14.3540      2.00000
      2     -14.3175      2.00000
      3      -8.4280      2.00000
      4      -8.3975      2.00000
      5      -6.4685      2.00000
      6      -6.2579      2.00000
      7      -5.1914      2.00000
      8      -4.9931      2.00000
      9      -3.7946      2.00000
     10      -3.6946      2.00000
     11       1.0525      0.00000
     12       1.2271      0.00000
     13       2.4366      0.00000
     14       2.6432      0.00000

 k-point   109 :      -0.3333    0.4667    0.0000
  band No.  band energies     occupation 
      1     -14.4017      2.00000
      2     -14.3401      2.00000
      3      -8.6133      2.00000
      4      -8.5595      2.00000
      5      -6.2109      2.00000
      6      -5.9086      2.00000
      7      -4.9421      2.00000
      8      -4.6729      2.00000
      9      -3.7997      2.00000
     10      -3.6208      2.00000
     11       0.8194      0.00000
     12       1.0919      0.00000
     13       1.9471      0.00000
     14       2.1984      0.00000

 k-point   110 :      -0.2667    0.4667    0.0000
  band No.  band energies     occupation 
      1     -14.4562      2.00000
      2     -14.3734      2.00000
      3      -8.8082      2.00000
      4      -8.7298      2.00000
      5      -5.8321      2.00000
      6      -5.4916      2.00000
      7      -4.6483      2.00000
      8      -4.3741      2.00000
      9      -3.6942      2.00000
     10      -3.4360      2.00000
     11       0.4720      0.00000
     12       0.8231      0.00000
     13       1.3980      0.00000
     14       1.6310      0.00000

 k-point   111 :      -0.2000    0.4667    0.0000
  band No.  band energies     occupation 
      1     -14.5094      2.00000
      2     -14.4096      2.00000
      3      -8.9791      2.00000
      4      -8.8808      2.00000
      5      -5.3660      2.00000
      6      -5.0364      2.00000
      7      -4.4489      2.00000
      8      -4.2071      2.00000
      9      -3.3655      2.00000
     10      -3.0699      2.00000
     11      -0.0432      0.00000
     12       0.3038      0.00000
     13       1.0040      0.00000
     14       1.2239      0.00000

 k-point   112 :      -0.1333    0.4667    0.0000
  band No.  band energies     occupation 
      1     -14.5535      2.00000
      2     -14.4413      2.00000
      3      -9.1091      2.00000
      4      -8.9967      2.00000
      5      -4.8607      2.00000
      6      -4.6671      2.00000
      7      -4.2539      2.00000
      8      -4.1307      2.00000
      9      -2.8664      2.00000
     10      -2.6518      2.00000
     11      -0.5651      0.00000
     12      -0.3421      0.00000
     13       0.7848      0.00000
     14       0.8754      0.00000

 k-point   113 :      -0.0667    0.4667    0.0000
  band No.  band energies     occupation 
      1     -14.5826      2.00000
      2     -14.4627      2.00000
      3      -9.1896      2.00000
      4      -9.0689      2.00000
      5      -4.5589      2.00000
      6      -4.4505      2.00000
      7      -4.0195      2.00000
      8      -3.8869      2.00000
      9      -2.4979      2.00000
     10      -2.4118      2.00000
     11      -0.8182      0.00000
     12      -0.7044      0.00000
     13       0.2770      0.00000
     14       0.5755      0.00000


--------------------------------------------------------------------------------------------------------


 soft charge-density along one line, spin component           1
         0         1         2         3         4         5         6         7         8         9
 total charge-density along one line
 
 pseudopotential strength for first ion, spin component:           1
 30.090 -23.438   0.001  -0.089   0.036   0.002  -0.141   0.057
-23.438  28.119  -0.001   0.051  -0.020  -0.001   0.082  -0.032
  0.001  -0.001   6.333   0.000   0.000   9.797   0.000   0.000
 -0.089   0.051   0.000   6.330   0.002   0.000   9.793   0.003
  0.036  -0.020   0.000   0.002   6.332   0.000   0.003   9.796
  0.002  -0.001   9.797   0.000   0.000  15.227   0.000   0.000
 -0.141   0.082   0.000   9.793   0.003   0.000  15.220   0.004
  0.057  -0.032   0.000   0.003   9.796   0.000   0.004  15.226
  0.000  -0.000   0.007   0.000   0.000   0.011   0.000   0.000
  0.000  -0.000  -0.020   0.000   0.000  -0.031   0.000   0.000
 -0.003   0.004  -0.000  -0.023  -0.004  -0.000  -0.035  -0.007
  0.003  -0.002   0.000   0.009  -0.020   0.000   0.013  -0.031
 -0.000   0.000  -0.000  -0.000   0.009  -0.000  -0.000   0.013
 total augmentation occupancy for first ion, spin component:           1
  2.024  -0.015  -0.003   0.238  -0.091   0.001  -0.043   0.017   0.000   0.000   0.022   0.002  -0.000
 -0.015   0.009   0.001  -0.073   0.028  -0.000   0.019  -0.007  -0.000   0.000  -0.002   0.001  -0.000
 -0.003   0.001   1.507   0.001   0.000  -0.405  -0.001  -0.000   0.128  -0.043  -0.003  -0.000   0.001
  0.238  -0.073   0.001   1.841   0.001  -0.001  -0.485  -0.015  -0.000  -0.001  -0.267  -0.019  -0.001
 -0.091   0.028   0.000   0.001   1.490  -0.000  -0.015  -0.394   0.005  -0.000  -0.082  -0.046  -0.006
  0.001  -0.000  -0.405  -0.001  -0.000   0.118   0.000  -0.000  -0.034   0.012   0.001   0.000  -0.000
 -0.043   0.019  -0.001  -0.485  -0.015   0.000   0.140   0.008   0.000   0.000   0.074   0.005   0.000
  0.017  -0.007  -0.000  -0.015  -0.394  -0.000   0.008   0.113  -0.001   0.000   0.022   0.013   0.002
  0.000  -0.000   0.128  -0.000   0.005  -0.034   0.000  -0.001   0.076   0.000   0.000   0.000   0.000
  0.000   0.000  -0.043  -0.001  -0.000   0.012   0.000   0.000   0.000   0.021   0.000   0.000  -0.000
  0.022  -0.002  -0.003  -0.267  -0.082   0.001   0.074   0.022   0.000   0.000   0.077   0.006   0.002
  0.002   0.001  -0.000  -0.019  -0.046   0.000   0.005   0.013   0.000   0.000   0.006   0.022   0.001
 -0.000  -0.000   0.001  -0.001  -0.006  -0.000   0.000   0.002   0.000  -0.000   0.002   0.001   0.017


------------------------ aborting loop because EDIFF is reached ----------------------------------------


    CHARGE:  cpu time    0.2292: real time    0.2298
    FORLOC:  cpu time    0.0024: real time    0.0023
    FORNL :  cpu time    0.3924: real time    0.3933
    STRESS:  cpu time    0.6653: real time    0.6670
    FORCOR:  cpu time    0.0398: real time    0.0399
    FORHAR:  cpu time    0.0101: real time    0.0101
    MIXING:  cpu time    0.0008: real time    0.0008
    OFIELD:  cpu time    0.0000: real time    0.0000

  FORCE on cell =-STRESS in cart. coord.  units (eV):
  Direction    XX          YY          ZZ          XY          YZ          ZX
  --------------------------------------------------------------------------------------
  Alpha Z     9.48053     9.48053     9.48053
  Ewald    1601.96479  1606.70951 -2059.37614    -0.42245     0.00000     0.00000
  Hartree  1723.24540  1725.04294 -1676.42035    -0.14624    -0.00000     0.00000
  E(xc)     -77.65465   -77.66959   -78.87538    -0.00505     0.00000     0.00000
  Local   -3577.92877 -3583.86650  3480.98886     0.57920    -0.00000     0.00000
  n-local   162.48878   162.68670   167.20032     0.01210     0.00000     0.00000
  augment   -31.87556   -31.81602   -32.80278    -0.00134     0.00000     0.00000
  Kinetic   190.21084   189.38093   189.80500    -0.06865     0.00000    -0.00000
  Fock        0.00000     0.00000     0.00000     0.00000     0.00000     0.00000
  -------------------------------------------------------------------------------------
  Total      -0.06864    -0.05150     0.00006    -0.05244     0.00000     0.00000
  in kB      -0.29159    -0.21875     0.00024    -0.22276     0.00000     0.00000
  external pressure =       -0.17 kB  Pullay stress =        0.00 kB


 VOLUME and BASIS-vectors are now :
 -----------------------------------------------------------------------------
  energy-cutoff  :      600.00
  volume of cell :      377.16
      direct lattice vectors                 reciprocal lattice vectors
     4.393312657  0.005477946  0.000000000     0.227619028 -0.000284524  0.000000000
     0.005365597  4.292477857  0.000000000    -0.000290481  0.232966038  0.000000000
     0.000000000  0.000000000 20.000000000     0.000000000  0.000000000  0.050000000

  length of vectors
     4.393316072  4.292481211 20.000000000     0.227619206  0.232966219  0.050000000


 FORCES acting on ions
    electron-ion (+dipol)            ewald-force                    non-local-force                 convergence-correction
 -----------------------------------------------------------------------------------------------
   0.442E+01 0.145E+00 -.144E+03   -.597E+01 -.198E+00 0.148E+03   0.155E+01 0.532E-01 -.382E+01   -.449E-04 0.680E-04 -.650E-03
   0.442E+01 0.145E+00 0.144E+03   -.597E+01 -.198E+00 -.148E+03   0.155E+01 0.532E-01 0.382E+01   -.449E-04 0.680E-04 0.650E-03
   -.550E+01 -.183E+00 -.206E+03   0.597E+01 0.198E+00 0.208E+03   -.465E+00 -.145E-01 -.204E+01   0.803E-04 -.765E-03 -.227E-02
   -.550E+01 -.183E+00 0.206E+03   0.597E+01 0.198E+00 -.208E+03   -.465E+00 -.145E-01 0.204E+01   0.803E-04 -.765E-03 0.227E-02
 -----------------------------------------------------------------------------------------------
   -.217E+01 -.761E-01 -.658E-06   0.178E-14 0.222E-15 0.000E+00   0.217E+01 0.773E-01 0.000E+00   0.708E-04 -.139E-02 -.466E-10
 
 
 POSITION                                       TOTAL-FORCE (eV/Angst)
 -----------------------------------------------------------------------------------
      2.56217      3.22728     11.37521         0.000133      0.000244      0.000220
      0.36283      1.07830      8.62479         0.000133      0.000244     -0.000220
      0.14115      1.06856     11.34010        -0.000133     -0.000244      0.000119
      2.34049      3.21754      8.65990        -0.000133     -0.000244     -0.000119
 -----------------------------------------------------------------------------------
    total drift:                               -0.000250     -0.000251     -0.000001


--------------------------------------------------------------------------------------------------------



  FREE ENERGIE OF THE ION-ELECTRON SYSTEM (eV)
  ---------------------------------------------------
  free  energy   TOTEN  =       -16.26424732 eV

  energy  without entropy=      -16.26424732  energy(sigma->0) =      -16.26424732
 
 d Force = 0.3428248E-06[-0.444E-08, 0.690E-06]  d Energy = 0.5485691E-06-0.206E-06
 d Force = 0.1034718E+00[ 0.103E+00, 0.103E+00]  d Ewald  = 0.1034718E+00-0.339E-10


--------------------------------------------------------------------------------------------------------


    POTLOK:  cpu time    0.0414: real time    0.0415


--------------------------------------------------------------------------------------------------------




--------------------------------------------------------------------------------------------------------


  
 reached required accuracy - stopping structural energy minimisation
 writing wavefunctions
     LOOP+:  cpu time    8.6391: real time    8.9464
    4ORBIT:  cpu time    0.0000: real time    0.0000

 total amount of memory used by VASP MPI-rank0    63416. kBytes
=======================================================================

   base      :      30000. kBytes
   nonl-proj :      12561. kBytes
   fftplans  :       2678. kBytes
   grid      :       4349. kBytes
   one-center:          8. kBytes
   wavefun   :      13820. kBytes
 
  
  
 General timing and accounting informations for this job:
 ========================================================
  
                  Total CPU time used (sec):      240.744
                            User time (sec):      239.175
                          System time (sec):        1.569
                         Elapsed time (sec):      252.277
  
                   Maximum memory used (kb):      212896.
                   Average memory used (kb):           0.
  
                          Minor page faults:       257596
                          Major page faults:          160
                 Voluntary context switches:        24372
