 running on  192 total cores
 distrk:  each k-point on  192 cores,    1 groups
 distr:  one band on   24 cores,    8 groups
 using from now: INCAR     
 vasp.5.4.4.18Apr17-6-g9f103f2a35 (build Oct 01 2024 10:11:53) complex          
  
 POSCAR found type information on POSCAR  B  O 
 POSCAR found :  2 types and      10 ions
 scaLAPACK will be used
 LDA part: xc-table for Pade appr. of Perdew
 found WAVECAR, reading the header
  number of k-points has changed, file:    27 present:    24
  trying to continue reading WAVECAR, but it might fail
 WARNING: stress and forces are not correct
 POSCAR, INCAR and KPOINTS ok, starting setup
 FFT: planning ...
 reading WAVECAR
 the WAVECAR file was read successfully
 charge-density read from file: unknown                                 
 entering main loop
       N       E                     dE             d eps       ncg     rms          rms(c)
DAV:   1    -0.768846280940E+02   -0.76885E+02   -0.51287E+02  1672   0.941E+01
DAV:   2    -0.801334805550E+02   -0.32489E+01   -0.32390E+01  1864   0.257E+01
DAV:   3    -0.801871726653E+02   -0.53692E-01   -0.53615E-01  1744   0.341E+00
DAV:   4    -0.801890350821E+02   -0.18624E-02   -0.18620E-02  1896   0.548E-01
DAV:   5    -0.801890733915E+02   -0.38309E-04   -0.38308E-04  1776   0.796E-02
DAV:   6    -0.801890749188E+02   -0.15273E-05   -0.15273E-05  1696   0.134E-02
DAV:   7    -0.801890749810E+02   -0.62219E-07   -0.62113E-07  1240   0.261E-03
   1 F= -.80189075E+02 E0= -.80189075E+02  d E =0.000000E+00
 writing wavefunctions
