
     Program PWSCF v.6.6 starts on 31Aug2022 at 17: 9:27 

     This program is part of the open-source Quantum ESPRESSO suite
     for quantum simulation of materials; please cite
         "P. Giannozzi et al., J. Phys.:Condens. Matter 21 395502 (2009);
         "P. Giannozzi et al., J. Phys.:Condens. Matter 29 465901 (2017);
          URL http://www.quantum-espresso.org", 
     in publications or presentations arising from this work. More details at
     http://www.quantum-espresso.org/quote

     Parallel version (MPI), running on    24 processors

     MPI processes distributed on     1 nodes
     R & G space division:  proc/nbgrp/npool/nimage =      24
     Fft bands division:     nmany     =       1
     Reading input from INCAR-scf.pw

     Current dimensions of program PWSCF are:
     Max number of different atomic species (ntypx) = 10
     Max number of k-points (npk) =  40000
     Max angular momentum in pseudopotentials (lmaxx) =  3

     Subspace diagonalization in iterative solution of the eigenvalue problem:
     a serial algorithm will be used

 
     Parallelization info
     --------------------
     sticks:   dense  smooth     PW     G-vecs:    dense   smooth      PW
     Min          30      30      8                  525      525      85
     Max          31      31      9                  527      527      90
     Sum         721     721    211                12627    12627    2109
 


     bravais-lattice index     =            2
     lattice parameter (alat)  =      10.2076  a.u.
     unit-cell volume          =     265.8955 (a.u.)^3
     number of atoms/cell      =            2
     number of atomic types    =            1
     number of electrons       =         8.00
     number of Kohn-Sham states=            8
     kinetic-energy cutoff     =      50.0000  Ry
     charge density cutoff     =     200.0000  Ry
     convergence threshold     =      1.0E-08
     mixing beta               =       0.6000
     number of iterations used =            8  plain     mixing
     Exchange-correlation=  SLA  PZ   NOGX NOGC
                           (   1   1   0   0   0   0   0)

     celldm(1)=  10.207600  celldm(2)=   0.000000  celldm(3)=   0.000000
     celldm(4)=   0.000000  celldm(5)=   0.000000  celldm(6)=   0.000000

     crystal axes: (cart. coord. in units of alat)
               a(1) = (  -0.500000   0.000000   0.500000 )  
               a(2) = (   0.000000   0.500000   0.500000 )  
               a(3) = (  -0.500000   0.500000   0.000000 )  

     reciprocal axes: (cart. coord. in units 2 pi/alat)
               b(1) = ( -1.000000 -1.000000  1.000000 )  
               b(2) = (  1.000000  1.000000  1.000000 )  
               b(3) = ( -1.000000  1.000000 -1.000000 )  


     PseudoPot. # 1 for Si read from file:
     ./Si.pz-vbc.UPF
     MD5 check sum: 6dfa03ddd5817404712e03e4d12deb78
     Pseudo is Norm-conserving, Zval =  4.0
     Generated by new atomic code, or converted to UPF format
     Using radial grid of  431 points,  2 beta functions with: 
                l(1) =   0
                l(2) =   1

     atomic species   valence    mass     pseudopotential
        Si             4.00    28.08600     Si( 1.00)

     48 Sym. Ops., with inversion, found (24 have fractional translation)



   Cartesian axes

     site n.     atom                  positions (alat units)
         1           Si  tau(   1) = (   0.0000000   0.0000000   0.0000000  )
         2           Si  tau(   2) = (   0.2500000   0.2500000   0.2500000  )

     number of k points=    29
                       cart. coord. in units 2pi/alat
        k(    1) = (   0.0000000   0.0000000   0.0000000), wk =   0.0039062
        k(    2) = (  -0.1250000   0.1250000  -0.1250000), wk =   0.0312500
        k(    3) = (  -0.2500000   0.2500000  -0.2500000), wk =   0.0312500
        k(    4) = (  -0.3750000   0.3750000  -0.3750000), wk =   0.0312500
        k(    5) = (   0.5000000  -0.5000000   0.5000000), wk =   0.0156250
        k(    6) = (   0.0000000   0.2500000   0.0000000), wk =   0.0234375
        k(    7) = (  -0.1250000   0.3750000  -0.1250000), wk =   0.0937500
        k(    8) = (  -0.2500000   0.5000000  -0.2500000), wk =   0.0937500
        k(    9) = (   0.6250000  -0.3750000   0.6250000), wk =   0.0937500
        k(   10) = (   0.5000000  -0.2500000   0.5000000), wk =   0.0937500
        k(   11) = (   0.3750000  -0.1250000   0.3750000), wk =   0.0937500
        k(   12) = (   0.2500000   0.0000000   0.2500000), wk =   0.0468750
        k(   13) = (   0.0000000   0.5000000   0.0000000), wk =   0.0234375
        k(   14) = (  -0.1250000   0.6250000  -0.1250000), wk =   0.0937500
        k(   15) = (   0.7500000  -0.2500000   0.7500000), wk =   0.0937500
        k(   16) = (   0.6250000  -0.1250000   0.6250000), wk =   0.0937500
        k(   17) = (   0.5000000   0.0000000   0.5000000), wk =   0.0468750
        k(   18) = (   0.0000000   0.7500000   0.0000000), wk =   0.0234375
        k(   19) = (   0.8750000  -0.1250000   0.8750000), wk =   0.0937500
        k(   20) = (   0.7500000   0.0000000   0.7500000), wk =   0.0468750
        k(   21) = (   0.0000000  -1.0000000   0.0000000), wk =   0.0117188
        k(   22) = (  -0.2500000   0.5000000   0.0000000), wk =   0.0937500
        k(   23) = (   0.6250000  -0.3750000   0.8750000), wk =   0.1875000
        k(   24) = (   0.5000000  -0.2500000   0.7500000), wk =   0.0937500
        k(   25) = (   0.7500000  -0.2500000   1.0000000), wk =   0.0937500
        k(   26) = (   0.6250000  -0.1250000   0.8750000), wk =   0.1875000
        k(   27) = (   0.5000000   0.0000000   0.7500000), wk =   0.0937500
        k(   28) = (  -0.2500000  -1.0000000   0.0000000), wk =   0.0468750
        k(   29) = (  -0.5000000  -1.0000000   0.0000000), wk =   0.0234375

     Dense  grid:    12627 G-vectors     FFT dimensions: (  36,  36,  36)

     Estimated max dynamical RAM per process >       0.79 MB

     Estimated total dynamical RAM >      18.93 MB

     Initial potential from superposition of free atoms

     starting charge    7.99901, renormalised to    8.00000
     Starting wfcs are    8 randomized atomic wfcs

     total cpu time spent up to now is        0.3 secs

     Self-consistent Calculation

     iteration #  1     ecut=    50.00 Ry     beta= 0.60
     Davidson diagonalization with overlap
     ethr =  1.00E-02,  avg # of iterations =  4.3

     Threshold (ethr) on eigenvalues was too large:
     Diagonalizing with lowered threshold

     Davidson diagonalization with overlap
     ethr =  7.22E-04,  avg # of iterations =  1.3

     total cpu time spent up to now is        0.6 secs

     total energy              =     -15.85090130 Ry
     estimated scf accuracy    <       0.06204222 Ry

     iteration #  2     ecut=    50.00 Ry     beta= 0.60
     Davidson diagonalization with overlap
     ethr =  7.76E-04,  avg # of iterations =  1.0

     total cpu time spent up to now is        0.6 secs

     total energy              =     -15.85297933 Ry
     estimated scf accuracy    <       0.00473157 Ry

     iteration #  3     ecut=    50.00 Ry     beta= 0.60
     Davidson diagonalization with overlap
     ethr =  5.91E-05,  avg # of iterations =  2.7

     total cpu time spent up to now is        0.7 secs

     total energy              =     -15.85326192 Ry
     estimated scf accuracy    <       0.00012279 Ry

     iteration #  4     ecut=    50.00 Ry     beta= 0.60
     Davidson diagonalization with overlap
     ethr =  1.53E-06,  avg # of iterations =  3.6

     total cpu time spent up to now is        0.8 secs

     total energy              =     -15.85328248 Ry
     estimated scf accuracy    <       0.00000079 Ry

     iteration #  5     ecut=    50.00 Ry     beta= 0.60
     Davidson diagonalization with overlap
     ethr =  9.92E-09,  avg # of iterations =  3.1

     total cpu time spent up to now is        0.9 secs

     total energy              =     -15.85328333 Ry
     estimated scf accuracy    <       0.00000002 Ry

     iteration #  6     ecut=    50.00 Ry     beta= 0.60
     Davidson diagonalization with overlap
     ethr =  2.45E-10,  avg # of iterations =  2.4

     total cpu time spent up to now is        1.0 secs

     End of self-consistent calculation

          k = 0.0000 0.0000 0.0000 (  1591 PWs)   bands (ev):

    -5.8296   6.2067   6.2067   6.2067   8.7754   8.7754   8.7754   9.6482

          k =-0.1250 0.1250-0.1250 (  1570 PWs)   bands (ev):

    -5.6226   4.6059   5.9138   5.9138   8.7206   9.2040   9.2040  10.9516

          k =-0.2500 0.2500-0.2500 (  1582 PWs)   bands (ev):

    -5.0177   2.2566   5.4379   5.4379   8.2449   9.7206   9.7206  13.1050

          k =-0.3750 0.3750-0.3750 (  1592 PWs)   bands (ev):

    -4.1053   0.2070   5.1080   5.1080   7.8821   9.6541   9.6541  13.9681

          k = 0.5000-0.5000 0.5000 (  1568 PWs)   bands (ev):

    -3.4447  -0.8422   4.9953   4.9953   7.7551   9.5380   9.5380  13.7957

          k = 0.0000 0.2500 0.0000 (  1571 PWs)   bands (ev):

    -5.5529   4.8944   5.3863   5.3863   8.1966   9.9261   9.9261  10.6395

          k =-0.1250 0.3750-0.1250 (  1584 PWs)   bands (ev):

    -5.0773   2.9808   4.8674   4.9524   8.3291   9.9436  10.6920  10.9262

          k =-0.2500 0.5000-0.2500 (  1588 PWs)   bands (ev):

    -4.2476   0.8902   4.3538   4.5969   8.4313   9.8571  10.6794  11.6475

          k = 0.6250-0.3750 0.6250 (  1583 PWs)   bands (ev):

    -3.3608  -0.6063   3.9009   4.6236   8.3859   9.7090  10.3075  13.5516

          k = 0.5000-0.2500 0.5000 (  1586 PWs)   bands (ev):

    -3.6142  -0.2251   3.7130   4.9261   8.5660   9.8069  10.0750  14.0735

          k = 0.3750-0.1250 0.3750 (  1579 PWs)   bands (ev):

    -4.5597   1.5605   3.8597   5.4257   8.9379   9.8924  10.0438  12.4817

          k = 0.2500 0.0000 0.2500 (  1564 PWs)   bands (ev):

    -5.2814   3.5275   4.5449   5.9132   9.2796   9.3407   9.5492  11.7591

          k = 0.0000 0.5000 0.0000 (  1587 PWs)   bands (ev):

    -4.7325   2.7157   4.2867   4.2867   7.2848   9.2925  11.9851  11.9851

          k =-0.1250 0.6250-0.1250 (  1586 PWs)   bands (ev):

    -4.0112   1.2753   3.4886   3.9641   7.5045   9.0510  12.2171  12.4940

          k = 0.7500-0.2500 0.7500 (  1592 PWs)   bands (ev):

    -3.0641  -0.1969   2.6087   3.9683   7.6700  10.6165  11.9627  12.1399

          k = 0.6250-0.1250 0.6250 (  1584 PWs)   bands (ev):

    -2.8506  -0.4651   2.1380   4.2931   8.0042  11.6421  11.7017  13.1613

          k = 0.5000 0.0000 0.5000 (  1576 PWs)   bands (ev):

    -3.7516   0.7215   2.3754   4.8620   8.6333  11.0175  11.3057  12.3433

          k = 0.0000 0.7500 0.0000 (  1600 PWs)   bands (ev):

    -3.4010   0.4715   3.5590   3.5590   6.7522   7.6726  14.2639  14.2639

          k = 0.8750-0.1250 0.8750 (  1594 PWs)   bands (ev):

    -2.4882  -0.6247   2.7006   3.4820   7.0292   8.1185  14.4935  14.5617

          k = 0.7500 0.0000 0.7500 (  1580 PWs)   bands (ev):

    -2.0298  -1.0332   1.8052   3.7445   7.3445  10.2994  13.7081  14.4435

          k = 0.0000-1.0000 0.0000 (  1588 PWs)   bands (ev):

    -1.6260  -1.6260   3.3095   3.3095   6.8388   6.8388  16.3416  16.3416

          k =-0.2500 0.5000 0.0000 (  1586 PWs)   bands (ev):

    -4.4803   1.9242   3.4398   4.7598   8.6272  10.1221  10.3631  11.7190

          k = 0.6250-0.3750 0.8750 (  1587 PWs)   bands (ev):

    -3.5742   0.3454   2.8295   4.2444   9.0573   9.7445  11.2105  12.1491

          k = 0.5000-0.2500 0.7500 (  1584 PWs)   bands (ev):

    -2.9008  -0.6272   2.7044   4.0081   9.2715   9.2905  12.1280  13.2993

          k = 0.7500-0.2500 1.0000 (  1604 PWs)   bands (ev):

    -3.1965   0.2508   2.7774   3.3928   8.1099   8.7993  11.9676  14.2104

          k = 0.6250-0.1250 0.8750 (  1592 PWs)   bands (ev):

    -2.3000  -0.7325   2.0580   3.1864   8.5497  10.4458  11.4911  13.6468

          k = 0.5000 0.0000 0.7500 (  1586 PWs)   bands (ev):

    -2.6564  -0.3663   1.8855   3.5722   9.0380  10.7297  11.4103  13.2245

          k =-0.2500-1.0000 0.0000 (  1598 PWs)   bands (ev):

    -1.5421  -1.5421   2.7198   2.7198   8.1241   8.1241  14.0574  14.0574

          k =-0.5000-1.0000 0.0000 (  1604 PWs)   bands (ev):

    -1.4488  -1.4488   2.2659   2.2659  10.4210  10.4210  11.2265  11.2265

     highest occupied, lowest unoccupied level (ev):     6.2067    6.7522

!    total energy              =     -15.85328335 Ry
     estimated scf accuracy    <          5.8E-09 Ry

     The total energy is the sum of the following terms:
     one-electron contribution =       4.76730993 Ry
     hartree contribution      =       1.08141075 Ry
     xc contribution           =      -4.81482802 Ry
     ewald contribution        =     -16.88717601 Ry

     convergence has been achieved in   6 iterations

     Writing output data file ./wfc-out/silicon.save/
 
     init_run     :      0.07s CPU      0.18s WALL (       1 calls)
     electrons    :      0.56s CPU      0.82s WALL (       1 calls)

     Called by init_run:
     wfcinit      :      0.05s CPU      0.12s WALL (       1 calls)
     potinit      :      0.00s CPU      0.00s WALL (       1 calls)
     hinit0       :      0.01s CPU      0.04s WALL (       1 calls)

     Called by electrons:
     c_bands      :      0.48s CPU      0.58s WALL (       7 calls)
     sum_band     :      0.07s CPU      0.08s WALL (       7 calls)
     v_of_rho     :      0.00s CPU      0.00s WALL (       7 calls)
     mix_rho      :      0.00s CPU      0.00s WALL (       7 calls)

     Called by c_bands:
     init_us_2    :      0.00s CPU      0.01s WALL (     435 calls)
     cegterg      :      0.43s CPU      0.49s WALL (     203 calls)

     Called by *egterg:
     cdiaghg      :      0.06s CPU      0.10s WALL (     711 calls)
     h_psi        :      0.37s CPU      0.46s WALL (     769 calls)
     g_psi        :      0.00s CPU      0.00s WALL (     537 calls)

     Called by h_psi:
     h_psi:calbec :      0.02s CPU      0.02s WALL (     769 calls)
     vloc_psi     :      0.35s CPU      0.39s WALL (     769 calls)
     add_vuspsi   :      0.00s CPU      0.04s WALL (     769 calls)

     General routines
     calbec       :      0.01s CPU      0.02s WALL (     769 calls)
     fft          :      0.00s CPU      0.04s WALL (      21 calls)
     ffts         :      0.00s CPU      0.00s WALL (       7 calls)
     fftw         :      0.38s CPU      0.43s WALL (   10722 calls)
 
     Parallel routines
     fft_scatt_xy :      0.04s CPU      0.04s WALL (   10750 calls)
     fft_scatt_yz :      0.26s CPU      0.29s WALL (   10750 calls)
 
     PWSCF        :      1.92s CPU      9.81s WALL

 
   This run was terminated on:  17: 9:36  31Aug2022            

=------------------------------------------------------------------------------=
   JOB DONE.
=------------------------------------------------------------------------------=
