 vasp.5.4.4.18Apr17-6-g9f103f2a35 (build Oct 01 2024 10:11:53) complex          
  
 executed on              Shaheen date 2025.02.19  15:19:43
 running on  192 total cores
 distrk:  each k-point on  192 cores,    1 groups
 distr:  one band on NCORES_PER_BAND=  24 cores,    8 groups


--------------------------------------------------------------------------------------------------------


 INCAR:
 POTCAR:    PAW_PBE Mo 08Apr2002                  
 POTCAR:    PAW_PBE S 06Sep2000                   
 POTCAR:    PAW_PBE Te 08Apr2002                  
 POTCAR:    PAW_PBE Mo 08Apr2002                  
   VRHFIN =Mo: 4p5s4d                                                           
   LEXCH  = PE                                                                  
   EATOM  =   217.5176 eV,   15.9871 Ry                                         
                                                                                
   TITEL  = PAW_PBE Mo 08Apr2002                                                
   LULTRA =        F    use ultrasoft PP ?                                      
   IUNSCR =        1    unscreen: 0-lin 1-nonlin 2-no                           
   RPACOR =    2.200    partial core radius                                     
   POMASS =   95.940; ZVAL   =    6.000    mass and valenz                      
   RCORE  =    2.750    outmost cutoff radius                                   
   RWIGS  =    2.750; RWIGS  =    1.455    wigner-seitz radius (au A)           
   ENMAX  =  224.584; ENMIN  =  168.438 eV                                      
   RCLOC  =    2.111    cutoff for local pot                                    
   LCOR   =        T    correct aug charges                                     
   LPAW   =        T    paw PP                                                  
   EAUG   =  345.278                                                            
   DEXC   =    0.000                                                            
   RMAX   =    2.821    core radius for proj-oper                               
   RAUG   =    1.300    factor for augmentation sphere                          
   RDEP   =    2.815    radius for radial grids                                 
   RDEPT  =    2.211    core radius for aug-charge                              
                                                                                
   Atomic configuration                                                         
   12 entries                                                                   
     n  l   j            E        occ.                                          
     1  0  0.50    -19819.0341   2.0000                                         
     2  0  0.50     -2799.0127   2.0000                                         
     2  1  1.50     -2502.0276   6.0000                                         
     3  0  0.50      -476.4448   2.0000                                         
     3  1  1.50      -379.1496   6.0000                                         
     3  2  2.50      -220.9367  10.0000                                         
     4  0  0.50       -64.3378   2.0000                                         
     4  1  1.50       -38.4773   6.0000                                         
     4  2  2.50        -3.7535   5.0000                                         
     5  0  0.50        -4.0862   1.0000                                         
     5  1  0.50        -2.7701   0.0000                                         
     4  3  2.50        -1.3606   0.0000                                         
   Description                                                                  
     l       E           TYP  RCUT    TYP  RCUT                                 
     2     -3.7534765     23  2.500                                             
     2     -5.1140591     23  2.500                                             
     0     -4.0861560     23  2.600                                             
     0     13.6058260     23  2.600                                             
     1      5.4423304     23  2.750                                             
     1     27.2116520     23  2.750                                             
  local pseudopotential read in
  partial core-charges read in
  partial kinetic energy density read in
  atomic valenz-charges read in
  non local Contribution for L=           2  read in
    real space projection operators read in
  non local Contribution for L=           2  read in
    real space projection operators read in
  non local Contribution for L=           0  read in
    real space projection operators read in
  non local Contribution for L=           0  read in
    real space projection operators read in
  non local Contribution for L=           1  read in
    real space projection operators read in
  non local Contribution for L=           1  read in
    real space projection operators read in
    PAW grid and wavefunctions read in
 
   number of l-projection  operators is LMAX  =           6
   number of lm-projection operators is LMMAX =          18
 
 POTCAR:    PAW_PBE S 06Sep2000                   
   VRHFIN =S : s2p4                                                             
   LEXCH  = PE                                                                  
   EATOM  =   276.8230 eV,   20.3459 Ry                                         
                                                                                
   TITEL  = PAW_PBE S 06Sep2000                                                 
   LULTRA =        F    use ultrasoft PP ?                                      
   IUNSCR =        1    unscreen: 0-lin 1-nonlin 2-no                           
   RPACOR =    1.500    partial core radius                                     
   POMASS =   32.066; ZVAL   =    6.000    mass and valenz                      
   RCORE  =    1.900    outmost cutoff radius                                   
   RWIGS  =    2.200; RWIGS  =    1.164    wigner-seitz radius (au A)           
   ENMAX  =  258.689; ENMIN  =  194.016 eV                                      
   ICORE  =        2    local potential                                         
   LCOR   =        T    correct aug charges                                     
   LPAW   =        T    paw PP                                                  
   EAUG   =  335.092                                                            
   DEXC   =    0.000                                                            
   RMAX   =    1.942    core radius for proj-oper                               
   RAUG   =    1.300    factor for augmentation sphere                          
   RDEP   =    1.954    radius for radial grids                                 
   RDEPT  =    1.744    core radius for aug-charge                              
                                                                                
   Atomic configuration                                                         
    6 entries                                                                   
     n  l   j            E        occ.                                          
     1  0  0.50     -2405.8406   2.0000                                         
     2  0  0.50      -211.7007   2.0000                                         
     2  1  1.50      -156.4958   6.0000                                         
     3  0  0.50       -17.2562   2.0000                                         
     3  1  0.50        -7.0085   4.0000                                         
     3  2  1.50        -6.8029   0.0000                                         
   Description                                                                  
     l       E           TYP  RCUT    TYP  RCUT                                 
     0    -17.2561641     23  1.900                                             
     0    -15.8743224     23  1.900                                             
     1     -7.0085400     23  1.900                                             
     1     -2.7779785     23  1.900                                             
     2     -6.8029130     23  1.900                                             
  local pseudopotential read in
  partial core-charges read in
  partial kinetic energy density read in
  atomic valenz-charges read in
  non local Contribution for L=           0  read in
    real space projection operators read in
  non local Contribution for L=           0  read in
    real space projection operators read in
  non local Contribution for L=           1  read in
    real space projection operators read in
  non local Contribution for L=           1  read in
    real space projection operators read in
    PAW grid and wavefunctions read in
 
   number of l-projection  operators is LMAX  =           4
   number of lm-projection operators is LMMAX =           8
 
 POTCAR:    PAW_PBE Te 08Apr2002                  
   VRHFIN =Te: s2p4                                                             
   LEXCH  = PE                                                                  
   EATOM  =   223.2721 eV,   16.4100 Ry                                         
                                                                                
   TITEL  = PAW_PBE Te 08Apr2002                                                
   LULTRA =        F    use ultrasoft PP ?                                      
   IUNSCR =        1    unscreen: 0-lin 1-nonlin 2-no                           
   RPACOR =    2.200    partial core radius                                     
   POMASS =  127.600; ZVAL   =    6.000    mass and valenz                      
   RCORE  =    2.300    outmost cutoff radius                                   
   RWIGS  =    2.900; RWIGS  =    1.535    wigner-seitz radius (au A)           
   ENMAX  =  174.982; ENMIN  =  131.236 eV                                      
   ICORE  =        3    local potential                                         
   LCOR   =        T    correct aug charges                                     
   LPAW   =        T    paw PP                                                  
   EAUG   =  368.792                                                            
   DEXC   =    0.000                                                            
   RMAX   =    2.345    core radius for proj-oper                               
   RAUG   =    1.300    factor for augmentation sphere                          
   RDEP   =    2.397    radius for radial grids                                 
   RDEPT  =    2.174    core radius for aug-charge                              
                                                                                
   Atomic configuration                                                         
   13 entries                                                                   
     n  l   j            E        occ.                                          
     1  0  0.50    -31621.2075   2.0000                                         
     2  0  0.50     -4848.7941   2.0000                                         
     2  1  1.50     -4352.1960   6.0000                                         
     3  0  0.50      -964.9612   2.0000                                         
     3  1  1.50      -803.6179   6.0000                                         
     3  2  2.50      -559.8710  10.0000                                         
     4  0  0.50      -164.3522   2.0000                                         
     4  1  1.50      -114.3756   6.0000                                         
     4  2  2.50       -41.6483  10.0000                                         
     5  0  0.50       -15.1072   2.0000                                         
     5  1  0.50        -5.9526   4.0000                                         
     5  2  1.50        -5.4423   0.0000                                         
     4  3  2.50        -5.4423   0.0000                                         
   Description                                                                  
     l       E           TYP  RCUT    TYP  RCUT                                 
     0    -15.1072389     23  2.300                                             
     0    -16.4678215     23  2.300                                             
     1     -5.9526306     23  2.300                                             
     1     -2.4873968     23  2.300                                             
     2     -5.4423304     23  2.300                                             
     3     -1.3605826     23  2.300                                             
  local pseudopotential read in
  partial core-charges read in
  partial kinetic energy density read in
  atomic valenz-charges read in
  non local Contribution for L=           0  read in
    real space projection operators read in
  non local Contribution for L=           0  read in
    real space projection operators read in
  non local Contribution for L=           1  read in
    real space projection operators read in
  non local Contribution for L=           1  read in
    real space projection operators read in
  non local Contribution for L=           2  read in
    real space projection operators read in
    PAW grid and wavefunctions read in
 
   number of l-projection  operators is LMAX  =           5
   number of lm-projection operators is LMMAX =          13
 
  PAW_PBE Mo 08Apr2002                  :
 energy of atom  1       EATOM= -217.5176
 kinetic energy error for atom=    0.0005 (will be added to EATOM!!)
  PAW_PBE S 06Sep2000                   :
 energy of atom  2       EATOM= -276.8230
 kinetic energy error for atom=    0.0009 (will be added to EATOM!!)
  PAW_PBE Te 08Apr2002                  :
 energy of atom  3       EATOM= -223.2721
 kinetic energy error for atom=    0.0004 (will be added to EATOM!!)
 
 
 POSCAR: Generated by VASPKIT code               
  positions in direct lattice
  velocities in cartesian coordinates
 exchange correlation table for  LEXCH =        8
   RHO(1)=    0.500       N(1)  =     2000
   RHO(2)=  100.500       N(2)  =     4000
 


--------------------------------------------------------------------------------------------------------


 ion  position               nearest neighbor table
   1  0.500  0.167  0.507-   4 2.44   4 2.44   3 2.44   5 2.72   6 2.72   6 2.72   2 3.36   2 3.36
                             2 3.36   2 3.36
   2  1.000  0.667  0.507-   3 2.44   3 2.44   4 2.44   6 2.72   5 2.72   5 2.72   1 3.36   1 3.36
                             1 3.36   1 3.36
   3  0.500  0.833  0.580-   2 2.44   2 2.44   1 2.44
   4  1.000  0.333  0.580-   2 2.44   1 2.44   1 2.44
   5  0.500  0.833  0.413-   1 2.72   2 2.72   2 2.72   6 3.36   6 3.36   6 3.36   6 3.36
   6  1.000  0.333  0.413-   2 2.72   1 2.72   1 2.72   5 3.36   5 3.36   5 3.36   5 3.36
 

IMPORTANT INFORMATION: All symmetrisations will be switched off!
NOSYMM: (Re-)initialisation of all symmetry stuff for point group C_1.

 
 
 KPOINTS: K-Spacing Value to Generate K-Mesh: 0.01

Automatic generation of k-mesh.
Space group operators:
 irot       det(A)        alpha          n_x          n_y          n_z        tau_x        tau_y        tau_z
    1     1.000000     0.000000     1.000000     0.000000     0.000000     0.000000     0.000000     0.000000
 
 Subroutine IBZKPT returns following result:
 ===========================================
 
 Found     10 irreducible k-points:
 
 Following reciprocal coordinates:
            Coordinates               Weight
  0.000000  0.000000  0.000000      1.000000
  0.052632  0.000000  0.000000      2.000000
  0.105263  0.000000  0.000000      2.000000
  0.157895  0.000000  0.000000      2.000000
  0.210526  0.000000  0.000000      2.000000
  0.263158  0.000000  0.000000      2.000000
  0.315789  0.000000  0.000000      2.000000
  0.368421  0.000000  0.000000      2.000000
  0.421053  0.000000  0.000000      2.000000
  0.473684  0.000000  0.000000      2.000000
 
 Following cartesian coordinates:
            Coordinates               Weight
  0.000000  0.000000  0.000000      1.000000
  0.015647  0.000000  0.000000      2.000000
  0.031295  0.000000  0.000000      2.000000
  0.046942  0.000000  0.000000      2.000000
  0.062590  0.000000  0.000000      2.000000
  0.078237  0.000000  0.000000      2.000000
  0.093884  0.000000  0.000000      2.000000
  0.109532  0.000000  0.000000      2.000000
  0.125179  0.000000  0.000000      2.000000
  0.140827  0.000000  0.000000      2.000000
 


--------------------------------------------------------------------------------------------------------




 Dimension of arrays:
   k-points           NKPTS =     80   k-points in BZ     NKDIM =     80   number of bands    NBANDS=     24
   number of dos      NEDOS =    301   number of ions     NIONS =      6
   non local maximal  LDIM  =      6   non local SUM 2l+1 LMDIM =     18
   total plane-waves  NPLWV = 217728
   max r-space proj   IRMAX =      1   max aug-charges    IRDMAX=  35419
   dimension x,y,z NGX =    28 NGY =   48 NGZ =  162
   dimension x,y,z NGXF=    56 NGYF=   96 NGZF=  324
   support grid    NGXF=    56 NGYF=   96 NGZF=  324
   ions per type =               2   2   2
   NGX,Y,Z   is equivalent  to a cutoff of  13.84, 13.70, 13.30 a.u.
   NGXF,Y,Z  is equivalent  to a cutoff of  27.68, 27.39, 26.60 a.u.

 SYSTEM =  unknown system                          
 POSCAR =  Generated by VASPKIT code               

 Startparameter for this run:
   NWRITE =      2    write-flag & timer
   PREC   = accura    normal or accurate (medium, high low for compatibility)
   ISTART =      0    job   : 0-new  1-cont  2-samecut
   ICHARG =     11    charge: 1-file 2-atom 10-const
   ISPIN  =      1    spin polarized calculation?
   LNONCOLLINEAR =      F non collinear calculations
   LSORBIT =      F    spin-orbit coupling
   INIWAV =      1    electr: 0-lowe 1-rand  2-diag
   LASPH  =      F    aspherical Exc in radial PAW
   METAGGA=      F    non-selfconsistent MetaGGA calc.

 Electronic Relaxation 1
   ENCUT  =  600.0 eV  44.10 Ry    6.64 a.u.   6.72 11.64 40.45*2*pi/ulx,y,z
   ENINI  =  600.0     initial cutoff
   ENAUG  =  368.8 eV  augmentation charge cutoff
   NELM   =     60;   NELMIN=  2; NELMDL=  0     # of ELM steps 
   EDIFF  = 0.1E-06   stopping-criterion for ELM
   LREAL  =      F    real-space projection
   NLSPLINE    = F    spline interpolate recip. space projectors
   LCOMPAT=      F    compatible to vasp.4.4
   GGA_COMPAT  = T    GGA compatible to vasp.4.4-vasp.4.6
   LMAXPAW     = -100 max onsite density
   LMAXMIX     =    2 max onsite mixed and CHGCAR
   VOSKOWN=      0    Vosko Wilk Nusair interpolation
   ROPT   =    0.00000   0.00000   0.00000
 Ionic relaxation
   EDIFFG = -.1E-02   stopping-criterion for IOM
   NSW    =      0    number of steps for IOM
   NBLOCK =      1;   KBLOCK =      1    inner block; outer block 
   IBRION =     -1    ionic relax: 0-MD 1-quasi-New 2-CG
   NFREE  =      0    steps in history (QN), initial steepest desc. (CG)
   ISIF   =      2    stress and relaxation
   IWAVPR =     10    prediction:  0-non 1-charg 2-wave 3-comb
   ISYM   =      0    0-nonsym 1-usesym 2-fastsym
   LCORR  =      T    Harris-Foulkes like correction to forces

   POTIM  = 0.5000    time-step for ionic-motion
   TEIN   =    0.0    initial temperature
   TEBEG  =    0.0;   TEEND  =   0.0 temperature during run
   SMASS  =  -3.00    Nose mass-parameter (am)
   estimated Nose-frequenzy (Omega)   =  0.10E-29 period in steps =****** mass=  -0.259E-27a.u.
   SCALEE = 1.0000    scale energy and forces
   NPACO  =    256;   APACO  = 16.0  distance and # of slots for P.C.
   PSTRESS=    0.0 pullay stress

  Mass of Ions in am
   POMASS =  95.94 32.07127.60
  Ionic Valenz
   ZVAL   =   6.00  6.00  6.00
  Atomic Wigner-Seitz radii
   RWIGS  =  -1.00 -1.00 -1.00
  virtual crystal weights 
   VCA    =   1.00  1.00  1.00
   NELECT =      36.0000    total number of electrons
   NUPDOWN=      -1.0000    fix difference up-down

 DOS related values:
   EMIN   =  10.00;   EMAX   =-10.00  energy-range for DOS
   EFERMI =   0.00
   ISMEAR =     0;   SIGMA  =   0.00  broadening in eV -4-tet -1-fermi 0-gaus

 Electronic relaxation 2 (details)
   IALGO  =     38    algorithm
   LDIAG  =      T    sub-space diagonalisation (order eigenvalues)
   LSUBROT=      F    optimize rotation matrix (better conditioning)
   TURBO    =      0    0=normal 1=particle mesh
   IRESTART =      0    0=no restart 2=restart with 2 vectors
   NREBOOT  =      0    no. of reboots
   NMIN     =      0    reboot dimension
   EREF     =   0.00    reference energy to select bands
   IMIX   =      4    mixing-type and parameters
     AMIX     =   0.40;   BMIX     =  1.00
     AMIX_MAG =   1.60;   BMIX_MAG =  1.00
     AMIN     =   0.10
     WC   =   100.;   INIMIX=   1;  MIXPRE=   1;  MAXMIX= -45

 Intra band minimization:
   WEIMIN = 0.0000     energy-eigenvalue tresh-hold
   EBREAK =  0.10E-08  absolut break condition
   DEPER  =   0.30     relativ break condition  

   TIME   =   0.40     timestep for ELM

  volume/ion in A,a.u.               =      66.15       446.37
  Fermi-wavevector in a.u.,A,eV,Ry     =   0.735573  1.390031  7.361671  0.541068
  Thomas-Fermi vector in A             =   1.828802
 
 Write flags
   LWAVE        =      F    write WAVECAR
   LDOWNSAMPLE  =      F    k-point downsampling of WAVECAR
   LCHARG       =      T    write CHGCAR
   LVTOT        =      F    write LOCPOT, total local potential
   LVHAR        =      F    write LOCPOT, Hartree potential only
   LELF         =      F    write electronic localiz. function (ELF)
   LORBIT       =      0    0 simple, 1 ext, 2 COOP (PROOUT), +10 PAW based schemes


 Dipole corrections
   LMONO  =      F    monopole corrections only (constant potential shift)
   LDIPOL =      T    correct potential (dipole corrections)
   IDIPOL =      3    1-x, 2-y, 3-z, 4-all directions 
   EPSILON=  1.0000000 bulk dielectric constant

 Exchange correlation treatment:
   GGA     =    PE    GGA type
   LEXCH   =     8    internal setting for exchange type
   VOSKOWN=      0    Vosko Wilk Nusair interpolation
   LHFCALC =     F    Hartree Fock is set to
   LHFONE  =     F    Hartree Fock one center treatment
   AEXX    =    0.0000 exact exchange contribution

 Parameters for Berry phase evaluation:
   LBERRY =      T    evaluation of Berry phase?
   IGPAR  =      2    parallel direction
   NPPSTR =      8    k-mesh size in direction IGPAR
 Linear response parameters
   LEPSILON=     F    determine dielectric tensor
   LRPA    =     F    only Hartree local field effects (RPA)
   LNABLA  =     F    use nabla operator in PAW spheres
   LVEL    =     F    velocity operator in full k-point grid
   LINTERFAST=   F  fast interpolation
   KINTER  =     0    interpolate to denser k-point grid
   CSHIFT  =0.1000    complex shift for real part using Kramers Kronig
   OMEGAMAX=  -1.0    maximum frequency
   DEG_THRESHOLD= 0.2000000E-02 threshold for treating states as degnerate
   RTIME   =   -0.100 relaxation time in fs
  (WPLASMAI=    0.000 imaginary part of plasma frequency in eV, 0.658/RTIME)
   DFIELD  = 0.0000000 0.0000000 0.0000000 field for delta impulse in time
 
 Orbital magnetization related:
   ORBITALMAG=     F  switch on orbital magnetization
   LCHIMAG   =     F  perturbation theory with respect to B field
   DQ        =  0.001000  dq finite difference perturbation B field
   LLRAUG    =     F  two centre corrections for induced B field



--------------------------------------------------------------------------------------------------------


 Static calculation
 charge density and potential remain constant during run
 non-spin polarized calculation
 Variant of blocked Davidson
 Davidson routine will perform the subspace rotation
 perform sub-space diagonalisation
    after iterative eigenvector-optimisation
 no mixing
 using additional bands            6
 reciprocal scheme for non local part
 use partial core corrections
 calculate Harris-corrections to forces 
   (improved forces if not selfconsistent)
 use gradient corrections 
 WARNING: stress and forces are not correct
  (second derivative of E(xc) not defined)
 use of overlap-Matrix (Vanderbilt PP)
 Gauss-broadening in eV      SIGMA  =   0.00


--------------------------------------------------------------------------------------------------------


  energy-cutoff  :      600.00
  volume of cell :      396.87
      direct lattice vectors                 reciprocal lattice vectors
     3.363599539  0.000000000  0.000000000     0.297300552  0.000000000  0.000000000
     0.000000000  5.825925827  0.000000000     0.000000000  0.171646538  0.000000000
     0.000000000  0.000000000 20.252588272     0.000000000  0.000000000  0.049376405

  length of vectors
     3.363599539  5.825925827 20.252588272     0.297300552  0.171646538  0.049376405


 
 k-points in units of 2pi/SCALE and weight: K-Spacing Value to Generate K-Mesh: 0.01
   0.00000000  0.00000000  0.00000000       0.007
   0.00000000  0.02145582  0.00000000       0.007
   0.00000000  0.04291163  0.00000000       0.007
   0.00000000  0.06436745  0.00000000       0.007
   0.00000000  0.08582327  0.00000000       0.007
   0.00000000  0.10727909  0.00000000       0.007
   0.00000000  0.12873490  0.00000000       0.007
   0.00000000  0.15019072  0.00000000       0.007
   0.01564740  0.00000000  0.00000000       0.013
   0.01564740  0.02145582  0.00000000       0.013
   0.01564740  0.04291163  0.00000000       0.013
   0.01564740  0.06436745  0.00000000       0.013
   0.01564740  0.08582327  0.00000000       0.013
   0.01564740  0.10727909  0.00000000       0.013
   0.01564740  0.12873490  0.00000000       0.013
   0.01564740  0.15019072  0.00000000       0.013
   0.03129479  0.00000000  0.00000000       0.013
   0.03129479  0.02145582  0.00000000       0.013
   0.03129479  0.04291163  0.00000000       0.013
   0.03129479  0.06436745  0.00000000       0.013
   0.03129479  0.08582327  0.00000000       0.013
   0.03129479  0.10727909  0.00000000       0.013
   0.03129479  0.12873490  0.00000000       0.013
   0.03129479  0.15019072  0.00000000       0.013
   0.04694219  0.00000000  0.00000000       0.013
   0.04694219  0.02145582  0.00000000       0.013
   0.04694219  0.04291163  0.00000000       0.013
   0.04694219  0.06436745  0.00000000       0.013
   0.04694219  0.08582327  0.00000000       0.013
   0.04694219  0.10727909  0.00000000       0.013
   0.04694219  0.12873490  0.00000000       0.013
   0.04694219  0.15019072  0.00000000       0.013
   0.06258959  0.00000000  0.00000000       0.013
   0.06258959  0.02145582  0.00000000       0.013
   0.06258959  0.04291163  0.00000000       0.013
   0.06258959  0.06436745  0.00000000       0.013
   0.06258959  0.08582327  0.00000000       0.013
   0.06258959  0.10727909  0.00000000       0.013
   0.06258959  0.12873490  0.00000000       0.013
   0.06258959  0.15019072  0.00000000       0.013
   0.07823699  0.00000000  0.00000000       0.013
   0.07823699  0.02145582  0.00000000       0.013
   0.07823699  0.04291163  0.00000000       0.013
   0.07823699  0.06436745  0.00000000       0.013
   0.07823699  0.08582327  0.00000000       0.013
   0.07823699  0.10727909  0.00000000       0.013
   0.07823699  0.12873490  0.00000000       0.013
   0.07823699  0.15019072  0.00000000       0.013
   0.09388438  0.00000000  0.00000000       0.013
   0.09388438  0.02145582  0.00000000       0.013
   0.09388438  0.04291163  0.00000000       0.013
   0.09388438  0.06436745  0.00000000       0.013
   0.09388438  0.08582327  0.00000000       0.013
   0.09388438  0.10727909  0.00000000       0.013
   0.09388438  0.12873490  0.00000000       0.013
   0.09388438  0.15019072  0.00000000       0.013
   0.10953178  0.00000000  0.00000000       0.013
   0.10953178  0.02145582  0.00000000       0.013
   0.10953178  0.04291163  0.00000000       0.013
   0.10953178  0.06436745  0.00000000       0.013
   0.10953178  0.08582327  0.00000000       0.013
   0.10953178  0.10727909  0.00000000       0.013
   0.10953178  0.12873490  0.00000000       0.013
   0.10953178  0.15019072  0.00000000       0.013
   0.12517918  0.00000000  0.00000000       0.013
   0.12517918  0.02145582  0.00000000       0.013
   0.12517918  0.04291163  0.00000000       0.013
   0.12517918  0.06436745  0.00000000       0.013
   0.12517918  0.08582327  0.00000000       0.013
   0.12517918  0.10727909  0.00000000       0.013
   0.12517918  0.12873490  0.00000000       0.013
   0.12517918  0.15019072  0.00000000       0.013
   0.14082658  0.00000000  0.00000000       0.013
   0.14082658  0.02145582  0.00000000       0.013
   0.14082658  0.04291163  0.00000000       0.013
   0.14082658  0.06436745  0.00000000       0.013
   0.14082658  0.08582327  0.00000000       0.013
   0.14082658  0.10727909  0.00000000       0.013
   0.14082658  0.12873490  0.00000000       0.013
   0.14082658  0.15019072  0.00000000       0.013
 
 k-points in reciprocal lattice and weights: K-Spacing Value to Generate K-Mesh: 0.01
   0.00000000  0.00000000  0.00000000       0.007
   0.00000000  0.12500000  0.00000000       0.007
   0.00000000  0.25000000  0.00000000       0.007
   0.00000000  0.37500000  0.00000000       0.007
   0.00000000  0.50000000  0.00000000       0.007
   0.00000000  0.62500000  0.00000000       0.007
   0.00000000  0.75000000  0.00000000       0.007
   0.00000000  0.87500000  0.00000000       0.007
   0.05263158  0.00000000  0.00000000       0.013
   0.05263158  0.12500000  0.00000000       0.013
   0.05263158  0.25000000  0.00000000       0.013
   0.05263158  0.37500000  0.00000000       0.013
   0.05263158  0.50000000  0.00000000       0.013
   0.05263158  0.62500000  0.00000000       0.013
   0.05263158  0.75000000  0.00000000       0.013
   0.05263158  0.87500000  0.00000000       0.013
   0.10526316  0.00000000  0.00000000       0.013
   0.10526316  0.12500000  0.00000000       0.013
   0.10526316  0.25000000  0.00000000       0.013
   0.10526316  0.37500000  0.00000000       0.013
   0.10526316  0.50000000  0.00000000       0.013
   0.10526316  0.62500000  0.00000000       0.013
   0.10526316  0.75000000  0.00000000       0.013
   0.10526316  0.87500000  0.00000000       0.013
   0.15789474  0.00000000  0.00000000       0.013
   0.15789474  0.12500000  0.00000000       0.013
   0.15789474  0.25000000  0.00000000       0.013
   0.15789474  0.37500000  0.00000000       0.013
   0.15789474  0.50000000  0.00000000       0.013
   0.15789474  0.62500000  0.00000000       0.013
   0.15789474  0.75000000  0.00000000       0.013
   0.15789474  0.87500000  0.00000000       0.013
   0.21052632  0.00000000  0.00000000       0.013
   0.21052632  0.12500000  0.00000000       0.013
   0.21052632  0.25000000  0.00000000       0.013
   0.21052632  0.37500000  0.00000000       0.013
   0.21052632  0.50000000  0.00000000       0.013
   0.21052632  0.62500000  0.00000000       0.013
   0.21052632  0.75000000  0.00000000       0.013
   0.21052632  0.87500000  0.00000000       0.013
   0.26315789  0.00000000  0.00000000       0.013
   0.26315789  0.12500000  0.00000000       0.013
   0.26315789  0.25000000  0.00000000       0.013
   0.26315789  0.37500000  0.00000000       0.013
   0.26315789  0.50000000  0.00000000       0.013
   0.26315789  0.62500000  0.00000000       0.013
   0.26315789  0.75000000  0.00000000       0.013
   0.26315789  0.87500000  0.00000000       0.013
   0.31578947  0.00000000  0.00000000       0.013
   0.31578947  0.12500000  0.00000000       0.013
   0.31578947  0.25000000  0.00000000       0.013
   0.31578947  0.37500000  0.00000000       0.013
   0.31578947  0.50000000  0.00000000       0.013
   0.31578947  0.62500000  0.00000000       0.013
   0.31578947  0.75000000  0.00000000       0.013
   0.31578947  0.87500000  0.00000000       0.013
   0.36842105  0.00000000  0.00000000       0.013
   0.36842105  0.12500000  0.00000000       0.013
   0.36842105  0.25000000  0.00000000       0.013
   0.36842105  0.37500000  0.00000000       0.013
   0.36842105  0.50000000  0.00000000       0.013
   0.36842105  0.62500000  0.00000000       0.013
   0.36842105  0.75000000  0.00000000       0.013
   0.36842105  0.87500000  0.00000000       0.013
   0.42105263  0.00000000  0.00000000       0.013
   0.42105263  0.12500000  0.00000000       0.013
   0.42105263  0.25000000  0.00000000       0.013
   0.42105263  0.37500000  0.00000000       0.013
   0.42105263  0.50000000  0.00000000       0.013
   0.42105263  0.62500000  0.00000000       0.013
   0.42105263  0.75000000  0.00000000       0.013
   0.42105263  0.87500000  0.00000000       0.013
   0.47368421  0.00000000  0.00000000       0.013
   0.47368421  0.12500000  0.00000000       0.013
   0.47368421  0.25000000  0.00000000       0.013
   0.47368421  0.37500000  0.00000000       0.013
   0.47368421  0.50000000  0.00000000       0.013
   0.47368421  0.62500000  0.00000000       0.013
   0.47368421  0.75000000  0.00000000       0.013
   0.47368421  0.87500000  0.00000000       0.013
 
 position of ions in fractional coordinates (direct lattice) 
   0.50000000  0.16666654  0.50704020
   0.99999998  0.66666654  0.50704021
   0.49999998  0.83333319  0.57977281
   0.99999999  0.33333321  0.57977281
   0.50000000  0.83333330  0.41318692
   0.99999999  0.33333325  0.41318692
 
 position of ions in cartesian coordinates  (Angst):
   1.68179977  0.97098687 10.26887645
   3.36359948  3.88394981 10.26887671
   1.68179971  4.85493736 11.74189995
   3.36359949  1.94197457 11.74190007
   1.68179977  4.85493799  8.36810462
   3.36359950  1.94197481  8.36810463
 


--------------------------------------------------------------------------------------------------------


 k-point  1 :   0.0000 0.0000 0.0000  plane waves:   13271
 k-point  2 :   0.0000 0.1250 0.0000  plane waves:   13281
 k-point  3 :   0.0000 0.2500 0.0000  plane waves:   13253
 k-point  4 :   0.0000 0.3750 0.0000  plane waves:   13224
 k-point  5 :   0.0000 0.5000 0.0000  plane waves:   13256
 k-point  6 :   0.0000 0.6250 0.0000  plane waves:   13224
 k-point  7 :   0.0000 0.7500 0.0000  plane waves:   13253
 k-point  8 :   0.0000 0.8750 0.0000  plane waves:   13281
 k-point  9 :   0.0526 0.0000 0.0000  plane waves:   13281
 k-point 10 :   0.0526 0.1250 0.0000  plane waves:   13279
 k-point 11 :   0.0526 0.2500 0.0000  plane waves:   13271
 k-point 12 :   0.0526 0.3750 0.0000  plane waves:   13245
 k-point 13 :   0.0526 0.5000 0.0000  plane waves:   13218
 k-point 14 :   0.0526 0.6250 0.0000  plane waves:   13245
 k-point 15 :   0.0526 0.7500 0.0000  plane waves:   13271
 k-point 16 :   0.0526 0.8750 0.0000  plane waves:   13279
 k-point 17 :   0.1053 0.0000 0.0000  plane waves:   13273
 k-point 18 :   0.1053 0.1250 0.0000  plane waves:   13265
 k-point 19 :   0.1053 0.2500 0.0000  plane waves:   13254
 k-point 20 :   0.1053 0.3750 0.0000  plane waves:   13246
 k-point 21 :   0.1053 0.5000 0.0000  plane waves:   13222
 k-point 22 :   0.1053 0.6250 0.0000  plane waves:   13246
 k-point 23 :   0.1053 0.7500 0.0000  plane waves:   13254
 k-point 24 :   0.1053 0.8750 0.0000  plane waves:   13265
 k-point 25 :   0.1579 0.0000 0.0000  plane waves:   13287
 k-point 26 :   0.1579 0.1250 0.0000  plane waves:   13251
 k-point 27 :   0.1579 0.2500 0.0000  plane waves:   13249
 k-point 28 :   0.1579 0.3750 0.0000  plane waves:   13233
 k-point 29 :   0.1579 0.5000 0.0000  plane waves:   13226
 k-point 30 :   0.1579 0.6250 0.0000  plane waves:   13233
 k-point 31 :   0.1579 0.7500 0.0000  plane waves:   13249
 k-point 32 :   0.1579 0.8750 0.0000  plane waves:   13251
 k-point 33 :   0.2105 0.0000 0.0000  plane waves:   13253
 k-point 34 :   0.2105 0.1250 0.0000  plane waves:   13256
 k-point 35 :   0.2105 0.2500 0.0000  plane waves:   13253
 k-point 36 :   0.2105 0.3750 0.0000  plane waves:   13237
 k-point 37 :   0.2105 0.5000 0.0000  plane waves:   13220
 k-point 38 :   0.2105 0.6250 0.0000  plane waves:   13237
 k-point 39 :   0.2105 0.7500 0.0000  plane waves:   13253
 k-point 40 :   0.2105 0.8750 0.0000  plane waves:   13256
 k-point 41 :   0.2632 0.0000 0.0000  plane waves:   13235
 k-point 42 :   0.2632 0.1250 0.0000  plane waves:   13248
 k-point 43 :   0.2632 0.2500 0.0000  plane waves:   13232
 k-point 44 :   0.2632 0.3750 0.0000  plane waves:   13220
 k-point 45 :   0.2632 0.5000 0.0000  plane waves:   13232
 k-point 46 :   0.2632 0.6250 0.0000  plane waves:   13220
 k-point 47 :   0.2632 0.7500 0.0000  plane waves:   13232
 k-point 48 :   0.2632 0.8750 0.0000  plane waves:   13248
 k-point 49 :   0.3158 0.0000 0.0000  plane waves:   13254
 k-point 50 :   0.3158 0.1250 0.0000  plane waves:   13229
 k-point 51 :   0.3158 0.2500 0.0000  plane waves:   13227
 k-point 52 :   0.3158 0.3750 0.0000  plane waves:   13227
 k-point 53 :   0.3158 0.5000 0.0000  plane waves:   13222
 k-point 54 :   0.3158 0.6250 0.0000  plane waves:   13227
 k-point 55 :   0.3158 0.7500 0.0000  plane waves:   13227
 k-point 56 :   0.3158 0.8750 0.0000  plane waves:   13229
 k-point 57 :   0.3684 0.0000 0.0000  plane waves:   13242
 k-point 58 :   0.3684 0.1250 0.0000  plane waves:   13239
 k-point 59 :   0.3684 0.2500 0.0000  plane waves:   13242
 k-point 60 :   0.3684 0.3750 0.0000  plane waves:   13248
 k-point 61 :   0.3684 0.5000 0.0000  plane waves:   13244
 k-point 62 :   0.3684 0.6250 0.0000  plane waves:   13248
 k-point 63 :   0.3684 0.7500 0.0000  plane waves:   13242
 k-point 64 :   0.3684 0.8750 0.0000  plane waves:   13239
 k-point 65 :   0.4211 0.0000 0.0000  plane waves:   13240
 k-point 66 :   0.4211 0.1250 0.0000  plane waves:   13235
 k-point 67 :   0.4211 0.2500 0.0000  plane waves:   13255
 k-point 68 :   0.4211 0.3750 0.0000  plane waves:   13247
 k-point 69 :   0.4211 0.5000 0.0000  plane waves:   13264
 k-point 70 :   0.4211 0.6250 0.0000  plane waves:   13247
 k-point 71 :   0.4211 0.7500 0.0000  plane waves:   13255
 k-point 72 :   0.4211 0.8750 0.0000  plane waves:   13235
 k-point 73 :   0.4737 0.0000 0.0000  plane waves:   13218
 k-point 74 :   0.4737 0.1250 0.0000  plane waves:   13235
 k-point 75 :   0.4737 0.2500 0.0000  plane waves:   13242
 k-point 76 :   0.4737 0.3750 0.0000  plane waves:   13252
 k-point 77 :   0.4737 0.5000 0.0000  plane waves:   13308
 k-point 78 :   0.4737 0.6250 0.0000  plane waves:   13252
 k-point 79 :   0.4737 0.7500 0.0000  plane waves:   13242
 k-point 80 :   0.4737 0.8750 0.0000  plane waves:   13235

 maximum and minimum number of plane-waves per node :       577      526

 maximum number of plane-waves:     13308
 maximum index in each direction: 
   IXMAX=    6   IYMAX=   11   IZMAX=   40
   IXMIN=   -7   IYMIN=  -12   IZMIN=  -40


 parallel 3D FFT for wavefunctions:
    minimum data exchange during FFTs selected (reduces bandwidth)
 parallel 3D FFT for charge:
    minimum data exchange during FFTs selected (reduces bandwidth)


 total amount of memory used by VASP MPI-rank0    55993. kBytes
=======================================================================

   base      :      30000. kBytes
   nonl-proj :      19684. kBytes
   fftplans  :       1398. kBytes
   grid      :       2623. kBytes
   one-center:         15. kBytes
   wavefun   :       2273. kBytes
 
     INWAV:  cpu time    0.0000: real time    0.0000
 initial charge density was supplied:
 number of electron      36.0000000 magnetization 
 keeping initial charge density in first step


--------------------------------------------------------------------------------------------------------


 Maximum index for augmentation-charges         1251 (set IRDMAX)


--------------------------------------------------------------------------------------------------------


 First call to EWALD:  gamma=   0.241
 Maximum number of real-space cells 5x 3x 1
 Maximum number of reciprocal cells 2x 2x 7

    FEWALD:  cpu time    0.0016: real time    0.0016


--------------------------------------- Iteration      1(   1)  ---------------------------------------


    POTLOK:  cpu time    0.0201: real time    0.0596
    SETDIJ:  cpu time    0.0032: real time    0.0121
     EDDAV:  cpu time    0.8937: real time    0.8940
       DOS:  cpu time    0.0008: real time    0.0008
    --------------------------------------------
      LOOP:  cpu time    0.9178: real time    0.9665

 eigenvalue-minimisations  :  3840
 total energy-change (2. order) : 0.2608778E+03  (-0.1294764E+04)
 number of electron      36.0000000 magnetization 
 augmentation part       36.0000000 magnetization 

 DIPCOR: dipole corrections for dipol
 direction  3 min pos     1,
 dipolmoment           0.000000      0.000000      0.159036 electrons x Angstroem
 Tr[quadrupol]      -125.881395

 energy correction for charged system         0.000000 eV
 dipol+quadrupol energy correction           -0.005766 eV
 added-field ion interaction          0.000001 eV  (added to PSCEN)


 Free energy of the ion-electron system (eV)
  ---------------------------------------------------
  alpha Z        PSCENC =        26.09851129
  Ewald energy   TEWEN  =      4179.61992589
  -Hartree energ DENC   =     -5523.79089468
  -exchange      EXHF   =         0.00000000
  -V(xc)+E(xc)   XCENC  =      -151.27064270
  PAW double counting   =      2979.58256801    -2756.83781222
  entropy T*S    EENTRO =         0.00000000
  eigenvalues    EBANDS =        72.25441378
  atomic energy  EATOM  =      1435.22174307
  Solvation  Ediel_sol  =         0.00000000
  ---------------------------------------------------
  free energy    TOTEN  =       260.87781243 eV

  energy without entropy =      260.87781243  energy(sigma->0) =      260.87781243


--------------------------------------------------------------------------------------------------------




--------------------------------------- Iteration      1(   2)  ---------------------------------------


     EDDAV:  cpu time    1.0953: real time    1.0957
       DOS:  cpu time    0.0006: real time    0.0006
    --------------------------------------------
      LOOP:  cpu time    1.0959: real time    1.0963

 eigenvalue-minimisations  :  6000
 total energy-change (2. order) :-0.2662512E+03  (-0.2573396E+03)
 number of electron      36.0000000 magnetization 
 augmentation part       36.0000000 magnetization 

 DIPCOR: dipole corrections for dipol
 direction  3 min pos     1,
 dipolmoment           0.000000      0.000000      0.159036 electrons x Angstroem
 Tr[quadrupol]      -125.881395

 energy correction for charged system         0.000000 eV
 dipol+quadrupol energy correction           -0.005766 eV
 added-field ion interaction          0.000001 eV  (added to PSCEN)


 Free energy of the ion-electron system (eV)
  ---------------------------------------------------
  alpha Z        PSCENC =        26.09851129
  Ewald energy   TEWEN  =      4179.61992589
  -Hartree energ DENC   =     -5523.79089468
  -exchange      EXHF   =         0.00000000
  -V(xc)+E(xc)   XCENC  =      -151.27064270
  PAW double counting   =      2979.58256801    -2756.83781222
  entropy T*S    EENTRO =         0.00000000
  eigenvalues    EBANDS =      -193.99677839
  atomic energy  EATOM  =      1435.22174307
  Solvation  Ediel_sol  =         0.00000000
  ---------------------------------------------------
  free energy    TOTEN  =        -5.37337974 eV

  energy without entropy =       -5.37337974  energy(sigma->0) =       -5.37337974


--------------------------------------------------------------------------------------------------------




--------------------------------------- Iteration      1(   3)  ---------------------------------------


     EDDAV:  cpu time    0.9826: real time    0.9829
       DOS:  cpu time    0.0006: real time    0.0006
    --------------------------------------------
      LOOP:  cpu time    0.9832: real time    0.9835

 eigenvalue-minimisations  :  5064
 total energy-change (2. order) :-0.3291447E+02  (-0.3258504E+02)
 number of electron      36.0000000 magnetization 
 augmentation part       36.0000000 magnetization 

 DIPCOR: dipole corrections for dipol
 direction  3 min pos     1,
 dipolmoment           0.000000      0.000000      0.159036 electrons x Angstroem
 Tr[quadrupol]      -125.881395

 energy correction for charged system         0.000000 eV
 dipol+quadrupol energy correction           -0.005766 eV
 added-field ion interaction          0.000001 eV  (added to PSCEN)


 Free energy of the ion-electron system (eV)
  ---------------------------------------------------
  alpha Z        PSCENC =        26.09851129
  Ewald energy   TEWEN  =      4179.61992589
  -Hartree energ DENC   =     -5523.79089468
  -exchange      EXHF   =         0.00000000
  -V(xc)+E(xc)   XCENC  =      -151.27064270
  PAW double counting   =      2979.58256801    -2756.83781222
  entropy T*S    EENTRO =         0.00000000
  eigenvalues    EBANDS =      -226.91124881
  atomic energy  EATOM  =      1435.22174307
  Solvation  Ediel_sol  =         0.00000000
  ---------------------------------------------------
  free energy    TOTEN  =       -38.28785016 eV

  energy without entropy =      -38.28785016  energy(sigma->0) =      -38.28785016


--------------------------------------------------------------------------------------------------------




--------------------------------------- Iteration      1(   4)  ---------------------------------------


     EDDAV:  cpu time    1.0557: real time    1.0559
       DOS:  cpu time    0.0006: real time    0.0006
    --------------------------------------------
      LOOP:  cpu time    1.0563: real time    1.0565

 eigenvalue-minimisations  :  5864
 total energy-change (2. order) :-0.1109258E+01  (-0.1103173E+01)
 number of electron      36.0000000 magnetization 
 augmentation part       36.0000000 magnetization 

 DIPCOR: dipole corrections for dipol
 direction  3 min pos     1,
 dipolmoment           0.000000      0.000000      0.159036 electrons x Angstroem
 Tr[quadrupol]      -125.881395

 energy correction for charged system         0.000000 eV
 dipol+quadrupol energy correction           -0.005766 eV
 added-field ion interaction          0.000001 eV  (added to PSCEN)


 Free energy of the ion-electron system (eV)
  ---------------------------------------------------
  alpha Z        PSCENC =        26.09851129
  Ewald energy   TEWEN  =      4179.61992589
  -Hartree energ DENC   =     -5523.79089468
  -exchange      EXHF   =         0.00000000
  -V(xc)+E(xc)   XCENC  =      -151.27064270
  PAW double counting   =      2979.58256801    -2756.83781222
  entropy T*S    EENTRO =         0.00000000
  eigenvalues    EBANDS =      -228.02050688
  atomic energy  EATOM  =      1435.22174307
  Solvation  Ediel_sol  =         0.00000000
  ---------------------------------------------------
  free energy    TOTEN  =       -39.39710823 eV

  energy without entropy =      -39.39710823  energy(sigma->0) =      -39.39710823


--------------------------------------------------------------------------------------------------------




--------------------------------------- Iteration      1(   5)  ---------------------------------------


     EDDAV:  cpu time    1.0308: real time    1.0310
       DOS:  cpu time    0.0006: real time    0.0006
    --------------------------------------------
      LOOP:  cpu time    1.0314: real time    1.0317

 eigenvalue-minimisations  :  5688
 total energy-change (2. order) :-0.2709573E-01  (-0.2707425E-01)
 number of electron      36.0000000 magnetization 
 augmentation part       36.0000000 magnetization 

 DIPCOR: dipole corrections for dipol
 direction  3 min pos     1,
 dipolmoment           0.000000      0.000000      0.159036 electrons x Angstroem
 Tr[quadrupol]      -125.881395

 energy correction for charged system         0.000000 eV
 dipol+quadrupol energy correction           -0.005766 eV
 added-field ion interaction          0.000001 eV  (added to PSCEN)


 Free energy of the ion-electron system (eV)
  ---------------------------------------------------
  alpha Z        PSCENC =        26.09851129
  Ewald energy   TEWEN  =      4179.61992589
  -Hartree energ DENC   =     -5523.79089468
  -exchange      EXHF   =         0.00000000
  -V(xc)+E(xc)   XCENC  =      -151.27064270
  PAW double counting   =      2979.58256801    -2756.83781222
  entropy T*S    EENTRO =         0.00000000
  eigenvalues    EBANDS =      -228.04760261
  atomic energy  EATOM  =      1435.22174307
  Solvation  Ediel_sol  =         0.00000000
  ---------------------------------------------------
  free energy    TOTEN  =       -39.42420396 eV

  energy without entropy =      -39.42420396  energy(sigma->0) =      -39.42420396


--------------------------------------------------------------------------------------------------------




--------------------------------------- Iteration      1(   6)  ---------------------------------------


     EDDAV:  cpu time    1.0577: real time    1.0580
       DOS:  cpu time    0.0005: real time    0.0005
    --------------------------------------------
      LOOP:  cpu time    1.0583: real time    1.0586

 eigenvalue-minimisations  :  5912
 total energy-change (2. order) :-0.4568855E-03  (-0.4566469E-03)
 number of electron      36.0000000 magnetization 
 augmentation part       36.0000000 magnetization 

 DIPCOR: dipole corrections for dipol
 direction  3 min pos     1,
 dipolmoment           0.000000      0.000000      0.159036 electrons x Angstroem
 Tr[quadrupol]      -125.881395

 energy correction for charged system         0.000000 eV
 dipol+quadrupol energy correction           -0.005766 eV
 added-field ion interaction          0.000001 eV  (added to PSCEN)


 Free energy of the ion-electron system (eV)
  ---------------------------------------------------
  alpha Z        PSCENC =        26.09851129
  Ewald energy   TEWEN  =      4179.61992589
  -Hartree energ DENC   =     -5523.79089468
  -exchange      EXHF   =         0.00000000
  -V(xc)+E(xc)   XCENC  =      -151.27064270
  PAW double counting   =      2979.58256801    -2756.83781222
  entropy T*S    EENTRO =         0.00000000
  eigenvalues    EBANDS =      -228.04805949
  atomic energy  EATOM  =      1435.22174307
  Solvation  Ediel_sol  =         0.00000000
  ---------------------------------------------------
  free energy    TOTEN  =       -39.42466084 eV

  energy without entropy =      -39.42466084  energy(sigma->0) =      -39.42466084


--------------------------------------------------------------------------------------------------------




--------------------------------------- Iteration      1(   7)  ---------------------------------------


     EDDAV:  cpu time    1.0461: real time    1.0463
       DOS:  cpu time    0.0005: real time    0.0005
    --------------------------------------------
      LOOP:  cpu time    1.0465: real time    1.0467

 eigenvalue-minimisations  :  5712
 total energy-change (2. order) :-0.1338157E-04  (-0.1337995E-04)
 number of electron      36.0000000 magnetization 
 augmentation part       36.0000000 magnetization 

 DIPCOR: dipole corrections for dipol
 direction  3 min pos     1,
 dipolmoment           0.000000      0.000000      0.159036 electrons x Angstroem
 Tr[quadrupol]      -125.881395

 energy correction for charged system         0.000000 eV
 dipol+quadrupol energy correction           -0.005766 eV
 added-field ion interaction          0.000001 eV  (added to PSCEN)


 Free energy of the ion-electron system (eV)
  ---------------------------------------------------
  alpha Z        PSCENC =        26.09851129
  Ewald energy   TEWEN  =      4179.61992589
  -Hartree energ DENC   =     -5523.79089468
  -exchange      EXHF   =         0.00000000
  -V(xc)+E(xc)   XCENC  =      -151.27064270
  PAW double counting   =      2979.58256801    -2756.83781222
  entropy T*S    EENTRO =         0.00000000
  eigenvalues    EBANDS =      -228.04807287
  atomic energy  EATOM  =      1435.22174307
  Solvation  Ediel_sol  =         0.00000000
  ---------------------------------------------------
  free energy    TOTEN  =       -39.42467422 eV

  energy without entropy =      -39.42467422  energy(sigma->0) =      -39.42467422


--------------------------------------------------------------------------------------------------------




--------------------------------------- Iteration      1(   8)  ---------------------------------------


     EDDAV:  cpu time    1.0676: real time    1.0682
       DOS:  cpu time    0.0005: real time    0.0005
    --------------------------------------------
      LOOP:  cpu time    1.0681: real time    1.0688

 eigenvalue-minimisations  :  5952
 total energy-change (2. order) :-0.3405275E-06  (-0.3404865E-06)
 number of electron      36.0000000 magnetization 
 augmentation part       36.0000000 magnetization 

 DIPCOR: dipole corrections for dipol
 direction  3 min pos     1,
 dipolmoment           0.000000      0.000000      0.159036 electrons x Angstroem
 Tr[quadrupol]      -125.881395

 energy correction for charged system         0.000000 eV
 dipol+quadrupol energy correction           -0.005766 eV
 added-field ion interaction          0.000001 eV  (added to PSCEN)


 Free energy of the ion-electron system (eV)
  ---------------------------------------------------
  alpha Z        PSCENC =        26.09851129
  Ewald energy   TEWEN  =      4179.61992589
  -Hartree energ DENC   =     -5523.79089468
  -exchange      EXHF   =         0.00000000
  -V(xc)+E(xc)   XCENC  =      -151.27064270
  PAW double counting   =      2979.58256801    -2756.83781222
  entropy T*S    EENTRO =         0.00000000
  eigenvalues    EBANDS =      -228.04807321
  atomic energy  EATOM  =      1435.22174307
  Solvation  Ediel_sol  =         0.00000000
  ---------------------------------------------------
  free energy    TOTEN  =       -39.42467456 eV

  energy without entropy =      -39.42467456  energy(sigma->0) =      -39.42467456


--------------------------------------------------------------------------------------------------------




--------------------------------------- Iteration      1(   9)  ---------------------------------------


     EDDAV:  cpu time    0.8520: real time    0.8522
       DOS:  cpu time    0.0005: real time    0.0005
    --------------------------------------------
      LOOP:  cpu time    0.8524: real time    0.8527

 eigenvalue-minimisations  :  3808
 total energy-change (2. order) :-0.8619281E-08  (-0.8654819E-08)
 number of electron      36.0000000 magnetization 
 augmentation part       36.0000000 magnetization 

 DIPCOR: dipole corrections for dipol
 direction  3 min pos     1,
 dipolmoment           0.000000      0.000000      0.159036 electrons x Angstroem
 Tr[quadrupol]      -125.881395

 energy correction for charged system         0.000000 eV
 dipol+quadrupol energy correction           -0.005766 eV
 added-field ion interaction          0.000001 eV  (added to PSCEN)


 Free energy of the ion-electron system (eV)
  ---------------------------------------------------
  alpha Z        PSCENC =        26.09851129
  Ewald energy   TEWEN  =      4179.61992589
  -Hartree energ DENC   =     -5523.79089468
  -exchange      EXHF   =         0.00000000
  -V(xc)+E(xc)   XCENC  =      -151.27064270
  PAW double counting   =      2979.58256801    -2756.83781222
  entropy T*S    EENTRO =         0.00000000
  eigenvalues    EBANDS =      -228.04807322
  atomic energy  EATOM  =      1435.22174307
  Solvation  Ediel_sol  =         0.00000000
  ---------------------------------------------------
  free energy    TOTEN  =       -39.42467457 eV

  energy without entropy =      -39.42467457  energy(sigma->0) =      -39.42467457


--------------------------------------------------------------------------------------------------------




 average (electrostatic) potential at core
  the test charge radii are     1.2296  0.9698  1.1897
  (the norm of the test charge is              1.0000)
       1 -45.0027       2 -45.0027       3 -92.8701       4 -92.8701       5 -95.9631
       6 -95.9631
 
 
 
 E-fermi :  -1.4072     XC(G=0):  -3.9346     alpha+bet : -3.9597


 k-point     1 :       0.0000    0.0000    0.0000
  band No.  band energies     occupation 
      1     -15.0687      2.00000
      2     -14.0644      2.00000
      3     -13.7135      2.00000
      4     -12.2397      2.00000
      5      -7.4704      2.00000
      6      -6.8942      2.00000
      7      -6.2708      2.00000
      8      -5.2472      2.00000
      9      -4.5033      2.00000
     10      -4.1841      2.00000
     11      -4.1841      2.00000
     12      -3.9428      2.00000
     13      -3.4834      2.00000
     14      -2.4845      2.00000
     15      -2.4845      2.00000
     16      -2.2231      2.00000
     17      -2.1100      2.00000
     18      -1.4248      2.00000
     19       0.0999      0.00000
     20       0.2636      0.00000
     21       1.0561      0.00000
     22       1.0561      0.00000
     23       1.6476      0.00000
     24       2.1119      0.00000

 k-point     2 :       0.0000    0.1250    0.0000
  band No.  band energies     occupation 
      1     -15.0173      2.00000
      2     -14.0280      2.00000
      3     -13.7611      2.00000
      4     -12.3817      2.00000
      5      -7.2581      2.00000
      6      -6.8345      2.00000
      7      -6.1951      2.00000
      8      -5.2415      2.00000
      9      -4.4702      2.00000
     10      -4.3778      2.00000
     11      -4.1587      2.00000
     12      -3.8547      2.00000
     13      -3.4839      2.00000
     14      -2.5621      2.00000
     15      -2.5354      2.00000
     16      -2.2874      2.00000
     17      -2.1585      2.00000
     18      -1.4404      2.00000
     19       0.1223      0.00000
     20       0.1697      0.00000
     21       0.9712      0.00000
     22       1.0894      0.00000
     23       1.6732      0.00000
     24       1.7164      0.00000

 k-point     3 :       0.0000    0.2500    0.0000
  band No.  band energies     occupation 
      1     -14.8691      2.00000
      2     -13.9184      2.00000
      3     -13.8988      2.00000
      4     -12.7236      2.00000
      5      -6.7583      2.00000
      6      -6.6648      2.00000
      7      -5.9503      2.00000
      8      -5.2490      2.00000
      9      -4.7179      2.00000
     10      -4.3774      2.00000
     11      -4.1017      2.00000
     12      -3.8387      2.00000
     13      -3.4693      2.00000
     14      -2.7744      2.00000
     15      -2.6459      2.00000
     16      -2.3791      2.00000
     17      -2.2963      2.00000
     18      -1.5343      2.00000
     19      -0.0068      0.00000
     20       0.2086      0.00000
     21       0.7784      0.00000
     22       1.0259      0.00000
     23       1.1038      0.00000
     24       1.5992      0.00000

 k-point     4 :       0.0000    0.3750    0.0000
  band No.  band energies     occupation 
      1     -14.6428      2.00000
      2     -14.1119      2.00000
      3     -13.7329      2.00000
      4     -13.1177      2.00000
      5      -6.4224      2.00000
      6      -6.3118      2.00000
      7      -5.5838      2.00000
      8      -5.1597      2.00000
      9      -5.0882      2.00000
     10      -4.2471      2.00000
     11      -4.0709      2.00000
     12      -4.0543      2.00000
     13      -3.4021      2.00000
     14      -3.0493      2.00000
     15      -2.7146      2.00000
     16      -2.4871      2.00000
     17      -2.3296      2.00000
     18      -1.7702      2.00000
     19      -0.1333      0.00000
     20       0.2309      0.00000
     21       0.3857      0.00000
     22       0.9339      0.00000
     23       0.9349      0.00000
     24       1.3799      0.00000

 k-point     5 :       0.0000    0.5000    0.0000
  band No.  band energies     occupation 
      1     -14.3742      2.00000
      2     -14.3742      2.00000
      3     -13.4659      2.00000
      4     -13.4659      2.00000
      5      -6.2172      2.00000
      6      -6.2172      2.00000
      7      -5.4027      2.00000
      8      -5.4027      2.00000
      9      -4.5820      2.00000
     10      -4.5820      2.00000
     11      -4.1246      2.00000
     12      -4.1246      2.00000
     13      -3.2667      2.00000
     14      -3.2667      2.00000
     15      -2.6557      2.00000
     16      -2.6557      2.00000
     17      -2.0905      2.00000
     18      -2.0905      2.00000
     19      -0.0973      0.00000
     20      -0.0973      0.00000
     21       0.6475      0.00000
     22       0.6475      0.00000
     23       1.1196      0.00000
     24       1.1196      0.00000

 k-point     6 :       0.0000    0.6250    0.0000
  band No.  band energies     occupation 
      1     -14.6428      2.00000
      2     -14.1119      2.00000
      3     -13.7329      2.00000
      4     -13.1177      2.00000
      5      -6.4224      2.00000
      6      -6.3118      2.00000
      7      -5.5838      2.00000
      8      -5.1597      2.00000
      9      -5.0882      2.00000
     10      -4.2471      2.00000
     11      -4.0709      2.00000
     12      -4.0543      2.00000
     13      -3.4021      2.00000
     14      -3.0493      2.00000
     15      -2.7146      2.00000
     16      -2.4871      2.00000
     17      -2.3296      2.00000
     18      -1.7702      2.00000
     19      -0.1333      0.00000
     20       0.2309      0.00000
     21       0.3857      0.00000
     22       0.9338      0.00000
     23       0.9349      0.00000
     24       1.3799      0.00000

 k-point     7 :       0.0000    0.7500    0.0000
  band No.  band energies     occupation 
      1     -14.8691      2.00000
      2     -13.9184      2.00000
      3     -13.8988      2.00000
      4     -12.7236      2.00000
      5      -6.7583      2.00000
      6      -6.6648      2.00000
      7      -5.9503      2.00000
      8      -5.2490      2.00000
      9      -4.7179      2.00000
     10      -4.3774      2.00000
     11      -4.1017      2.00000
     12      -3.8387      2.00000
     13      -3.4693      2.00000
     14      -2.7744      2.00000
     15      -2.6459      2.00000
     16      -2.3791      2.00000
     17      -2.2963      2.00000
     18      -1.5343      2.00000
     19      -0.0068      0.00000
     20       0.2086      0.00000
     21       0.7784      0.00000
     22       1.0260      0.00000
     23       1.1046      0.00000
     24       1.6025      0.00000

 k-point     8 :       0.0000    0.8750    0.0000
  band No.  band energies     occupation 
      1     -15.0173      2.00000
      2     -14.0280      2.00000
      3     -13.7611      2.00000
      4     -12.3817      2.00000
      5      -7.2581      2.00000
      6      -6.8345      2.00000
      7      -6.1951      2.00000
      8      -5.2415      2.00000
      9      -4.4702      2.00000
     10      -4.3778      2.00000
     11      -4.1587      2.00000
     12      -3.8547      2.00000
     13      -3.4839      2.00000
     14      -2.5621      2.00000
     15      -2.5354      2.00000
     16      -2.2874      2.00000
     17      -2.1585      2.00000
     18      -1.4404      2.00000
     19       0.1223      0.00000
     20       0.1697      0.00000
     21       0.9712      0.00000
     22       1.0895      0.00000
     23       1.6737      0.00000
     24       1.7196      0.00000

 k-point     9 :       0.0526    0.0000    0.0000
  band No.  band energies     occupation 
      1     -15.0413      2.00000
      2     -14.0450      2.00000
      3     -13.7059      2.00000
      4     -12.2220      2.00000
      5      -7.4359      2.00000
      6      -6.8623      2.00000
      7      -6.2653      2.00000
      8      -5.2445      2.00000
      9      -4.5258      2.00000
     10      -4.3009      2.00000
     11      -4.1704      2.00000
     12      -3.8818      2.00000
     13      -3.4753      2.00000
     14      -2.5634      2.00000
     15      -2.5268      2.00000
     16      -2.5119      2.00000
     17      -1.9442      2.00000
     18      -1.4319      2.00000
     19       0.0719      0.00000
     20       0.3228      0.00000
     21       1.0080      0.00000
     22       1.0756      0.00000
     23       1.6866      0.00000
     24       1.9018      0.00000

 k-point    10 :       0.0526    0.1250    0.0000
  band No.  band energies     occupation 
      1     -14.9904      2.00000
      2     -14.0086      2.00000
      3     -13.7528      2.00000
      4     -12.3628      2.00000
      5      -7.2270      2.00000
      6      -6.8033      2.00000
      7      -6.1890      2.00000
      8      -5.2372      2.00000
      9      -4.5044      2.00000
     10      -4.4511      2.00000
     11      -4.1487      2.00000
     12      -3.8353      2.00000
     13      -3.4636      2.00000
     14      -2.6065      2.00000
     15      -2.6058      2.00000
     16      -2.5554      2.00000
     17      -2.0031      2.00000
     18      -1.4517      2.00000
     19       0.0717      0.00000
     20       0.2375      0.00000
     21       0.9356      0.00000
     22       1.0977      0.00000
     23       1.5592      0.00000
     24       1.6790      0.00000

 k-point    11 :       0.0526    0.2500    0.0000
  band No.  band energies     occupation 
      1     -14.8437      2.00000
      2     -13.8988      2.00000
      3     -13.8883      2.00000
      4     -12.7027      2.00000
      5      -6.7361      2.00000
      6      -6.6358      2.00000
      7      -5.9410      2.00000
      8      -5.2434      2.00000
      9      -4.7603      2.00000
     10      -4.4387      2.00000
     11      -4.1169      2.00000
     12      -3.8281      2.00000
     13      -3.4201      2.00000
     14      -2.8355      2.00000
     15      -2.6851      2.00000
     16      -2.6420      2.00000
     17      -2.1207      2.00000
     18      -1.5458      2.00000
     19      -0.0402      0.00000
     20       0.2255      0.00000
     21       0.7678      0.00000
     22       0.8854      0.00000
     23       1.1403      0.00000
     24       1.5536      0.00000

 k-point    12 :       0.0526    0.3750    0.0000
  band No.  band energies     occupation 
      1     -14.6203      2.00000
      2     -14.0978      2.00000
      3     -13.7128      2.00000
      4     -13.0960      2.00000
      5      -6.3964      2.00000
      6      -6.2968      2.00000
      7      -5.5721      2.00000
      8      -5.1603      2.00000
      9      -5.1120      2.00000
     10      -4.3292      2.00000
     11      -4.1566      2.00000
     12      -4.0021      2.00000
     13      -3.3327      2.00000
     14      -3.0901      2.00000
     15      -2.7296      2.00000
     16      -2.7252      2.00000
     17      -2.1760      2.00000
     18      -1.7621      2.00000
     19      -0.1618      0.00000
     20       0.2018      0.00000
     21       0.3608      0.00000
     22       0.8453      0.00000
     23       0.9309      0.00000
     24       1.3182      0.00000

 k-point    13 :       0.0526    0.5000    0.0000
  band No.  band energies     occupation 
      1     -14.3557      2.00000
      2     -14.3557      2.00000
      3     -13.4449      2.00000
      4     -13.4449      2.00000
      5      -6.1958      2.00000
      6      -6.1958      2.00000
      7      -5.4110      2.00000
      8      -5.4110      2.00000
      9      -4.5840      2.00000
     10      -4.5840      2.00000
     11      -4.1966      2.00000
     12      -4.1966      2.00000
     13      -3.2267      2.00000
     14      -3.2267      2.00000
     15      -2.7556      2.00000
     16      -2.7556      2.00000
     17      -2.0346      2.00000
     18      -2.0346      2.00000
     19      -0.1212      0.00000
     20      -0.1212      0.00000
     21       0.5953      0.00000
     22       0.5953      0.00000
     23       1.0638      0.00000
     24       1.0638      0.00000

 k-point    14 :       0.0526    0.6250    0.0000
  band No.  band energies     occupation 
      1     -14.6203      2.00000
      2     -14.0978      2.00000
      3     -13.7128      2.00000
      4     -13.0960      2.00000
      5      -6.3964      2.00000
      6      -6.2968      2.00000
      7      -5.5721      2.00000
      8      -5.1603      2.00000
      9      -5.1120      2.00000
     10      -4.3292      2.00000
     11      -4.1566      2.00000
     12      -4.0021      2.00000
     13      -3.3327      2.00000
     14      -3.0901      2.00000
     15      -2.7296      2.00000
     16      -2.7252      2.00000
     17      -2.1760      2.00000
     18      -1.7621      2.00000
     19      -0.1618      0.00000
     20       0.2018      0.00000
     21       0.3608      0.00000
     22       0.8453      0.00000
     23       0.9309      0.00000
     24       1.3182      0.00000

 k-point    15 :       0.0526    0.7500    0.0000
  band No.  band energies     occupation 
      1     -14.8437      2.00000
      2     -13.8988      2.00000
      3     -13.8883      2.00000
      4     -12.7027      2.00000
      5      -6.7361      2.00000
      6      -6.6358      2.00000
      7      -5.9410      2.00000
      8      -5.2434      2.00000
      9      -4.7603      2.00000
     10      -4.4387      2.00000
     11      -4.1169      2.00000
     12      -3.8281      2.00000
     13      -3.4201      2.00000
     14      -2.8355      2.00000
     15      -2.6851      2.00000
     16      -2.6420      2.00000
     17      -2.1207      2.00000
     18      -1.5458      2.00000
     19      -0.0402      0.00000
     20       0.2255      0.00000
     21       0.7678      0.00000
     22       0.8854      0.00000
     23       1.1404      0.00000
     24       1.5540      0.00000

 k-point    16 :       0.0526    0.8750    0.0000
  band No.  band energies     occupation 
      1     -14.9904      2.00000
      2     -14.0086      2.00000
      3     -13.7528      2.00000
      4     -12.3628      2.00000
      5      -7.2270      2.00000
      6      -6.8033      2.00000
      7      -6.1890      2.00000
      8      -5.2372      2.00000
      9      -4.5044      2.00000
     10      -4.4511      2.00000
     11      -4.1487      2.00000
     12      -3.8353      2.00000
     13      -3.4636      2.00000
     14      -2.6065      2.00000
     15      -2.6058      2.00000
     16      -2.5554      2.00000
     17      -2.0031      2.00000
     18      -1.4517      2.00000
     19       0.0717      0.00000
     20       0.2375      0.00000
     21       0.9356      0.00000
     22       1.0978      0.00000
     23       1.5603      0.00000
     24       1.7152      0.00000

 k-point    17 :       0.1053    0.0000    0.0000
  band No.  band energies     occupation 
      1     -14.9606      2.00000
      2     -13.9869      2.00000
      3     -13.6845      2.00000
      4     -12.1709      2.00000
      5      -7.3341      2.00000
      6      -6.7689      2.00000
      7      -6.2547      2.00000
      8      -5.2384      2.00000
      9      -4.5760      2.00000
     10      -4.5236      2.00000
     11      -4.1390      2.00000
     12      -3.8231      2.00000
     13      -3.4649      2.00000
     14      -3.1035      2.00000
     15      -2.6549      2.00000
     16      -2.5760      2.00000
     17      -1.8632      2.00000
     18      -1.4665      2.00000
     19       0.0086      0.00000
     20       0.4525      0.00000
     21       0.9019      0.00000
     22       1.0973      0.00000
     23       1.4264      0.00000
     24       1.6393      0.00000

 k-point    18 :       0.1053    0.1250    0.0000
  band No.  band energies     occupation 
      1     -14.9113      2.00000
      2     -13.9504      2.00000
      3     -13.7293      2.00000
      4     -12.3080      2.00000
      5      -7.1363      2.00000
      6      -6.7126      2.00000
      7      -6.1780      2.00000
      8      -5.2248      2.00000
      9      -4.6338      2.00000
     10      -4.5804      2.00000
     11      -4.1159      2.00000
     12      -3.8261      2.00000
     13      -3.4284      2.00000
     14      -3.1175      2.00000
     15      -2.7169      2.00000
     16      -2.6190      2.00000
     17      -1.9255      2.00000
     18      -1.5008      2.00000
     19       0.0083      0.00000
     20       0.3427      0.00000
     21       0.8425      0.00000
     22       1.1048      0.00000
     23       1.1714      0.00000
     24       1.5641      0.00000

 k-point    19 :       0.1053    0.2500    0.0000
  band No.  band energies     occupation 
      1     -14.7694      2.00000
      2     -13.8584      2.00000
      3     -13.8399      2.00000
      4     -12.6414      2.00000
      5      -6.6754      2.00000
      6      -6.5526      2.00000
      7      -5.9244      2.00000
      8      -5.2263      2.00000
      9      -4.8850      2.00000
     10      -4.5661      2.00000
     11      -4.1315      2.00000
     12      -3.8474      2.00000
     13      -3.3358      2.00000
     14      -3.1280      2.00000
     15      -2.9515      2.00000
     16      -2.6685      2.00000
     17      -2.0309      2.00000
     18      -1.6021      2.00000
     19      -0.1039      0.00000
     20       0.2659      0.00000
     21       0.5799      0.00000
     22       0.8080      0.00000
     23       1.0751      0.00000
     24       1.3997      0.00000

 k-point    20 :       0.1053    0.3750    0.0000
  band No.  band energies     occupation 
      1     -14.5546      2.00000
      2     -14.0574      2.00000
      3     -13.6522      2.00000
      4     -13.0315      2.00000
      5      -6.3247      2.00000
      6      -6.2629      2.00000
      7      -5.5409      2.00000
      8      -5.1860      2.00000
      9      -5.1755      2.00000
     10      -4.4868      2.00000
     11      -4.2470      2.00000
     12      -4.0308      2.00000
     13      -3.2088      2.00000
     14      -3.1644      2.00000
     15      -3.0956      2.00000
     16      -2.7644      2.00000
     17      -2.0604      2.00000
     18      -1.7705      2.00000
     19      -0.2364      0.00000
     20       0.0992      0.00000
     21       0.3244      0.00000
     22       0.7722      0.00000
     23       0.8135      0.00000
     24       1.1742      0.00000

 k-point    21 :       0.1053    0.5000    0.0000
  band No.  band energies     occupation 
      1     -14.3022      2.00000
      2     -14.3022      2.00000
      3     -13.3816      2.00000
      4     -13.3816      2.00000
      5      -6.1434      2.00000
      6      -6.1434      2.00000
      7      -5.4342      2.00000
      8      -5.4342      2.00000
      9      -4.6130      2.00000
     10      -4.6130      2.00000
     11      -4.3480      2.00000
     12      -4.3480      2.00000
     13      -3.1741      2.00000
     14      -3.1741      2.00000
     15      -2.9456      2.00000
     16      -2.9456      2.00000
     17      -1.9576      2.00000
     18      -1.9576      2.00000
     19      -0.1939      0.00000
     20      -0.1939      0.00000
     21       0.4888      0.00000
     22       0.4888      0.00000
     23       0.9511      0.00000
     24       0.9512      0.00000

 k-point    22 :       0.1053    0.6250    0.0000
  band No.  band energies     occupation 
      1     -14.5546      2.00000
      2     -14.0574      2.00000
      3     -13.6522      2.00000
      4     -13.0315      2.00000
      5      -6.3247      2.00000
      6      -6.2629      2.00000
      7      -5.5409      2.00000
      8      -5.1860      2.00000
      9      -5.1755      2.00000
     10      -4.4868      2.00000
     11      -4.2470      2.00000
     12      -4.0308      2.00000
     13      -3.2088      2.00000
     14      -3.1644      2.00000
     15      -3.0956      2.00000
     16      -2.7644      2.00000
     17      -2.0604      2.00000
     18      -1.7705      2.00000
     19      -0.2364      0.00000
     20       0.0992      0.00000
     21       0.3244      0.00000
     22       0.7722      0.00000
     23       0.8135      0.00000
     24       1.1742      0.00000

 k-point    23 :       0.1053    0.7500    0.0000
  band No.  band energies     occupation 
      1     -14.7694      2.00000
      2     -13.8584      2.00000
      3     -13.8399      2.00000
      4     -12.6414      2.00000
      5      -6.6754      2.00000
      6      -6.5526      2.00000
      7      -5.9244      2.00000
      8      -5.2263      2.00000
      9      -4.8850      2.00000
     10      -4.5661      2.00000
     11      -4.1315      2.00000
     12      -3.8474      2.00000
     13      -3.3358      2.00000
     14      -3.1280      2.00000
     15      -2.9515      2.00000
     16      -2.6685      2.00000
     17      -2.0309      2.00000
     18      -1.6021      2.00000
     19      -0.1039      0.00000
     20       0.2659      0.00000
     21       0.5799      0.00000
     22       0.8080      0.00000
     23       1.0751      0.00000
     24       1.3997      0.00000

 k-point    24 :       0.1053    0.8750    0.0000
  band No.  band energies     occupation 
      1     -14.9113      2.00000
      2     -13.9504      2.00000
      3     -13.7293      2.00000
      4     -12.3080      2.00000
      5      -7.1363      2.00000
      6      -6.7126      2.00000
      7      -6.1780      2.00000
      8      -5.2248      2.00000
      9      -4.6338      2.00000
     10      -4.5804      2.00000
     11      -4.1159      2.00000
     12      -3.8261      2.00000
     13      -3.4284      2.00000
     14      -3.1175      2.00000
     15      -2.7169      2.00000
     16      -2.6190      2.00000
     17      -1.9255      2.00000
     18      -1.5008      2.00000
     19       0.0083      0.00000
     20       0.3427      0.00000
     21       0.8425      0.00000
     22       1.1049      0.00000
     23       1.1714      0.00000
     24       1.5640      0.00000

 k-point    25 :       0.1579    0.0000    0.0000
  band No.  band energies     occupation 
      1     -14.8317      2.00000
      2     -13.8894      2.00000
      3     -13.6533      2.00000
      4     -12.0931      2.00000
      5      -7.1707      2.00000
      6      -6.6220      2.00000
      7      -6.2535      2.00000
      8      -5.2335      2.00000
      9      -4.7799      2.00000
     10      -4.6182      2.00000
     11      -4.1246      2.00000
     12      -3.8236      2.00000
     13      -3.7730      2.00000
     14      -3.4199      2.00000
     15      -2.8625      2.00000
     16      -2.6421      2.00000
     17      -1.8518      2.00000
     18      -1.5512      2.00000
     19      -0.0894      0.00000
     20       0.5932      0.00000
     21       0.7722      0.00000
     22       0.8260      0.00000
     23       1.1393      0.00000
     24       1.3342      0.00000

 k-point    26 :       0.1579    0.1250    0.0000
  band No.  band energies     occupation 
      1     -14.7851      2.00000
      2     -13.8526      2.00000
      3     -13.6947      2.00000
      4     -12.2233      2.00000
      5      -6.9953      2.00000
      6      -6.5715      2.00000
      7      -6.1815      2.00000
      8      -5.2037      2.00000
      9      -4.8676      2.00000
     10      -4.6491      2.00000
     11      -4.0866      2.00000
     12      -3.8855      2.00000
     13      -3.7636      2.00000
     14      -3.3533      2.00000
     15      -2.8893      2.00000
     16      -2.6829      2.00000
     17      -1.9219      2.00000
     18      -1.6104      2.00000
     19      -0.0674      0.00000
     20       0.4551      0.00000
     21       0.5746      0.00000
     22       0.9098      0.00000
     23       1.0652      0.00000
     24       1.3209      0.00000

 k-point    27 :       0.1579    0.2500    0.0000
  band No.  band energies     occupation 
      1     -14.6518      2.00000
[...]
     15      -3.3718      2.00000
     16      -3.1867      2.00000
     17      -1.9575      2.00000
     18      -1.8855      2.00000
     19      -0.0390      0.00000
     20      -0.0168      0.00000
     21       0.3105      0.00000
     22       0.4736      0.00000
     23       1.4216      0.00000
     24       1.4928      0.00000

 k-point    76 :       0.4737    0.3750    0.0000
  band No.  band energies     occupation 
      1     -13.7382      2.00000
      2     -13.6997      2.00000
      3     -12.3198      2.00000
      4     -12.2085      2.00000
      5      -7.3921      2.00000
      6      -7.2980      2.00000
      7      -6.2580      2.00000
      8      -6.2155      2.00000
      9      -5.2416      2.00000
     10      -5.2393      2.00000
     11      -4.5461      2.00000
     12      -4.5081      2.00000
     13      -3.4695      2.00000
     14      -3.4682      2.00000
     15      -2.7864      2.00000
     16      -2.5644      2.00000
     17      -1.9933      2.00000
     18      -1.8987      2.00000
     19       0.0483      0.00000
     20       0.0779      0.00000
     21       0.2537      0.00000
     22       0.3703      0.00000
     23       1.6845      0.00000
     24       1.7219      0.00000

 k-point    77 :       0.4737    0.5000    0.0000
  band No.  band energies     occupation 
      1     -13.7178      2.00000
      2     -13.7178      2.00000
      3     -12.2535      2.00000
      4     -12.2535      2.00000
      5      -7.4460      2.00000
      6      -7.4460      2.00000
      7      -6.2630      2.00000
      8      -6.2630      2.00000
      9      -5.2462      2.00000
     10      -5.2461      2.00000
     11      -4.5015      2.00000
     12      -4.5015      2.00000
     13      -3.4829      2.00000
     14      -3.4829      2.00000
     15      -2.2731      2.00000
     16      -2.2731      2.00000
     17      -2.0834      2.00000
     18      -2.0834      2.00000
     19       0.0997      0.00000
     20       0.0997      0.00000
     21       0.2572      0.00000
     22       0.2572      0.00000
     23       1.6544      0.00000
     24       1.6549      0.00000

 k-point    78 :       0.4737    0.6250    0.0000
  band No.  band energies     occupation 
      1     -13.7382      2.00000
      2     -13.6997      2.00000
      3     -12.3198      2.00000
      4     -12.2085      2.00000
      5      -7.3921      2.00000
      6      -7.2980      2.00000
      7      -6.2580      2.00000
      8      -6.2155      2.00000
      9      -5.2416      2.00000
     10      -5.2393      2.00000
     11      -4.5461      2.00000
     12      -4.5081      2.00000
     13      -3.4695      2.00000
     14      -3.4682      2.00000
     15      -2.7864      2.00000
     16      -2.5644      2.00000
     17      -1.9933      2.00000
     18      -1.8987      2.00000
     19       0.0483      0.00000
     20       0.0779      0.00000
     21       0.2537      0.00000
     22       0.3703      0.00000
     23       1.6860      0.00000
     24       1.7255      0.00000

 k-point    79 :       0.4737    0.7500    0.0000
  band No.  band energies     occupation 
      1     -13.7574      2.00000
      2     -13.6859      2.00000
      3     -12.3893      2.00000
      4     -12.1890      2.00000
      5      -7.1489      2.00000
      6      -6.9926      2.00000
      7      -6.2173      2.00000
      8      -6.1188      2.00000
      9      -5.2231      2.00000
     10      -5.2173      2.00000
     11      -4.6166      2.00000
     12      -4.5925      2.00000
     13      -3.5538      2.00000
     14      -3.4040      2.00000
     15      -3.3718      2.00000
     16      -3.1867      2.00000
     17      -1.9575      2.00000
     18      -1.8855      2.00000
     19      -0.0390      0.00000
     20      -0.0168      0.00000
     21       0.3105      0.00000
     22       0.4736      0.00000
     23       1.4216      0.00000
     24       1.4928      0.00000

 k-point    80 :       0.4737    0.8750    0.0000
  band No.  band energies     occupation 
      1     -13.7713      2.00000
      2     -13.6776      2.00000
      3     -12.4410      2.00000
      4     -12.1858      2.00000
      5      -6.8057      2.00000
      6      -6.6434      2.00000
      7      -6.1818      2.00000
      8      -6.0110      2.00000
      9      -5.1641      2.00000
     10      -5.1595      2.00000
     11      -4.6962      2.00000
     12      -4.6955      2.00000
     13      -4.2340      2.00000
     14      -3.8934      2.00000
     15      -3.3226      2.00000
     16      -3.2199      2.00000
     17      -2.0219      2.00000
     18      -1.9574      2.00000
     19      -0.1307      0.00000
     20      -0.1283      0.00000
     21       0.3451      0.00000
     22       0.4898      0.00000
     23       1.1934      0.00000
     24       1.2062      0.00000


--------------------------------------------------------------------------------------------------------


 soft charge-density along one line, spin component           1
         0         1         2         3         4         5         6         7         8         9
 total charge-density along one line
 
 pseudopotential strength for first ion, spin component:           1
 -9.502   0.000  -0.000   0.001  -0.000  -9.693   0.000  -0.000
  0.000  -9.507  -0.000   0.000   0.001   0.000  -9.697  -0.000
 -0.000  -0.000  -9.503   0.000   0.000  -0.000  -0.000  -9.694
  0.001   0.000   0.000  -9.507   0.000   0.001   0.000   0.000
 -0.000   0.001   0.000   0.000  -9.502  -0.000   0.001   0.000
 -9.693   0.000  -0.000   0.001  -0.000  -9.873   0.000  -0.000
  0.000  -9.697  -0.000   0.000   0.001   0.000  -9.877  -0.000
 -0.000  -0.000  -9.694   0.000   0.000  -0.000  -0.000  -9.874
  0.001   0.000   0.000  -9.697   0.000   0.001   0.000   0.000
 -0.000   0.001   0.000   0.000  -9.693  -0.000   0.001   0.000
 -0.000   0.000   0.001  -0.000   0.000  -0.000   0.000   0.001
 -0.000   0.000   0.001  -0.000   0.000  -0.000   0.000   0.001
 -0.000  -0.029  -0.000  -0.000   0.003  -0.000  -0.029  -0.000
 -0.000   0.000  -0.030  -0.000  -0.000  -0.000   0.000  -0.030
  0.003  -0.000   0.000  -0.029  -0.000   0.003  -0.000   0.000
 -0.000  -0.036  -0.000  -0.000   0.004  -0.000  -0.036  -0.000
 -0.000   0.000  -0.037  -0.000  -0.000  -0.000   0.000  -0.038
  0.004  -0.000   0.000  -0.036  -0.000   0.004  -0.000   0.000
 total augmentation occupancy for first ion, spin component:           1
  1.000   0.000   0.000   0.000   0.000   0.000   0.000   0.000   0.000   0.000   0.000   0.000   0.000   0.000   0.000   0.000
  0.000   1.000   0.000   0.000   0.000   0.000   0.000   0.000   0.000   0.000   0.000   0.000   0.000   0.000   0.000   0.000
  0.000   0.000   1.000   0.000   0.000   0.000   0.000   0.000   0.000   0.000   0.000   0.000   0.000   0.000   0.000   0.000
  0.000   0.000   0.000   1.000   0.000   0.000   0.000   0.000   0.000   0.000   0.000   0.000   0.000   0.000   0.000   0.000
  0.000   0.000   0.000   0.000   1.000   0.000   0.000   0.000   0.000   0.000   0.000   0.000   0.000   0.000   0.000   0.000
  0.000   0.000   0.000   0.000   0.000   0.000   0.000   0.000   0.000   0.000   0.000   0.000   0.000   0.000   0.000   0.000
  0.000   0.000   0.000   0.000   0.000   0.000   0.000   0.000   0.000   0.000   0.000   0.000   0.000   0.000   0.000   0.000
  0.000   0.000   0.000   0.000   0.000   0.000   0.000   0.000   0.000   0.000   0.000   0.000   0.000   0.000   0.000   0.000
  0.000   0.000   0.000   0.000   0.000   0.000   0.000   0.000   0.000   0.000   0.000   0.000   0.000   0.000   0.000   0.000
  0.000   0.000   0.000   0.000   0.000   0.000   0.000   0.000   0.000   0.000   0.000   0.000   0.000   0.000   0.000   0.000
  0.000   0.000   0.000   0.000   0.000   0.000   0.000   0.000   0.000   0.000   1.000   0.000   0.000   0.000   0.000   0.000
  0.000   0.000   0.000   0.000   0.000   0.000   0.000   0.000   0.000   0.000   0.000   0.000   0.000   0.000   0.000   0.000
  0.000   0.000   0.000   0.000   0.000   0.000   0.000   0.000   0.000   0.000   0.000   0.000   0.000   0.000   0.000   0.000
  0.000   0.000   0.000   0.000   0.000   0.000   0.000   0.000   0.000   0.000   0.000   0.000   0.000   0.000   0.000   0.000
  0.000   0.000   0.000   0.000   0.000   0.000   0.000   0.000   0.000   0.000   0.000   0.000   0.000   0.000   0.000   0.000
  0.000   0.000   0.000   0.000   0.000   0.000   0.000   0.000   0.000   0.000   0.000   0.000   0.000   0.000   0.000   0.000
  0.000   0.000   0.000   0.000   0.000   0.000   0.000   0.000   0.000   0.000   0.000   0.000   0.000   0.000   0.000   0.000
  0.000   0.000   0.000   0.000   0.000   0.000   0.000   0.000   0.000   0.000   0.000   0.000   0.000   0.000   0.000   0.000


------------------------ aborting loop because EDIFF is reached ----------------------------------------


    CHARGE:  cpu time    0.0332: real time    0.0332
    FORLOC:  cpu time    0.0003: real time    0.0003
    FORNL :  cpu time    0.0487: real time    0.0487
    STRESS:  cpu time    0.2416: real time    0.2416
    FORCOR:  cpu time    0.0142: real time    0.0142
    FORHAR:  cpu time    0.0026: real time    0.0026
    OFIELD:  cpu time    0.0000: real time    0.0000

  FORCE on cell =-STRESS in cart. coord.  units (eV):
  Direction    XX          YY          ZZ          XY          YZ          ZX
  --------------------------------------------------------------------------------------
  Alpha Z    26.10428    26.10428    26.10428
  Ewald    5254.34696  5254.34697 -6329.07507     0.00000     0.00003     0.00000
  Hartree  5462.68360  5462.68336 -5401.52497    -0.00000     0.00003    -0.00000
  E(xc)    -145.40417  -145.40414  -147.20424     0.00000    -0.00000     0.00000
  Local  -11273.15516-11273.15436 11162.16022    -0.00000    -0.00007    -0.00000
  n-local   323.84847   323.84827   338.93782     0.00000    -0.00002     0.00000
  augment   -67.61846   -67.61853   -71.25057    -0.00000     0.00000    -0.00000
  Kinetic   419.24492   419.24502   421.83958    -0.00000    -0.00001     0.00000
  Fock        0.00000     0.00000     0.00000     0.00000     0.00000     0.00000
  -------------------------------------------------------------------------------------
  Total       0.05044     0.05087    -0.01296     0.00000    -0.00004     0.00000
  in kB       0.20362     0.20537    -0.05231     0.00002    -0.00017     0.00000
  external pressure =        0.12 kB  Pullay stress =        0.00 kB


 VOLUME and BASIS-vectors are now :
 -----------------------------------------------------------------------------
  energy-cutoff  :      600.00
  volume of cell :      396.87
      direct lattice vectors                 reciprocal lattice vectors
     3.363599539  0.000000000  0.000000000     0.297300552  0.000000000  0.000000000
     0.000000000  5.825925827  0.000000000     0.000000000  0.171646538  0.000000000
     0.000000000  0.000000000 20.252588272     0.000000000  0.000000000  0.049376405

  length of vectors
     3.363599539  5.825925827 20.252588272     0.297300552  0.171646538  0.049376405


 FORCES acting on ions
    electron-ion (+dipol)            ewald-force                    non-local-force                 convergence-correction
 -----------------------------------------------------------------------------------------------
   -.580E-06 0.249E-03 -.387E+01   -.274E-05 0.635E-05 0.626E+01   0.479E-07 0.132E-04 -.234E+01   0.276E-05 -.312E-03 -.443E-01
   0.275E-05 0.280E-03 -.387E+01   0.141E-05 -.137E-04 0.626E+01   0.169E-06 0.133E-04 -.234E+01   -.505E-05 -.326E-03 -.442E-01
   0.168E-04 -.312E-03 -.466E+03   -.683E-06 0.271E-04 0.472E+03   -.997E-05 0.215E-03 -.556E+01   -.581E-05 0.678E-04 -.225E-01
   0.203E-04 -.768E-03 -.466E+03   0.215E-05 -.146E-04 0.472E+03   -.994E-05 0.330E-03 -.556E+01   -.921E-05 0.440E-03 -.224E-01
   -.212E-05 -.125E-03 0.473E+03   -.147E-05 -.333E-04 -.478E+03   0.150E-05 0.111E-03 0.459E+01   0.124E-05 0.573E-04 -.237E-01
   0.690E-05 -.152E-03 0.473E+03   0.133E-05 0.282E-04 -.478E+03   -.480E-05 0.550E-04 0.459E+01   -.220E-05 0.741E-04 -.238E-01
 -----------------------------------------------------------------------------------------------
   0.440E-04 -.829E-03 0.680E+01   -.209E-14 -.902E-15 0.114E-12   -.230E-04 0.738E-03 -.662E+01   -.183E-04 0.124E-05 -.181E+00
 
 
 POSITION                                       TOTAL-FORCE (eV/Angst)
 -----------------------------------------------------------------------------------
      1.68180      0.97099     10.26888        -0.000001     -0.000029     -0.000135
      3.36360      3.88395     10.26888        -0.000001     -0.000032     -0.000132
      1.68180      4.85494     11.74190        -0.000000      0.000013     -0.001555
      3.36360      1.94197     11.74190         0.000003      0.000003     -0.001560
      1.68180      4.85494      8.36810        -0.000001      0.000025      0.001688
      3.36360      1.94197      8.36810         0.000001      0.000020      0.001693
 -----------------------------------------------------------------------------------
    total drift:                                0.000003     -0.000089      0.001143


--------------------------------------------------------------------------------------------------------



  FREE ENERGIE OF THE ION-ELECTRON SYSTEM (eV)
  ---------------------------------------------------
  free  energy   TOTEN  =       -39.42467457 eV

  energy  without entropy=      -39.42467457  energy(sigma->0) =      -39.42467457
 


--------------------------------------------------------------------------------------------------------


    POTLOK:  cpu time    0.0146: real time    0.0146

 Berry-Phase calculation of electronic polarization

   IGPAR = 2   NPPSTR =    8


k-mesh defined as follows:

IGPAR =    2
NKPTS =   80  NSTR =   10  NPPSTR =    8
 

Average Det|M_k|=  (   0.38170   0.65208 )
 
K-point string #    1 weight=  0.05263158
  0.000000  0.000000  0.000000
  0.000000  0.125000  0.000000
  0.000000  0.250000  0.000000
  0.000000  0.375000  0.000000
  0.000000  0.500000  0.000000
  0.000000  0.625000  0.000000
  0.000000  0.750000  0.000000
  0.000000  0.875000  0.000000
                     Det|M_k|=  (   0.99972   0.02348 )
              Im ln[Det|M_k|]=     -0.00374 electrons
Im ln[Det|M_k|/<Det|M_k|>_av]=      1.01774
 
K-point string #    2 weight=  0.10526316
  0.052632  0.000000  0.000000
  0.052632  0.125000  0.000000
  0.052632  0.250000  0.000000
  0.052632  0.375000  0.000000
  0.052632  0.500000  0.000000
  0.052632  0.625000  0.000000
  0.052632  0.750000  0.000000
  0.052632  0.875000  0.000000
                     Det|M_k|=  (   0.99554   0.09432 )
              Im ln[Det|M_k|]=     -0.01503 electrons
Im ln[Det|M_k|/<Det|M_k|>_av]=      0.94675
 
K-point string #    3 weight=  0.10526316
  0.105263  0.000000  0.000000
  0.105263  0.125000  0.000000
  0.105263  0.250000  0.000000
  0.105263  0.375000  0.000000
  0.105263  0.500000  0.000000
  0.105263  0.625000  0.000000
  0.105263  0.750000  0.000000
  0.105263  0.875000  0.000000
                     Det|M_k|=  (   0.95945   0.28188 )
              Im ln[Det|M_k|]=     -0.04548 electrons
Im ln[Det|M_k|/<Det|M_k|>_av]=      0.75546
 
K-point string #    4 weight=  0.10526316
  0.157895  0.000000  0.000000
  0.157895  0.125000  0.000000
  0.157895  0.250000  0.000000
  0.157895  0.375000  0.000000
  0.157895  0.500000  0.000000
  0.157895  0.625000  0.000000
  0.157895  0.750000  0.000000
  0.157895  0.875000  0.000000
                     Det|M_k|=  (   0.85887   0.51219 )
              Im ln[Det|M_k|]=     -0.08558 electrons
Im ln[Det|M_k|/<Det|M_k|>_av]=      0.50348
 
K-point string #    5 weight=  0.10526316
  0.210526  0.000000  0.000000
  0.210526  0.125000  0.000000
  0.210526  0.250000  0.000000
  0.210526  0.375000  0.000000
  0.210526  0.500000  0.000000
  0.210526  0.625000  0.000000
  0.210526  0.750000  0.000000
  0.210526  0.875000  0.000000
                     Det|M_k|=  (   0.69972   0.71442 )
              Im ln[Det|M_k|]=     -0.12666 electrons
Im ln[Det|M_k|/<Det|M_k|>_av]=      0.24542
 
K-point string #    6 weight=  0.10526316
  0.263158  0.000000  0.000000
  0.263158  0.125000  0.000000
  0.263158  0.250000  0.000000
  0.263158  0.375000  0.000000
  0.263158  0.500000  0.000000
  0.263158  0.625000  0.000000
  0.263158  0.750000  0.000000
  0.263158  0.875000  0.000000
                     Det|M_k|=  (   0.49183   0.87069 )
              Im ln[Det|M_k|]=     -0.16816 electrons
Im ln[Det|M_k|/<Det|M_k|>_av]=      0.01539
 
K-point string #    7 weight=  0.10526316
  0.315789  0.000000  0.000000
  0.315789  0.125000  0.000000
  0.315789  0.250000  0.000000
  0.315789  0.375000  0.000000
  0.315789  0.500000  0.000000
  0.315789  0.625000  0.000000
  0.315789  0.750000  0.000000
  0.315789  0.875000  0.000000
                     Det|M_k|=  (   0.21517   0.97658 )
              Im ln[Det|M_k|]=     -0.21549 electrons
Im ln[Det|M_k|/<Det|M_k|>_av]=      0.31272
 
K-point string #    8 weight=  0.10526316
  0.368421  0.000000  0.000000
  0.368421  0.125000  0.000000
  0.368421  0.250000  0.000000
  0.368421  0.375000  0.000000
  0.368421  0.500000  0.000000
  0.368421  0.625000  0.000000
  0.368421  0.750000  0.000000
  0.368421  0.875000  0.000000
                     Det|M_k|=  (  -0.12381   0.99231 )
              Im ln[Det|M_k|]=     -0.26976 electrons
Im ln[Det|M_k|/<Det|M_k|>_av]=      0.65371
 
K-point string #    9 weight=  0.10526316
  0.421053  0.000000  0.000000
  0.421053  0.125000  0.000000
  0.421053  0.250000  0.000000
  0.421053  0.375000  0.000000
  0.421053  0.500000  0.000000
  0.421053  0.625000  0.000000
  0.421053  0.750000  0.000000
  0.421053  0.875000  0.000000
                     Det|M_k|=  (  -0.41155   0.91139 )
              Im ln[Det|M_k|]=     -0.31751 electrons
Im ln[Det|M_k|/<Det|M_k|>_av]=      0.95374
 
K-point string #   10 weight=  0.10526316
  0.473684  0.000000  0.000000
  0.473684  0.125000  0.000000
  0.473684  0.250000  0.000000
  0.473684  0.375000  0.000000
  0.473684  0.500000  0.000000
  0.473684  0.625000  0.000000
  0.473684  0.750000  0.000000
  0.473684  0.875000  0.000000
                     Det|M_k|=  (  -0.55895   0.82920 )
              Im ln[Det|M_k|]=     -0.34440 electrons
Im ln[Det|M_k|/<Det|M_k|>_av]=      1.12270
 
 
                                e<r>_ev=(    -0.00000     0.00000    -0.00743 ) e*Angst
                                e<r>_bp=(     0.00000    -1.95006     0.00000 ) e*Angst
 
 Total electronic dipole moment: p[elc]=(    -0.00000    -1.95006    -0.00743 ) e*Angst
 
            ionic dipole moment: p[ion]=(   -30.27239    -5.82590     0.00001 ) e*Angst
 


--------------------------------------------------------------------------------------------------------


     LOOP+:  cpu time   10.6661: real time   10.7581
    4ORBIT:  cpu time    0.0000: real time    0.0000

 total amount of memory used by VASP MPI-rank0    55993. kBytes
=======================================================================

   base      :      30000. kBytes
   nonl-proj :      19684. kBytes
   fftplans  :       1398. kBytes
   grid      :       2623. kBytes
   one-center:         15. kBytes
   wavefun   :       2273. kBytes
 
  
  
 General timing and accounting informations for this job:
 ========================================================
  
                  Total CPU time used (sec):       16.418
                            User time (sec):       13.998
                          System time (sec):        2.420
                         Elapsed time (sec):       16.627
  
                   Maximum memory used (kb):      156152.
                   Average memory used (kb):           0.
  
                          Minor page faults:        21914
                          Major page faults:          337
                 Voluntary context switches:         1104
