
     Program PWSCF v.6.6 starts on  8May2023 at  6:23:52 

     This program is part of the open-source Quantum ESPRESSO suite
     for quantum simulation of materials; please cite
         "P. Giannozzi et al., J. Phys.:Condens. Matter 21 395502 (2009);
         "P. Giannozzi et al., J. Phys.:Condens. Matter 29 465901 (2017);
          URL http://www.quantum-espresso.org", 
     in publications or presentations arising from this work. More details at
     http://www.quantum-espresso.org/quote

     Parallel version (MPI), running on    24 processors

     MPI processes distributed on     1 nodes
     R & G space division:  proc/nbgrp/npool/nimage =      24
     Fft bands division:     nmany     =       1
     Reading input from INCAR-relax.pw
Warning: card &CELL ignored
Warning: card     CELL_DYNAMICS  = "BFGS" ignored
Warning: card     ! CELL_DOFREE = "XY" ignored
Warning: card / ignored

     Current dimensions of program PWSCF are:
     Max number of different atomic species (ntypx) = 10
     Max number of k-points (npk) =  40000
     Max angular momentum in pseudopotentials (lmaxx) =  3

     Subspace diagonalization in iterative solution of the eigenvalue problem:
     a serial algorithm will be used

     Message from routine setup:
     using ibrav=0 with symmetry is DISCOURAGED, use correct ibrav instead
 
     Parallelization info
     --------------------
     sticks:   dense  smooth     PW     G-vecs:    dense   smooth      PW
     Min         134      71     20                26366    10267    1514
     Max         135      72     21                26379    10270    1523
     Sum        3231    1717    485               632957   246447   36381
 


     bravais-lattice index     =            0
     lattice parameter (alat)  =       8.3268  a.u.
     unit-cell volume          =    2549.9297 (a.u.)^3
     number of atoms/cell      =            4
     number of atomic types    =            2
     number of electrons       =        40.00
     number of Kohn-Sham states=           24
     kinetic-energy cutoff     =      80.0000  Ry
     charge density cutoff     =     600.0000  Ry
     convergence threshold     =      1.0E-10
     mixing beta               =       0.7000
     number of iterations used =            8  plain     mixing
     Exchange-correlation= SLA  PW   PBE  PBE
                           (   1   4   3   4   0   0   0)
     nstep                     =          100


     celldm(1)=   8.326846  celldm(2)=   0.000000  celldm(3)=   0.000000
     celldm(4)=   0.000000  celldm(5)=   0.000000  celldm(6)=   0.000000

     crystal axes: (cart. coord. in units of alat)
               a(1) = (   1.000000   0.000000   0.000000 )  
               a(2) = (   0.000000   0.973057   0.000000 )  
               a(3) = (   0.000000   0.000000   4.538876 )  

     reciprocal axes: (cart. coord. in units 2 pi/alat)
               b(1) = (  1.000000  0.000000  0.000000 )  
               b(2) = (  0.000000  1.027689  0.000000 )  
               b(3) = (  0.000000  0.000000  0.220319 )  


     PseudoPot. # 1 for Sn read from file:
     ./Sn_pbe_v1.uspp.F.UPF
     MD5 check sum: 4cf58ce39ec5d5d420df3dd08604eb00
     Pseudo is Ultrasoft + core correction, Zval = 14.0
     Generated by new atomic code, or converted to UPF format
     Using radial grid of  891 points,  6 beta functions with: 
                l(1) =   0
                l(2) =   0
                l(3) =   1
                l(4) =   1
                l(5) =   2
                l(6) =   2
     Q(r) pseudized with  6 coefficients,  rinner =    1.200   1.200   1.200
                                                       1.200   1.200

     PseudoPot. # 2 for Se read from file:
     ./Se_pbe_v1.uspp.F.UPF
     MD5 check sum: 1b3568f3a8ae88f9a2a0ad0698632c85
     Pseudo is Ultrasoft + core correction, Zval =  6.0
     Generated by new atomic code, or converted to UPF format
     Using radial grid of  877 points,  6 beta functions with: 
                l(1) =   0
                l(2) =   0
                l(3) =   1
                l(4) =   1
                l(5) =   2
                l(6) =   2
     Q(r) pseudized with  8 coefficients,  rinner =    1.300   1.300   1.300
                                                       1.300   1.300

     atomic species   valence    mass     pseudopotential
        Sn            14.00   118.71000     Sn( 1.00)
        Se             6.00    78.96000     Se( 1.00)

      2 Sym. Ops. (no inversion) found ( 1 have fractional translation)



   Cartesian axes

     site n.     atom                  positions (alat units)
         1           Sn  tau(   1) = (   0.5839905   0.7297928   0.6561230  )
         2           Sn  tau(   2) = (   0.0839891   0.2432643   0.0299094  )
         3           Se  tau(   3) = (   0.0301155   0.2432643   0.6459695  )
         4           Se  tau(   4) = (   0.5301129   0.7297928   0.0400553  )

     number of k points=    64  Marzari-Vanderbilt smearing, width (Ry)=  0.0100
                       cart. coord. in units 2pi/alat
        k(    1) = (   0.0000000   0.0000000   0.0000000), wk =   0.0088889
        k(    2) = (   0.0000000   0.0685126   0.0000000), wk =   0.0177778
        k(    3) = (   0.0000000   0.1370252   0.0000000), wk =   0.0177778
        k(    4) = (   0.0000000   0.2055378   0.0000000), wk =   0.0177778
        k(    5) = (   0.0000000   0.2740504   0.0000000), wk =   0.0177778
        k(    6) = (   0.0000000   0.3425630   0.0000000), wk =   0.0177778
        k(    7) = (   0.0000000   0.4110756   0.0000000), wk =   0.0177778
        k(    8) = (   0.0000000   0.4795882   0.0000000), wk =   0.0177778
        k(    9) = (   0.0666667   0.0000000   0.0000000), wk =   0.0177778
        k(   10) = (   0.0666667   0.0685126   0.0000000), wk =   0.0355556
        k(   11) = (   0.0666667   0.1370252   0.0000000), wk =   0.0355556
        k(   12) = (   0.0666667   0.2055378   0.0000000), wk =   0.0355556
        k(   13) = (   0.0666667   0.2740504   0.0000000), wk =   0.0355556
        k(   14) = (   0.0666667   0.3425630   0.0000000), wk =   0.0355556
        k(   15) = (   0.0666667   0.4110756   0.0000000), wk =   0.0355556
        k(   16) = (   0.0666667   0.4795882   0.0000000), wk =   0.0355556
        k(   17) = (   0.1333333   0.0000000   0.0000000), wk =   0.0177778
        k(   18) = (   0.1333333   0.0685126   0.0000000), wk =   0.0355556
        k(   19) = (   0.1333333   0.1370252   0.0000000), wk =   0.0355556
        k(   20) = (   0.1333333   0.2055378   0.0000000), wk =   0.0355556
        k(   21) = (   0.1333333   0.2740504   0.0000000), wk =   0.0355556
        k(   22) = (   0.1333333   0.3425630   0.0000000), wk =   0.0355556
        k(   23) = (   0.1333333   0.4110756   0.0000000), wk =   0.0355556
        k(   24) = (   0.1333333   0.4795882   0.0000000), wk =   0.0355556
        k(   25) = (   0.2000000   0.0000000   0.0000000), wk =   0.0177778
        k(   26) = (   0.2000000   0.0685126   0.0000000), wk =   0.0355556
        k(   27) = (   0.2000000   0.1370252   0.0000000), wk =   0.0355556
        k(   28) = (   0.2000000   0.2055378   0.0000000), wk =   0.0355556
        k(   29) = (   0.2000000   0.2740504   0.0000000), wk =   0.0355556
        k(   30) = (   0.2000000   0.3425630   0.0000000), wk =   0.0355556
        k(   31) = (   0.2000000   0.4110756   0.0000000), wk =   0.0355556
        k(   32) = (   0.2000000   0.4795882   0.0000000), wk =   0.0355556
        k(   33) = (   0.2666667   0.0000000   0.0000000), wk =   0.0177778
        k(   34) = (   0.2666667   0.0685126   0.0000000), wk =   0.0355556
        k(   35) = (   0.2666667   0.1370252   0.0000000), wk =   0.0355556
        k(   36) = (   0.2666667   0.2055378   0.0000000), wk =   0.0355556
        k(   37) = (   0.2666667   0.2740504   0.0000000), wk =   0.0355556
        k(   38) = (   0.2666667   0.3425630   0.0000000), wk =   0.0355556
        k(   39) = (   0.2666667   0.4110756   0.0000000), wk =   0.0355556
        k(   40) = (   0.2666667   0.4795882   0.0000000), wk =   0.0355556
        k(   41) = (   0.3333333   0.0000000   0.0000000), wk =   0.0177778
        k(   42) = (   0.3333333   0.0685126   0.0000000), wk =   0.0355556
        k(   43) = (   0.3333333   0.1370252   0.0000000), wk =   0.0355556
        k(   44) = (   0.3333333   0.2055378   0.0000000), wk =   0.0355556
        k(   45) = (   0.3333333   0.2740504   0.0000000), wk =   0.0355556
        k(   46) = (   0.3333333   0.3425630   0.0000000), wk =   0.0355556
        k(   47) = (   0.3333333   0.4110756   0.0000000), wk =   0.0355556
        k(   48) = (   0.3333333   0.4795882   0.0000000), wk =   0.0355556
        k(   49) = (   0.4000000   0.0000000   0.0000000), wk =   0.0177778
        k(   50) = (   0.4000000   0.0685126   0.0000000), wk =   0.0355556
        k(   51) = (   0.4000000   0.1370252   0.0000000), wk =   0.0355556
        k(   52) = (   0.4000000   0.2055378   0.0000000), wk =   0.0355556
        k(   53) = (   0.4000000   0.2740504   0.0000000), wk =   0.0355556
        k(   54) = (   0.4000000   0.3425630   0.0000000), wk =   0.0355556
        k(   55) = (   0.4000000   0.4110756   0.0000000), wk =   0.0355556
        k(   56) = (   0.4000000   0.4795882   0.0000000), wk =   0.0355556
        k(   57) = (   0.4666667   0.0000000   0.0000000), wk =   0.0177778
        k(   58) = (   0.4666667   0.0685126   0.0000000), wk =   0.0355556
        k(   59) = (   0.4666667   0.1370252   0.0000000), wk =   0.0355556
        k(   60) = (   0.4666667   0.2055378   0.0000000), wk =   0.0355556
        k(   61) = (   0.4666667   0.2740504   0.0000000), wk =   0.0355556
        k(   62) = (   0.4666667   0.3425630   0.0000000), wk =   0.0355556
        k(   63) = (   0.4666667   0.4110756   0.0000000), wk =   0.0355556
        k(   64) = (   0.4666667   0.4795882   0.0000000), wk =   0.0355556

     Dense  grid:   632957 G-vectors     FFT dimensions: (  72,  64, 300)

     Smooth grid:   246447 G-vectors     FFT dimensions: (  48,  48, 216)

     Estimated max dynamical RAM per process >     128.32 MB

     Estimated total dynamical RAM >       3.01 GB

     Initial potential from superposition of free atoms

     starting charge   37.99977, renormalised to   40.00000

     negative rho (up, down):  2.840E-03 0.000E+00
     Starting wfcs are   26 randomized atomic wfcs

     total cpu time spent up to now is        2.6 secs

     Self-consistent Calculation

     iteration #  1     ecut=    80.00 Ry     beta= 0.70
     Davidson diagonalization with overlap
     ethr =  1.00E-02,  avg # of iterations =  3.8

     negative rho (up, down):  5.667E-04 0.000E+00

     total cpu time spent up to now is        7.9 secs

     total energy              =    -413.24103854 Ry
     estimated scf accuracy    <       1.34830302 Ry

     iteration #  2     ecut=    80.00 Ry     beta= 0.70
     Davidson diagonalization with overlap
     ethr =  3.37E-03,  avg # of iterations =  2.2

     negative rho (up, down):  1.131E-04 0.000E+00

     total cpu time spent up to now is       12.9 secs

     total energy              =    -413.63684492 Ry
     estimated scf accuracy    <       0.67147292 Ry

     iteration #  3     ecut=    80.00 Ry     beta= 0.70
     Davidson diagonalization with overlap
     ethr =  1.68E-03,  avg # of iterations =  2.0

     negative rho (up, down):  2.590E-05 0.000E+00

     total cpu time spent up to now is       17.2 secs

     total energy              =    -413.79964843 Ry
     estimated scf accuracy    <       0.02377858 Ry

     iteration #  4     ecut=    80.00 Ry     beta= 0.70
     Davidson diagonalization with overlap
     ethr =  5.94E-05,  avg # of iterations =  2.9

     negative rho (up, down):  2.598E-05 0.000E+00

     total cpu time spent up to now is       21.7 secs

     total energy              =    -413.80360336 Ry
     estimated scf accuracy    <       0.00095163 Ry

     iteration #  5     ecut=    80.00 Ry     beta= 0.70
     Davidson diagonalization with overlap
     ethr =  2.38E-06,  avg # of iterations =  6.5

     negative rho (up, down):  2.772E-05 0.000E+00

     total cpu time spent up to now is       27.4 secs

     total energy              =    -413.80365361 Ry
     estimated scf accuracy    <       0.00126507 Ry

     iteration #  6     ecut=    80.00 Ry     beta= 0.70
     Davidson diagonalization with overlap
     ethr =  2.38E-06,  avg # of iterations =  5.2

     negative rho (up, down):  2.810E-05 0.000E+00

     total cpu time spent up to now is       32.6 secs

     total energy              =    -413.80383018 Ry
     estimated scf accuracy    <       0.00066713 Ry

     iteration #  7     ecut=    80.00 Ry     beta= 0.70
     Davidson diagonalization with overlap
     ethr =  1.67E-06,  avg # of iterations =  2.9

     negative rho (up, down):  2.774E-05 0.000E+00

     total cpu time spent up to now is       36.9 secs

     total energy              =    -413.80389633 Ry
     estimated scf accuracy    <       0.00003529 Ry

     iteration #  8     ecut=    80.00 Ry     beta= 0.70
     Davidson diagonalization with overlap
     ethr =  8.82E-08,  avg # of iterations =  3.5

     negative rho (up, down):  2.796E-05 0.000E+00

     total cpu time spent up to now is       41.7 secs

     total energy              =    -413.80390651 Ry
     estimated scf accuracy    <       0.00000039 Ry

     iteration #  9     ecut=    80.00 Ry     beta= 0.70
     Davidson diagonalization with overlap
     ethr =  9.76E-10,  avg # of iterations =  6.5

     negative rho (up, down):  2.813E-05 0.000E+00

     total cpu time spent up to now is       49.1 secs

     total energy              =    -413.80390778 Ry
     estimated scf accuracy    <       0.00000025 Ry

     iteration # 10     ecut=    80.00 Ry     beta= 0.70
     Davidson diagonalization with overlap
     ethr =  6.31E-10,  avg # of iterations =  2.0

     negative rho (up, down):  2.817E-05 0.000E+00

     total cpu time spent up to now is       53.3 secs

     total energy              =    -413.80390781 Ry
     estimated scf accuracy    <       0.00000002 Ry

     iteration # 11     ecut=    80.00 Ry     beta= 0.70
     Davidson diagonalization with overlap
     ethr =  4.17E-11,  avg # of iterations =  3.6

     negative rho (up, down):  2.817E-05 0.000E+00

     total cpu time spent up to now is       58.1 secs

     total energy              =    -413.80390782 Ry
     estimated scf accuracy    <          1.2E-09 Ry

     iteration # 12     ecut=    80.00 Ry     beta= 0.70
     Davidson diagonalization with overlap
     ethr =  2.98E-12,  avg # of iterations =  4.0

     negative rho (up, down):  2.817E-05 0.000E+00

     total cpu time spent up to now is       63.3 secs

     End of self-consistent calculation

          k = 0.0000 0.0000 0.0000 ( 30899 PWs)   bands (ev):

   -22.2072 -22.1997 -22.1993 -22.1927 -22.1926 -22.1682 -22.1645 -22.1618
   -22.1525 -22.1489 -14.2188 -13.1998  -7.1873  -6.1777  -4.3491  -3.9810
    -3.9150  -2.7395  -2.7339  -1.5079   0.6125   2.3855   2.8529   3.0007

          k = 0.0000 0.0685 0.0000 ( 30853 PWs)   bands (ev):

   -22.2066 -22.1996 -22.1993 -22.1939 -22.1915 -22.1683 -22.1645 -22.1616
   -22.1527 -22.1489 -14.1991 -13.1959  -7.2515  -6.2548  -4.3497  -3.9675
    -3.8492  -2.7593  -2.6014  -1.5216   0.6252   2.4640   2.8115   2.8667

          k = 0.0000 0.1370 0.0000 ( 30855 PWs)   bands (ev):

   -22.2052 -22.2005 -22.1983 -22.1953 -22.1901 -22.1687 -22.1645 -22.1608
   -22.1535 -22.1490 -14.1411 -13.1863  -7.4220  -6.4702  -4.3266  -3.8961
    -3.6956  -2.7127  -2.3490  -1.5677   0.6689   2.3128   2.5881   2.6248

          k = 0.0000 0.2055 0.0000 ( 30845 PWs)   bands (ev):

   -22.2033 -22.2017 -22.1969 -22.1968 -22.1882 -22.1693 -22.1644 -22.1597
   -22.1548 -22.1492 -14.0481 -13.1776  -7.6470  -6.7799  -4.2477  -3.7612
    -3.4903  -2.6297  -2.0208  -1.6523   0.7573   1.6682   2.1264   2.6057

          k = 0.0000 0.2741 0.0000 ( 30805 PWs)   bands (ev):

   -22.2030 -22.2020 -22.1976 -22.1953 -22.1858 -22.1702 -22.1641 -22.1582
   -22.1562 -22.1495 -13.9258 -13.1802  -7.8695  -7.1292  -4.1068  -3.5735
    -3.2649  -2.5387  -1.7629  -1.6563   0.9038   1.0228   1.6474   2.2517

          k = 0.0000 0.3426 0.0000 ( 30747 PWs)   bands (ev):

   -22.2042 -22.2027 -22.1966 -22.1940 -22.1831 -22.1715 -22.1636 -22.1577
   -22.1566 -22.1500 -13.7831 -13.2057  -8.0413  -7.4701  -3.9137  -3.3522
    -3.0726  -2.4769  -1.8401  -1.2965   0.4459   1.1095   1.2601   1.7368

          k = 0.0000 0.4111 0.0000 ( 30723 PWs)   bands (ev):

   -22.2050 -22.2039 -22.1950 -22.1933 -22.1803 -22.1731 -22.1629 -22.1593
   -22.1549 -22.1508 -13.6314 -13.2640  -8.1278  -7.7653  -3.6841  -3.1671
    -2.9629  -2.4877  -1.7717  -1.0624   0.0793   1.0421   1.1178   1.4359

          k = 0.0000 0.4796 0.0000 ( 30676 PWs)   bands (ev):

   -22.2053 -22.2049 -22.1938 -22.1932 -22.1776 -22.1752 -22.1619 -22.1606
   -22.1532 -22.1519 -13.4851 -13.3587  -8.1102  -7.9856  -3.4415  -3.2295
    -2.7851  -2.5968  -1.5181  -1.1940   0.1828   0.6082   1.0351   1.2309

          k = 0.0667 0.0000 0.0000 ( 30833 PWs)   bands (ev):

   -22.2070 -22.1996 -22.1995 -22.1931 -22.1920 -22.1683 -22.1643 -22.1618
   -22.1526 -22.1491 -14.2010 -13.1987  -7.2548  -6.2602  -4.3464  -3.9102
    -3.8850  -2.7139  -2.6316  -1.5275   0.6255   2.4324   2.7094   2.9646

          k = 0.0667 0.0685 0.0000 ( 30832 PWs)   bands (ev):

   -22.2064 -22.1998 -22.1991 -22.1941 -22.1911 -22.1684 -22.1643 -22.1615
   -22.1528 -22.1491 -14.1814 -13.1946  -7.3085  -6.3282  -4.3406  -4.0555
    -3.6713  -2.8277  -2.4240  -1.5384   0.6399   2.4459   2.5006   2.9469

          k = 0.0667 0.1370 0.0000 ( 30846 PWs)   bands (ev):

   -22.2050 -22.2007 -22.1981 -22.1956 -22.1895 -22.1687 -22.1644 -22.1607
   -22.1537 -22.1491 -14.1237 -13.1847  -7.4549  -6.5213  -4.3085  -4.1190
    -3.4109  -2.8712  -2.1262  -1.5745   0.6876   1.8915   2.5953   2.8621

          k = 0.0667 0.2055 0.0000 ( 30847 PWs)   bands (ev):

   -22.2032 -22.2019 -22.1971 -22.1966 -22.1876 -22.1693 -22.1644 -22.1595
   -22.1549 -22.1493 -14.0313 -13.1755  -7.6553  -6.8061  -4.2274  -4.0813
    -3.1488  -2.8299  -1.8194  -1.6379   0.7790   1.3012   2.3349   2.4850

          k = 0.0667 0.2741 0.0000 ( 30798 PWs)   bands (ev):

   -22.2033 -22.2023 -22.1976 -22.1951 -22.1853 -22.1702 -22.1642 -22.1580
   -22.1564 -22.1495 -13.9100 -13.1772  -7.8596  -7.1351  -4.0893  -3.9515
    -2.9263  -2.7409  -1.7064  -1.5552   0.7966   0.9209   1.7995   2.0072

          k = 0.0667 0.3426 0.0000 ( 30765 PWs)   bands (ev):

   -22.2046 -22.2032 -22.1963 -22.1938 -22.1827 -22.1715 -22.1637 -22.1579
   -22.1564 -22.1500 -13.7685 -13.2013  -8.0204  -7.4616  -3.9013  -3.7496
    -2.8130  -2.6612  -1.7121  -1.3882   0.4666   1.0383   1.3409   1.5714

          k = 0.0667 0.4111 0.0000 ( 30734 PWs)   bands (ev):

   -22.2055 -22.2045 -22.1947 -22.1930 -22.1800 -22.1731 -22.1630 -22.1594
   -22.1547 -22.1507 -13.6187 -13.2578  -8.1018  -7.7471  -3.6795  -3.5112
    -2.8534  -2.6678  -1.6002  -1.3309   0.3212   0.7066   1.3202   1.4751

          k = 0.0667 0.4796 0.0000 ( 30713 PWs)   bands (ev):

   -22.2058 -22.2054 -22.1935 -22.1929 -22.1775 -22.1751 -22.1620 -22.1607
   -22.1531 -22.1518 -13.4744 -13.3503  -8.0833  -7.9615  -3.4572  -3.3488
    -2.9207  -2.7970  -1.4400  -1.3430   0.2806   0.3950   1.3772   1.6748

          k = 0.1333 0.0000 0.0000 ( 30799 PWs)   bands (ev):

   -22.2063 -22.1999 -22.1992 -22.1940 -22.1903 -22.1684 -22.1637 -22.1616
   -22.1528 -22.1497 -14.1484 -13.1971  -7.4298  -6.4849  -4.3161  -3.7959
    -3.7211  -2.6573  -2.3512  -1.5887   0.6707   2.2350   2.5189   2.7217

          k = 0.1333 0.0685 0.0000 ( 30816 PWs)   bands (ev):

   -22.2058 -22.2003 -22.1988 -22.1948 -22.1896 -22.1685 -22.1639 -22.1612
   -22.1532 -22.1496 -14.1291 -13.1927  -7.4601  -6.5312  -4.3006  -4.0851
    -3.3911  -2.8475  -2.1115  -1.5893   0.6892   1.8834   2.5263   2.9101

          k = 0.1333 0.1370 0.0000 ( 30833 PWs)   bands (ev):

   -22.2045 -22.2013 -22.1976 -22.1964 -22.1880 -22.1688 -22.1643 -22.1602
   -22.1541 -22.1495 -14.0725 -13.1819  -7.5485  -6.6687  -4.3177  -4.2528
    -3.0417  -3.0400  -1.7908  -1.5892   0.7456   1.3508   2.3207   3.0197

          k = 0.1333 0.2055 0.0000 ( 30803 PWs)   bands (ev):

   -22.2031 -22.2027 -22.1977 -22.1961 -22.1861 -22.1694 -22.1644 -22.1589
   -22.1554 -22.1495 -13.9820 -13.1710  -7.6826  -6.8864  -4.4266  -4.1679
    -3.1183  -2.7672  -1.5820  -1.5753   0.8380   0.9246   1.7985   2.8751

          k = 0.1333 0.2741 0.0000 ( 30798 PWs)   bands (ev):

   -22.2042 -22.2031 -22.1974 -22.1945 -22.1839 -22.1703 -22.1643 -22.1574
   -22.1568 -22.1496 -13.8636 -13.1698  -7.8333  -7.1564  -4.4038  -4.0399
    -3.0960  -2.6339  -1.5887  -1.5201   0.7506   0.9008   1.3311   2.5125

          k = 0.1333 0.3426 0.0000 ( 30784 PWs)   bands (ev):

   -22.2057 -22.2045 -22.1956 -22.1931 -22.1816 -22.1715 -22.1639 -22.1583
   -22.1559 -22.1500 -13.7262 -13.1897  -7.9600  -7.4390  -4.2635  -3.8698
    -3.0386  -2.6687  -1.7633  -1.4390   0.6583   0.8191   1.3439   2.1095

          k = 0.1333 0.4111 0.0000 ( 30737 PWs)   bands (ev):

   -22.2067 -22.2059 -22.1939 -22.1923 -22.1792 -22.1731 -22.1632 -22.1597
   -22.1543 -22.1506 -13.5816 -13.2405  -8.0250  -7.6947  -4.0332  -3.6779
    -3.0617  -2.8245  -1.8785  -1.4384   0.4645   0.9030   1.5916   1.8648

          k = 0.1333 0.4796 0.0000 ( 30731 PWs)   bands (ev):

   -22.2072 -22.2069 -22.1927 -22.1921 -22.1770 -22.1749 -22.1622 -22.1610
   -22.1528 -22.1515 -13.4437 -13.3265  -8.0040  -7.8906  -3.7576  -3.5717
    -3.1517  -3.0281  -1.7868  -1.5857   0.5278   0.7513   1.8902   1.9673

          k = 0.2000 0.0000 0.0000 ( 30812 PWs)   bands (ev):

   -22.2054 -22.2006 -22.1987 -22.1954 -22.1877 -22.1686 -22.1629 -22.1612
   -22.1533 -22.1507 -14.0639 -13.2005  -7.6532  -6.7974  -4.2313  -3.6514
    -3.4640  -2.5751  -1.9745  -1.6904   0.7622   1.6390   2.2218   2.4763

          k = 0.2000 0.0685 0.0000 ( 30831 PWs)   bands (ev):

   -22.2049 -22.2010 -22.1983 -22.1961 -22.1871 -22.1687 -22.1633 -22.1606
   -22.1537 -22.1505 -14.0453 -13.1957  -7.6600  -6.8203  -4.2118  -4.0189
    -3.0961  -2.7978  -1.7637  -1.6675   0.7845   1.3064   2.2801   2.5337

          k = 0.2000 0.1370 0.0000 ( 30811 PWs)   bands (ev):

   -22.2039 -22.2022 -22.1974 -22.1971 -22.1856 -22.1690 -22.1639 -22.1595
   -22.1548 -22.1501 -13.9905 -13.1831  -7.6839  -6.8929  -4.3967  -4.1562
    -3.1123  -2.7382  -1.5840  -1.5380   0.8439   0.9318   1.7922   2.8992

          k = 0.2000 0.2055 0.0000 ( 30807 PWs)   bands (ev):

   -22.2038 -22.2034 -22.1980 -22.1954 -22.1838 -22.1696 -22.1643 -22.1581
   -22.1561 -22.1499 -13.9034 -13.1690  -7.7314  -7.0215  -4.6561  -4.0730
    -3.3248  -2.5541  -1.5985  -1.4308   0.8626   0.8692   1.3425   3.0313

          k = 0.2000 0.2741 0.0000 ( 30797 PWs)   bands (ev):

   -22.2056 -22.2046 -22.1967 -22.1937 -22.1819 -22.1705 -22.1644 -22.1574
   -22.1566 -22.1498 -13.7900 -13.1627  -7.7998  -7.2018  -4.7640  -3.9692
    -3.4049  -2.5505  -1.9213  -1.3047   0.6603   1.0936   1.3206   2.8255

          k = 0.2000 0.3426 0.0000 ( 30807 PWs)   bands (ev):

   -22.2073 -22.2065 -22.1946 -22.1922 -22.1800 -22.1716 -22.1640 -22.1588
   -22.1551 -22.1500 -13.6597 -13.1753  -7.8678  -7.4111  -4.7175  -3.8418
    -3.4161  -2.6714  -2.2762  -1.3731   0.5620   1.4337   1.5288   2.5047

          k = 0.2000 0.4111 0.0000 ( 30771 PWs)   bands (ev):

   -22.2086 -22.2080 -22.1928 -22.1913 -22.1781 -22.1730 -22.1633 -22.1600
   -22.1536 -22.1504 -13.5241 -13.2166  -7.9025  -7.6144  -4.5379  -3.7410
    -3.4662  -2.8694  -2.4191  -1.6463   0.7259   1.6207   1.8060   2.3025

          k = 0.2000 0.4796 0.0000 ( 30760 PWs)   bands (ev):

   -22.2092 -22.2090 -22.1916 -22.1910 -22.1763 -22.1746 -22.1623 -22.1612
   -22.1523 -22.1512 -13.3969 -13.2913  -7.8761  -7.7774  -4.2597  -3.9383
    -3.3423  -3.1071  -2.2785  -1.9853   1.0376   1.3921   2.1057   2.3229

          k = 0.2667 0.0000 0.0000 ( 30856 PWs)   bands (ev):

   -22.2042 -22.2013 -22.1983 -22.1970 -22.1845 -22.1691 -22.1619 -22.1607
   -22.1540 -22.1519 -13.9527 -13.2173  -7.8669  -7.1408  -4.0888  -3.4582
    -3.1973  -2.4886  -1.8081  -1.5577   0.9129   1.0265   1.7462   2.1803

          k = 0.2667 0.0685 0.0000 ( 30871 PWs)   bands (ev):

   -22.2038 -22.2018 -22.1979 -22.1975 -22.1840 -22.1692 -22.1626 -22.1598
   -22.1545 -22.1515 -13.9349 -13.2115  -7.8563  -7.1446  -4.0697  -3.8705
    -2.8528  -2.7149  -1.7328  -1.4413   0.8108   0.9345   1.7877   2.0781

          k = 0.2667 0.1370 0.0000 ( 30833 PWs)   bands (ev):

   -22.2034 -22.2031 -22.1983 -22.1966 -22.1828 -22.1694 -22.1634 -22.1586
   -22.1557 -22.1509 -13.8830 -13.1962  -7.8287  -7.1608  -4.3544  -4.0166
    -3.1066  -2.5986  -1.5058  -1.4806   0.7670   0.9309   1.3198   2.5524

          k = 0.2667 0.2055 0.0000 ( 30802 PWs)   bands (ev):

   -22.2050 -22.2043 -22.1977 -22.1948 -22.1812 -22.1700 -22.1640 -22.1572
   -22.1570 -22.1504 -13.8008 -13.1770  -7.7952  -7.2016  -4.7441  -3.9464
    -3.4344  -2.5423  -1.8586  -1.2811   0.6799   1.1127   1.3175   2.8369

          k = 0.2667 0.2741 0.0000 ( 30813 PWs)   bands (ev):

   -22.2071 -22.2064 -22.1957 -22.1930 -22.1797 -22.1707 -22.1642 -22.1582
   -22.1557 -22.1501 -13.6950 -13.1630  -7.7698  -7.2784  -4.9888  -3.8979
    -3.6166  -2.6115  -2.3448  -1.3280   0.6246   1.5326   1.6253   2.8171

          k = 0.2667 0.3426 0.0000 ( 30797 PWs)   bands (ev):

   -22.2091 -22.2086 -22.1935 -22.1913 -22.1782 -22.1718 -22.1639 -22.1593
   -22.1543 -22.1501 -13.5748 -13.1649  -7.7576  -7.3902  -5.0610  -3.8684
    -3.7279  -2.7714  -2.7069  -1.6345   0.8534   1.8245   2.1336   2.6270

          k = 0.2667 0.4111 0.0000 ( 30800 PWs)   bands (ev):

   -22.2106 -22.2103 -22.1916 -22.1903 -22.1768 -22.1730 -22.1633 -22.1604
   -22.1529 -22.1503 -13.4523 -13.1924  -7.7451  -7.5173  -4.9632  -4.0152
    -3.7438  -3.0047  -2.7666  -2.0026   1.1899   2.1576   2.2385   2.6466

          k = 0.2667 0.4796 0.0000 ( 30802 PWs)   bands (ev):

   -22.2114 -22.2113 -22.1904 -22.1899 -22.1755 -22.1743 -22.1624 -22.1614
   -22.1518 -22.1509 -13.3404 -13.2512  -7.7080  -7.6307  -4.7233  -4.3844
    -3.5434  -3.2792  -2.6026  -2.3350   1.5520   1.9136   2.4873   2.7214

          k = 0.3333 0.0000 0.0000 ( 30848 PWs)   bands (ev):

   -22.2028 -22.2019 -22.1987 -22.1982 -22.1811 -22.1698 -22.1607 -22.1599
   -22.1548 -22.1533 -13.8221 -13.2561  -8.0267  -7.4698  -3.8968  -3.2277
    -3.0088  -2.4308  -1.8603  -1.1491   0.4665   1.1277   1.3738   1.7179

          k = 0.3333 0.0685 0.0000 ( 30844 PWs)   bands (ev):

   -22.2027 -22.2025 -22.1989 -22.1977 -22.1807 -22.1699 -22.1616 -22.1588
   -22.1555 -22.1527 -13.8056 -13.2491  -8.0055  -7.4599  -3.8807  -3.6600
    -2.7604  -2.6505  -1.6919  -1.2100   0.4759   1.0984   1.3137   1.6740

          k = 0.3333 0.1370 0.0000 ( 30828 PWs)   bands (ev):

   -22.2040 -22.2034 -22.1986 -22.1963 -22.1798 -22.1701 -22.1626 -22.1575
   -22.1567 -22.1518 -13.7576 -13.2297  -7.9447  -7.4341  -4.2074  -3.8374
    -3.0858  -2.6525  -1.5882  -1.3711   0.7081   0.8458   1.3289   2.1737

          k = 0.3333 0.2055 0.0000 ( 30820 PWs)   bands (ev):

   -22.2062 -22.2055 -22.1970 -22.1944 -22.1786 -22.1705 -22.1634 -22.1580
   -22.1561 -22.1511 -13.6822 -13.2035  -7.8533  -7.4031  -4.6923  -3.7919
    -3.5050  -2.6650  -2.1449  -1.3159   0.6031   1.4823   1.5299   2.5178

          k = 0.3333 0.2741 0.0000 ( 30823 PWs)   bands (ev):

   -22.2086 -22.2081 -22.1947 -22.1924 -22.1774 -22.1712 -22.1637 -22.1590
   -22.1547 -22.1506 -13.5864 -13.1789  -7.7475  -7.3830  -5.0566  -3.8834
    -3.7371  -2.7640  -2.6462  -1.6128   0.8786   1.8354   2.1779   2.6260

          k = 0.3333 0.3426 0.0000 ( 30824 PWs)   bands (ev):

   -22.2109 -22.2106 -22.1924 -22.1907 -22.1764 -22.1720 -22.1636 -22.1599
   -22.1534 -22.1503 -13.4798 -13.1664  -7.6488  -7.3878  -5.2572  -4.0869
    -3.9031  -2.9645  -2.8884  -1.9806   1.2473   2.2279   2.5663   2.8377

          k = 0.3333 0.4111 0.0000 ( 30825 PWs)   bands (ev):

   -22.2126 -22.2125 -22.1906 -22.1895 -22.1756 -22.1730 -22.1630 -22.1607
   -22.1522 -22.1503 -13.3744 -13.1760  -7.5729  -7.4195  -5.2690  -4.4052
    -3.9749  -3.2594  -2.8559  -2.2785   1.5923   2.4142   2.6475   3.2790

          k = 0.3333 0.4796 0.0000 ( 30804 PWs)   bands (ev):

   -22.2136 -22.2135 -22.1894 -22.1890 -22.1748 -22.1740 -22.1622 -22.1614
   -22.1513 -22.1506 -13.2824 -13.2144  -7.5167  -7.4665  -5.1006  -4.7915
    -3.8382  -3.5781  -2.7063  -2.5112   1.9046   2.1833   3.0212   3.2792

          k = 0.4000 0.0000 0.0000 ( 30836 PWs)   bands (ev):

   -22.2021 -22.2015 -22.2002 -22.1985 -22.1778 -22.1710 -22.1594 -22.1588
   -22.1558 -22.1547 -13.6820 -13.3238  -8.1032  -7.7516  -3.6680  -3.0100
    -2.9784  -2.4420  -1.7246  -0.8832   0.1080   1.1670   1.1934   1.4110

          k = 0.4000 0.0685 0.0000 ( 30855 PWs)   bands (ev):

   -22.2028 -22.2021 -22.1997 -22.1979 -22.1776 -22.1710 -22.1605 -22.1577
   -22.1567 -22.1539 -13.6672 -13.3150  -8.0769  -7.7325  -3.6574  -3.4198
    -2.8474  -2.6683  -1.5083  -1.1140   0.3272   0.7742   1.4472   1.4507

          k = 0.4000 0.1370 0.0000 ( 30827 PWs)   bands (ev):

   -22.2046 -22.2040 -22.1982 -22.1964 -22.1769 -22.1711 -22.1616 -22.1579
   -22.1563 -22.1528 -13.6242 -13.2903  -7.9997  -7.6778  -3.9817  -3.6352
    -3.1389  -2.8283  -1.6643  -1.3165   0.5199   0.9378   1.5768   1.9450

          k = 0.4000 0.2055 0.0000 ( 30844 PWs)   bands (ev):

   -22.2070 -22.2066 -22.1961 -22.1944 -22.1761 -22.1713 -22.1625 -22.1590
   -22.1550 -22.1519 -13.5574 -13.2550  -7.8776  -7.5953  -4.5217  -3.7195
    -3.5393  -2.8625  -2.2565  -1.5623   0.7888   1.6979   1.8114   2.3070

          k = 0.4000 0.2741 0.0000 ( 30816 PWs)   bands (ev):

   -22.2097 -22.2094 -22.1937 -22.1923 -22.1755 -22.1718 -22.1629 -22.1599
   -22.1537 -22.1512 -13.4742 -13.2172  -7.7231  -7.4988  -4.9705  -4.1181
    -3.6546  -2.9800  -2.6983  -1.9699   1.2329   2.1906   2.2865   2.6947

          k = 0.4000 0.3426 0.0000 ( 30804 PWs)   bands (ev):

   -22.2122 -22.2121 -22.1915 -22.1904 -22.1750 -22.1724 -22.1629 -22.1605
   -22.1526 -22.1507 -13.3844 -13.1871  -7.5590  -7.4072  -5.2823  -4.4801
    -3.8913  -3.2344  -2.8475  -2.2754   1.6068   2.4207   2.6811   3.3899

          k = 0.4000 0.4111 0.0000 ( 30824 PWs)   bands (ev):

   -22.2142 -22.2141 -22.1898 -22.1890 -22.1746 -22.1731 -22.1625 -22.1610
   -22.1516 -22.1504 -13.2998 -13.1751  -7.4193  -7.3404  -5.4177  -4.8132
    -4.0921  -3.5794  -2.8050  -2.4536   1.9030   2.4119   3.1501   3.7579

          k = 0.4000 0.4796 0.0000 ( 30804 PWs)   bands (ev):

   -22.2152 -22.2152 -22.1887 -22.1884 -22.1742 -22.1738 -22.1619 -22.1614
   -22.1509 -22.1505 -13.2318 -13.1890  -7.3351  -7.3126  -5.3572  -5.1304
    -4.0875  -3.8939  -2.7013  -2.5827   2.1400   2.3135   3.5043   3.7228

          k = 0.4667 0.0000 0.0000 ( 30816 PWs)   bands (ev):

   -22.2019 -22.2013 -22.2002 -22.1992 -22.1750 -22.1727 -22.1582 -22.1576
   -22.1569 -22.1562 -13.5444 -13.4216  -8.0820  -7.9616  -3.4196  -3.1806
    -2.7389  -2.5479  -1.4109  -1.0445   0.2495   0.6862   1.1622   1.3537

          k = 0.4667 0.0685 0.0000 ( 30813 PWs)   bands (ev):

   -22.2028 -22.2024 -22.1992 -22.1985 -22.1748 -22.1726 -22.1592 -22.1579
   -22.1564 -22.1552 -13.5315 -13.4108  -8.0547  -7.9368  -3.4232  -3.2715
    -2.9382  -2.7981  -1.2864  -1.1404   0.3100   0.4524   1.4988   1.6986

          k = 0.4667 0.1370 0.0000 ( 30832 PWs)   bands (ev):

   -22.2048 -22.2045 -22.1975 -22.1968 -22.1745 -22.1725 -22.1605 -22.1592
   -22.1551 -22.1539 -13.4944 -13.3800  -7.9745  -7.8643  -3.7154  -3.5188
    -3.2182  -3.0510  -1.5867  -1.4210   0.5862   0.8023   1.8627   1.9945

          k = 0.4667 0.2055 0.0000 ( 30833 PWs)   bands (ev):

   -22.2074 -22.2072 -22.1953 -22.1947 -22.1741 -22.1725 -22.1614 -22.1602
   -22.1539 -22.1528 -13.4377 -13.3342  -7.8459  -7.7495  -4.2641  -3.9657
    -3.3368  -3.0967  -2.1392  -1.8761   1.1131   1.4712   2.1091   2.3169

          k = 0.4667 0.2741 0.0000 ( 30843 PWs)   bands (ev):

   -22.2103 -22.2102 -22.1930 -22.1925 -22.1739 -22.1727 -22.1619 -22.1609
   -22.1528 -22.1519 -13.3691 -13.2812  -7.6789  -7.6031  -4.7552  -4.4505
    -3.4675  -3.2284  -2.5524  -2.2960   1.6000   1.9586   2.5432   2.7935

          k = 0.4667 0.3426 0.0000 ( 30821 PWs)   bands (ev):

   -22.2130 -22.2129 -22.1908 -22.1904 -22.1738 -22.1730 -22.1621 -22.1613
   -22.1518 -22.1512 -13.2987 -13.2312  -7.4931  -7.4438  -5.1385  -4.8553
    -3.7560  -3.5210  -2.7036  -2.5105   1.9224   2.1974   3.0900   3.3801

          k = 0.4667 0.4111 0.0000 ( 30845 PWs)   bands (ev):

   -22.2150 -22.2149 -22.1892 -22.1889 -22.1739 -22.1734 -22.1619 -22.1614
   -22.1511 -22.1507 -13.2377 -13.1951  -7.3229  -7.3008  -5.3800  -5.1622
    -4.0503  -3.8658  -2.7039  -2.5857   2.1456   2.3184   3.5273   3.7509

          k = 0.4667 0.4796 0.0000 ( 30820 PWs)   bands (ev):

   -22.2161 -22.2161 -22.1883 -22.1882 -22.1739 -22.1737 -22.1617 -22.1615
   -22.1506 -22.1505 -13.1965 -13.1819  -7.2176  -7.2130  -5.4548  -5.3693
    -4.1896  -4.1177  -2.6650  -2.6250   2.2907   2.3496   3.7723   3.8928

     the Fermi energy is    -0.8139 ev

!    total energy              =    -413.80390782 Ry
     estimated scf accuracy    <          4.7E-11 Ry
     smearing contrib. (-TS)   =       0.00008257 Ry
     internal energy E=F+TS    =    -413.80399039 Ry

     The total energy is F=E-TS. E is the sum of the following terms:
     one-electron contribution =   -1184.07030474 Ry
     hartree contribution      =     604.20685864 Ry
     xc contribution           =    -154.40872284 Ry
     ewald contribution        =     320.46817855 Ry

     convergence has been achieved in  12 iterations

     negative rho (up, down):  2.817E-05 0.000E+00

     Forces acting on atoms (cartesian axes, Ry/au):

     atom    1 type  1   force =    -0.00000197    0.00000000   -0.00000890
     atom    2 type  1   force =    -0.00000177    0.00000000   -0.00000447
     atom    3 type  2   force =     0.00000109    0.00000000    0.00000598
     atom    4 type  2   force =     0.00000265    0.00000000    0.00000738

     Total force =     0.000014     Total SCF correction =     0.000017
     SCF correction compared to forces is large: reduce conv_thr to get better values

     BFGS Geometry Optimization

     bfgs converged in   1 scf cycles and   0 bfgs steps
     (criteria: energy <  1.0E-06 Ry, force <  3.8E-05 Ry/Bohr)

     End of BFGS Geometry Optimization

     Final energy   =    -413.8039078156 Ry
Begin final coordinates

ATOMIC_POSITIONS (crystal)
Sn            0.5839904894        0.7500000000        0.1445562583
Sn            0.0839890776        0.2500000000        0.0065896055
Se            0.0301155432        0.2500000000        0.1423192465
Se            0.5301128638        0.7500000000        0.0088249436
End final coordinates



     Writing output data file ./wfc-out/pwscf.save/
 
     init_run     :      1.97s CPU      2.34s WALL (       1 calls)
     electrons    :     54.20s CPU     61.04s WALL (       1 calls)
     forces       :      0.85s CPU      1.08s WALL (       1 calls)

     Called by init_run:
     wfcinit      :      1.18s CPU      1.30s WALL (       1 calls)
     potinit      :      0.15s CPU      0.17s WALL (       1 calls)
     hinit0       :      0.30s CPU      0.35s WALL (       1 calls)

     Called by electrons:
     c_bands      :     44.29s CPU     45.92s WALL (      12 calls)
     sum_band     :      7.65s CPU     10.42s WALL (      12 calls)
     v_of_rho     :      0.46s CPU      0.53s WALL (      13 calls)
     newd         :      1.78s CPU      3.99s WALL (      13 calls)
     mix_rho      :      0.08s CPU      0.09s WALL (      12 calls)

     Called by c_bands:
     init_us_2    :      1.03s CPU      1.15s WALL (    1664 calls)
     cegterg      :     39.38s CPU     40.72s WALL (     768 calls)

     Called by *egterg:
     cdiaghg      :      2.75s CPU      2.85s WALL (    3656 calls)
     h_psi        :     29.47s CPU     30.68s WALL (    3720 calls)
     s_psi        :      1.48s CPU      1.52s WALL (    3720 calls)
     g_psi        :      0.15s CPU      0.16s WALL (    2888 calls)

     Called by h_psi:
     h_psi:calbec :      2.39s CPU      2.49s WALL (    3720 calls)
     vloc_psi     :     24.87s CPU     25.93s WALL (    3720 calls)
     add_vuspsi   :      1.92s CPU      1.96s WALL (    3720 calls)

     General routines
     calbec       :      3.16s CPU      3.31s WALL (    4744 calls)
     fft          :      0.32s CPU      0.38s WALL (     178 calls)
     ffts         :      0.01s CPU      0.01s WALL (      25 calls)
     fftw         :     26.19s CPU     27.30s WALL (  124146 calls)
     interpolate  :      0.04s CPU      0.04s WALL (      13 calls)
 
     Parallel routines
     fft_scatt_xy :      3.64s CPU      3.81s WALL (  124349 calls)
     fft_scatt_yz :     14.70s CPU     15.33s WALL (  124349 calls)
 
     PWSCF        :     58.25s CPU   2m 7.00s WALL

 
   This run was terminated on:   6:25:59   8May2023            

=------------------------------------------------------------------------------=
   JOB DONE.
=------------------------------------------------------------------------------=
