    6    6    1    1
  0.7242000E+02  0.6390000E-09  0.3400000E-09  0.2000000E-08  0.5000000E-15
  1.000000000000000E-004
  CAR 
 unknown system                          
     36     20     22
 
  0.0000000E+00  0.6250000E-01  0.0000000E+00  0.5000000E-01
    1      -13.411031   1.000000
    2      -12.523101   1.000000
    3      -11.735166   1.000000
    4      -11.436144   1.000000
    5       -6.249892   1.000000
    6       -5.749018   1.000000
    7       -5.324230   1.000000
    8       -4.210962   1.000000
    9       -2.781231   1.000000
   10       -2.777333   1.000000
   11       -2.673636   1.000000
   12       -2.591964   1.000000
   13       -2.241616   1.000000
   14       -2.000683   1.000000
   15       -1.916323   1.000000
   16       -1.446973   1.000000
   17       -1.330504   1.000010
   18       -0.734730   0.809845
   19        0.644393  -0.000000
   20        0.797029  -0.000000
   21        2.006831  -0.000000
   22        2.034959  -0.000000
 
  0.2000000E+00  0.6250000E-01  0.0000000E+00  0.5000000E-01
    1      -13.292301   1.000000
    2      -12.441388   1.000000
    3      -11.962968   1.000000
    4      -11.571722   1.000000
    5       -5.866056   1.000000
    6       -5.614880   1.000000
    7       -5.030276   1.000000
    8       -4.306716   1.000000
    9       -3.077461   1.000000
   10       -2.958935   1.000000
   11       -2.796171   1.000000
   12       -2.403621   1.000000
   13       -2.093986   1.000000
   14       -2.025766   1.000000
   15       -1.981679   1.000000
   16       -1.508331   1.000000
   17       -1.376116   1.000002
   18       -0.901417   1.035448
   19        0.636120  -0.000000
   20        0.862858  -0.000000
   21        1.355651  -0.000000
   22        1.547821  -0.000000
 
  0.4000000E+00  0.6250000E-01  0.0000000E+00  0.5000000E-01
    1      -12.953897   1.000000
    2      -12.460375   1.000000
    3      -12.211088   1.000000
    4      -11.884461   1.000000
    5       -5.257380   1.000000
    6       -5.075399   1.000000
    7       -4.522412   1.000000
    8       -4.311935   1.000000
    9       -3.808927   1.000000
   10       -3.537743   1.000000
   11       -2.665299   1.000000
   12       -2.318706   1.000000
   13       -2.022840   1.000000
   14       -2.009998   1.000000
   15       -1.851225   1.000000
   16       -1.641520   1.000000
   17       -1.532128   1.000000
   18       -1.275348   1.000052
   19        0.484076  -0.000000
   20        0.630271  -0.000000
   21        1.219601  -0.000000
   22        1.298872  -0.000000
 
 -0.4000000E+00  0.6250000E-01  0.0000000E+00  0.5000000E-01
    1      -12.953897   1.000000
    2      -12.460375   1.000000
    3      -12.211088   1.000000
    4      -11.884461   1.000000
    5       -5.257380   1.000000
    6       -5.075399   1.000000
    7       -4.522412   1.000000
    8       -4.311934   1.000000
    9       -3.808927   1.000000
   10       -3.537743   1.000000
   11       -2.665299   1.000000
   12       -2.318705   1.000000
   13       -2.022840   1.000000
   14       -2.009998   1.000000
   15       -1.851224   1.000000
   16       -1.641521   1.000000
   17       -1.532129   1.000000
   18       -1.275348   1.000052
   19        0.484076  -0.000000
   20        0.630271  -0.000000
   21        1.219611  -0.000000
   22        1.298902  -0.000000
 
 -0.2000000E+00  0.6250000E-01  0.0000000E+00  0.5000000E-01
    1      -13.292301   1.000000
    2      -12.441388   1.000000
    3      -11.962968   1.000000
    4      -11.571722   1.000000
    5       -5.866056   1.000000
    6       -5.614880   1.000000
    7       -5.030276   1.000000
    8       -4.306715   1.000000
    9       -3.077462   1.000000
   10       -2.958935   1.000000
   11       -2.796172   1.000000
   12       -2.403621   1.000000
   13       -2.093986   1.000000
   14       -2.025766   1.000000
   15       -1.981678   1.000000
   16       -1.508332   1.000000
   17       -1.376116   1.000002
   18       -0.901417   1.035448
   19        0.636120  -0.000000
   20        0.862858  -0.000000
   21        1.355650  -0.000000
   22        1.547820  -0.000000
 
  0.0000000E+00  0.1875000E+00  0.0000000E+00  0.5000000E-01
    1      -13.068579   1.000000
    2      -12.259799   1.000000
    3      -11.526533   1.000000
    4      -11.243636   1.000000
    5       -5.836535   1.000000
    6       -5.393699   1.000000
    7       -5.235828   1.000000
    8       -4.132613   1.000000
    9       -3.312775   1.000000
   10       -3.069111   1.000000
   11       -3.045915   1.000000
   12       -2.979722   1.000000
   13       -2.598448   1.000000
   14       -2.445690   1.000000
   15       -2.433992   1.000000
   16       -1.431328   1.000000
   17       -1.349178   1.000005
   18       -0.971889   1.023760
   19        0.398692  -0.000000
   20        1.095321  -0.000000
   21        1.227939  -0.000000
   22        1.279421  -0.000000
 
  0.2000000E+00  0.1875000E+00  0.0000000E+00  0.5000000E-01
    1      -12.956289   1.000000
    2      -12.182311   1.000000
    3      -11.728196   1.000000
    4      -11.368250   1.000000
    5       -5.553290   1.000000
    6       -5.284141   1.000000
    7       -4.957019   1.000000
    8       -4.136071   1.000000
    9       -3.404002   1.000000
   10       -3.376615   1.000000
   11       -3.247443   1.000000
   12       -2.981852   1.000000
   13       -2.446809   1.000000
   14       -2.343453   1.000000
   15       -2.250962   1.000000
   16       -1.648481   1.000000
   17       -1.405828   1.000001
   18       -1.063573   1.006930
   19        0.532709  -0.000000
   20        0.793036  -0.000000
   21        1.030854  -0.000000
   22        1.331041  -0.000000
 
  0.4000000E+00  0.1875000E+00  0.0000000E+00  0.5000000E-01
    1      -12.637950   1.000000
    2      -12.179612   1.000000
    3      -11.964689   1.000000
    4      -11.658393   1.000000
    5       -5.015187   1.000000
    6       -5.009328   1.000000
    7       -4.250592   1.000000
    8       -4.235584   1.000000
    9       -3.923477   1.000000
   10       -3.576737   1.000000
   11       -3.433782   1.000000
   12       -3.063259   1.000000
   13       -2.726736   1.000000
   14       -2.267712   1.000000
   15       -1.898438   1.000000
   16       -1.674428   1.000000
   17       -1.406756   1.000001
   18       -1.208805   1.000319
   19        0.430389  -0.000000
   20        0.613743  -0.000000
   21        0.759310  -0.000000
   22        0.977601  -0.000000
 
 -0.4000000E+00  0.1875000E+00  0.0000000E+00  0.5000000E-01
    1      -12.637950   1.000000
    2      -12.179612   1.000000
    3      -11.964689   1.000000
    4      -11.658393   1.000000
    5       -5.015188   1.000000
    6       -5.009327   1.000000
    7       -4.250591   1.000000
    8       -4.235584   1.000000
    9       -3.923478   1.000000
   10       -3.576738   1.000000
   11       -3.433784   1.000000
   12       -3.063258   1.000000
   13       -2.726737   1.000000
   14       -2.267711   1.000000
   15       -1.898437   1.000000
   16       -1.674429   1.000000
   17       -1.406756   1.000001
   18       -1.208806   1.000319
   19        0.430389  -0.000000
   20        0.613743  -0.000000
   21        0.759310  -0.000000
   22        0.977598  -0.000000
 
 -0.2000000E+00  0.1875000E+00  0.0000000E+00  0.5000000E-01
    1      -12.956289   1.000000
    2      -12.182311   1.000000
    3      -11.728196   1.000000
    4      -11.368250   1.000000
    5       -5.553289   1.000000
    6       -5.284141   1.000000
    7       -4.957019   1.000000
    8       -4.136071   1.000000
    9       -3.404002   1.000000
   10       -3.376615   1.000000
   11       -3.247443   1.000000
   12       -2.981853   1.000000
   13       -2.446808   1.000000
   14       -2.343453   1.000000
   15       -2.250961   1.000000
   16       -1.648483   1.000000
   17       -1.405828   1.000001
   18       -1.063573   1.006930
   19        0.532709  -0.000000
   20        0.793036  -0.000000
   21        1.030844  -0.000000
   22        1.316090  -0.000000
 
  0.0000000E+00  0.3125000E+00  0.0000000E+00  0.5000000E-01
    1      -12.444382   1.000000
    2      -11.785613   1.000000
    3      -11.245686   1.000000
    4      -10.979685   1.000000
    5       -5.300763   1.000000
    6       -5.193395   1.000000
    7       -4.935431   1.000000
    8       -4.612059   1.000000
    9       -4.081022   1.000000
   10       -3.768543   1.000000
   11       -3.765184   1.000000
   12       -3.761284   1.000000
   13       -3.258562   1.000000
   14       -2.581884   1.000000
   15       -2.113370   1.000000
   16       -1.577620   1.000000
   17       -1.535357   1.000000
   18       -0.823177   0.999905
   19        0.209156  -0.000000
   20        0.444300  -0.000000
   21        0.873950  -0.000000
   22        1.030046  -0.000000
 
  0.2000000E+00  0.3125000E+00  0.0000000E+00  0.5000000E-01
    1      -12.349303   1.000000
    2      -11.720844   1.000000
    3      -11.385338   1.000000
    4      -11.072554   1.000000
    5       -5.404421   1.000000
    6       -5.151274   1.000000
    7       -4.981551   1.000000
    8       -4.194075   1.000000
    9       -4.082107   1.000000
   10       -4.043985   1.000000
   11       -3.754606   1.000000
   12       -3.749416   1.000000
   13       -3.031225   1.000000
   14       -2.440455   1.000000
   15       -1.912599   1.000000
   16       -1.908123   1.000000
   17       -1.660863   1.000000
   18       -0.942888   1.030223
   19        0.375400  -0.000000
   20        0.508687  -0.000000
   21        1.100011  -0.000000
   22        1.165761  -0.000000
 
  0.4000000E+00  0.3125000E+00  0.0000000E+00  0.5000000E-01
    1      -12.084787   1.000000
    2      -11.720056   1.000000
    3      -11.541466   1.000000
    4      -11.296047   1.000000
    5       -5.415855   1.000000
    6       -5.190894   1.000000
    7       -4.802958   1.000000
    8       -4.426676   1.000000
    9       -4.226323   1.000000
   10       -4.073266   1.000000
   11       -3.575725   1.000000
   12       -3.148124   1.000000
   13       -2.926296   1.000000
   14       -2.227258   1.000000
   15       -2.188295   1.000000
   16       -2.127632   1.000000
   17       -1.396015   1.000001
   18       -1.105644   1.003238
   19        0.508171  -0.000000
   20        0.584346  -0.000000
   21        0.703420  -0.000000
   22        0.707559  -0.000000
 
 -0.4000000E+00  0.3125000E+00  0.0000000E+00  0.5000000E-01
    1      -12.084787   1.000000
    2      -11.720057   1.000000
    3      -11.541466   1.000000
    4      -11.296047   1.000000
    5       -5.415853   1.000000
    6       -5.190896   1.000000
    7       -4.802957   1.000000
    8       -4.426676   1.000000
    9       -4.226323   1.000000
   10       -4.073266   1.000000
   11       -3.575726   1.000000
   12       -3.148123   1.000000
   13       -2.926298   1.000000
   14       -2.227257   1.000000
   15       -2.188296   1.000000
   16       -2.127631   1.000000
   17       -1.396015   1.000001
   18       -1.105644   1.003238
   19        0.508170  -0.000000
   20        0.584346  -0.000000
   21        0.703419  -0.000000
   22        0.707560  -0.000000
 
 -0.2000000E+00  0.3125000E+00  0.0000000E+00  0.5000000E-01
    1      -12.349303   1.000000
    2      -11.720844   1.000000
    3      -11.385338   1.000000
    4      -11.072554   1.000000
    5       -5.404420   1.000000
    6       -5.151274   1.000000
    7       -4.981552   1.000000
    8       -4.194075   1.000000
    9       -4.082108   1.000000
   10       -4.043985   1.000000
   11       -3.754607   1.000000
   12       -3.749417   1.000000
   13       -3.031224   1.000000
   14       -2.440455   1.000000
   15       -1.912598   1.000000
   16       -1.908124   1.000000
   17       -1.660863   1.000000
   18       -0.942888   1.030223
   19        0.375400  -0.000000
   20        0.508687  -0.000000
   21        1.099802  -0.000000
   22        1.167890  -0.000000
 
  0.0000000E+00  0.4375000E+00  0.0000000E+00  0.5000000E-01
    1      -11.709487   1.000000
    2      -11.245480   1.000000
    3      -11.221047   1.000000
    4      -10.914709   1.000000
    5       -5.642568   1.000000
    6       -5.425439   1.000000
    7       -5.382233   1.000000
    8       -4.829684   1.000000
    9       -4.011299   1.000000
   10       -3.980700   1.000000
   11       -3.806362   1.000000
   12       -3.711431   1.000000
   13       -3.651925   1.000000
   14       -2.790522   1.000000
   15       -2.340682   1.000000
   16       -1.889564   1.000000
   17       -1.464998   1.000000
   18       -1.131256   1.001931
   19        0.427247  -0.000000
   20        0.535273  -0.000000
   21        1.082264  -0.000000
   22        1.090236  -0.000000
 
  0.2000000E+00  0.4375000E+00  0.0000000E+00  0.5000000E-01
    1      -11.656862   1.000000
    2      -11.258329   1.000000
    3      -11.213470   1.000000
    4      -10.945437   1.000000
    5       -5.886133   1.000000
    6       -5.652196   1.000000
    7       -5.409376   1.000000
    8       -4.996077   1.000000
    9       -4.080958   1.000000
   10       -4.027388   1.000000
   11       -3.690082   1.000000
   12       -3.486300   1.000000
   13       -3.152338   1.000000
   14       -2.344086   1.000000
   15       -2.343726   1.000000
   16       -2.073260   1.000000
   17       -1.431666   1.000000
   18       -1.098714   1.003699
   19        0.445179  -0.000000
   20        0.536020  -0.000000
   21        1.150296  -0.000000
   22        1.387694  -0.000000
 
  0.4000000E+00  0.4375000E+00  0.0000000E+00  0.5000000E-01
    1      -11.522567   1.000000
    2      -11.368219   1.000000
    3      -11.129780   1.000000
    4      -11.027136   1.000000
    5       -6.110885   1.000000
    6       -6.003654   1.000000
    7       -5.400311   1.000000
    8       -5.254785   1.000000
    9       -4.128011   1.000000
   10       -4.098421   1.000000
   11       -3.461261   1.000000
   12       -3.332833   1.000000
   13       -2.343487   1.000000
   14       -2.301125   1.000000
   15       -2.163600   1.000000
   16       -1.629785   1.000000
   17       -1.461326   1.000000
   18       -1.121629   1.002356
   19        0.431865  -0.000000
   20        0.456873  -0.000000
   21        1.002870  -0.000000
   22        1.054642  -0.000000
 
 -0.4000000E+00  0.4375000E+00  0.0000000E+00  0.5000000E-01
    1      -11.522567   1.000000
    2      -11.368219   1.000000
    3      -11.129779   1.000000
    4      -11.027136   1.000000
    5       -6.110883   1.000000
    6       -6.003656   1.000000
    7       -5.400310   1.000000
    8       -5.254786   1.000000
    9       -4.128011   1.000000
   10       -4.098421   1.000000
   11       -3.461261   1.000000
   12       -3.332832   1.000000
   13       -2.343487   1.000000
   14       -2.301126   1.000000
   15       -2.163600   1.000000
   16       -1.629785   1.000000
   17       -1.461325   1.000000
   18       -1.121630   1.002356
   19        0.431865  -0.000000
   20        0.456873  -0.000000
   21        1.002870  -0.000000
   22        1.054642  -0.000000
 
 -0.2000000E+00  0.4375000E+00  0.0000000E+00  0.5000000E-01
    1      -11.656862   1.000000
    2      -11.258330   1.000000
    3      -11.213470   1.000000
    4      -10.945437   1.000000
    5       -5.886132   1.000000
    6       -5.652198   1.000000
    7       -5.409375   1.000000
    8       -4.996077   1.000000
    9       -4.080957   1.000000
   10       -4.027388   1.000000
   11       -3.690082   1.000000
   12       -3.486300   1.000000
   13       -3.152339   1.000000
   14       -2.344086   1.000000
   15       -2.343725   1.000000
   16       -2.073260   1.000000
   17       -1.431666   1.000000
   18       -1.098714   1.003699
   19        0.445179  -0.000000
   20        0.536020  -0.000000
   21        1.150556  -0.000000
   22        1.380517  -0.000000
