
     Program PWSCF v.6.6 starts on 12Dec2022 at 17:27:51 

     This program is part of the open-source Quantum ESPRESSO suite
     for quantum simulation of materials; please cite
         "P. Giannozzi et al., J. Phys.:Condens. Matter 21 395502 (2009);
         "P. Giannozzi et al., J. Phys.:Condens. Matter 29 465901 (2017);
          URL http://www.quantum-espresso.org", 
     in publications or presentations arising from this work. More details at
     http://www.quantum-espresso.org/quote

     Parallel version (MPI), running on    24 processors

     MPI processes distributed on     1 nodes
     R & G space division:  proc/nbgrp/npool/nimage =      24
     Fft bands division:     nmany     =       1
     Reading input from INCAR-scf.pw
Warning: card &CELL ignored
Warning: card     CELL_DYNAMICS  = "BFGS" ignored
Warning: card     ! CELL_DOFREE = "XY" ignored
Warning: card / ignored

     Current dimensions of program PWSCF are:
     Max number of different atomic species (ntypx) = 10
     Max number of k-points (npk) =  40000
     Max angular momentum in pseudopotentials (lmaxx) =  3

     Subspace diagonalization in iterative solution of the eigenvalue problem:
     a serial algorithm will be used

     Found symmetry operation: I + ( -0.5000 -0.5000  0.0000)
     This is a supercell, fractional translations are disabled
     Message from routine setup:
     using ibrav=0 with symmetry is DISCOURAGED, use correct ibrav instead
 
     Parallelization info
     --------------------
     sticks:   dense  smooth     PW     G-vecs:    dense   smooth      PW
     Min          64      30      9                11540     3824     631
     Max          65      31     10                11559     3849     652
     Sum        1543     743    223               277219    92257   15265
 


     bravais-lattice index     =            0
     lattice parameter (alat)  =       8.2226  a.u.
     unit-cell volume          =    1467.9735 (a.u.)^3
     number of atoms/cell      =            4
     number of atomic types    =            2
     number of electrons       =        16.00
     number of Kohn-Sham states=            8
     kinetic-energy cutoff     =      60.0000  Ry
     charge density cutoff     =     500.0000  Ry
     convergence threshold     =      1.0E-10
     mixing beta               =       0.7000
     number of iterations used =            8  plain     mixing
     Exchange-correlation= PBE
                           (   1   4   3   4   0   0   0)
     nstep                     =          100


     celldm(1)=   8.222604  celldm(2)=   0.000000  celldm(3)=   0.000000
     celldm(4)=   0.000000  celldm(5)=   0.000000  celldm(6)=   0.000000

     crystal axes: (cart. coord. in units of alat)
               a(1) = (   1.000000   0.000000   0.000000 )  
               a(2) = (   0.000000   0.574474   0.000000 )  
               a(3) = (   0.000000   0.000000   4.596418 )  

     reciprocal axes: (cart. coord. in units 2 pi/alat)
               b(1) = (  1.000000  0.000000  0.000000 )  
               b(2) = (  0.000000  1.740722  0.000000 )  
               b(3) = (  0.000000  0.000000  0.217561 )  


     PseudoPot. # 1 for B  read from file:
     ./B_pbe_v1.01.uspp.F.UPF
     MD5 check sum: d081ebb89d0c768e112975f650467a00
     Pseudo is Ultrasoft + core correction, Zval =  3.0
     Generated by new atomic code, or converted to UPF format
     Using radial grid of  781 points,  4 beta functions with: 
                l(1) =   0
                l(2) =   0
                l(3) =   1
                l(4) =   1
     Q(r) pseudized with  8 coefficients,  rinner =    1.100   1.100   1.100


     PseudoPot. # 2 for N  read from file:
     ./N.oncvpsp.upf
     MD5 check sum: 563d65bfb082928f0c9eb97172f6c357
     Pseudo is Norm-conserving + core correction, Zval =  5.0
     Generated using ONCVPSP code by D. R. Hamann
     Using radial grid of 1058 points,  4 beta functions with: 
                l(1) =   0
                l(2) =   0
                l(3) =   1
                l(4) =   1

     atomic species   valence    mass     pseudopotential
        B              3.00    10.81100     B ( 1.00)
        N              5.00    14.00674     N ( 1.00)

      4 Sym. Ops. (no inversion) found



   Cartesian axes

     site n.     atom                  positions (alat units)
         1           N   tau(   1) = (   0.0000144   0.0000000   2.2982088  )
         2           B   tau(   2) = (   0.3333441   0.0000000   2.2982088  )
         3           N   tau(   3) = (   0.5000146   0.2872371   2.2982088  )
         4           B   tau(   4) = (   0.8333439   0.2872371   2.2982088  )

     number of k points=    64
                       cart. coord. in units 2pi/alat
        k(    1) = (   0.0000000   0.0000000   0.0000000), wk =   0.0102041
        k(    2) = (   0.0000000   0.1243373   0.0000000), wk =   0.0204082
        k(    3) = (   0.0000000   0.2486746   0.0000000), wk =   0.0204082
        k(    4) = (   0.0000000   0.3730119   0.0000000), wk =   0.0204082
        k(    5) = (   0.0000000   0.4973491   0.0000000), wk =   0.0204082
        k(    6) = (   0.0000000   0.6216864   0.0000000), wk =   0.0204082
        k(    7) = (   0.0000000   0.7460237   0.0000000), wk =   0.0204082
        k(    8) = (   0.0000000  -0.8703610   0.0000000), wk =   0.0102041
        k(    9) = (   0.0714286   0.0000000   0.0000000), wk =   0.0204082
        k(   10) = (   0.0714286   0.1243373   0.0000000), wk =   0.0408163
        k(   11) = (   0.0714286   0.2486746   0.0000000), wk =   0.0408163
        k(   12) = (   0.0714286   0.3730119   0.0000000), wk =   0.0408163
        k(   13) = (   0.0714286   0.4973491   0.0000000), wk =   0.0408163
        k(   14) = (   0.0714286   0.6216864   0.0000000), wk =   0.0408163
        k(   15) = (   0.0714286   0.7460237   0.0000000), wk =   0.0408163
        k(   16) = (   0.0714286  -0.8703610   0.0000000), wk =   0.0204082
        k(   17) = (   0.1428571   0.0000000   0.0000000), wk =   0.0204082
        k(   18) = (   0.1428571   0.1243373   0.0000000), wk =   0.0408163
        k(   19) = (   0.1428571   0.2486746   0.0000000), wk =   0.0408163
        k(   20) = (   0.1428571   0.3730119   0.0000000), wk =   0.0408163
        k(   21) = (   0.1428571   0.4973491   0.0000000), wk =   0.0408163
        k(   22) = (   0.1428571   0.6216864   0.0000000), wk =   0.0408163
        k(   23) = (   0.1428571   0.7460237   0.0000000), wk =   0.0408163
        k(   24) = (   0.1428571  -0.8703610   0.0000000), wk =   0.0204082
        k(   25) = (   0.2142857   0.0000000   0.0000000), wk =   0.0204082
        k(   26) = (   0.2142857   0.1243373   0.0000000), wk =   0.0408163
        k(   27) = (   0.2142857   0.2486746   0.0000000), wk =   0.0408163
        k(   28) = (   0.2142857   0.3730119   0.0000000), wk =   0.0408163
        k(   29) = (   0.2142857   0.4973491   0.0000000), wk =   0.0408163
        k(   30) = (   0.2142857   0.6216864   0.0000000), wk =   0.0408163
        k(   31) = (   0.2142857   0.7460237   0.0000000), wk =   0.0408163
        k(   32) = (   0.2142857  -0.8703610   0.0000000), wk =   0.0204082
        k(   33) = (   0.2857143   0.0000000   0.0000000), wk =   0.0204082
        k(   34) = (   0.2857143   0.1243373   0.0000000), wk =   0.0408163
        k(   35) = (   0.2857143   0.2486746   0.0000000), wk =   0.0408163
        k(   36) = (   0.2857143   0.3730119   0.0000000), wk =   0.0408163
        k(   37) = (   0.2857143   0.4973491   0.0000000), wk =   0.0408163
        k(   38) = (   0.2857143   0.6216864   0.0000000), wk =   0.0408163
        k(   39) = (   0.2857143   0.7460237   0.0000000), wk =   0.0408163
        k(   40) = (   0.2857143  -0.8703610   0.0000000), wk =   0.0204082
        k(   41) = (   0.3571429   0.0000000   0.0000000), wk =   0.0204082
        k(   42) = (   0.3571429   0.1243373   0.0000000), wk =   0.0408163
        k(   43) = (   0.3571429   0.2486746   0.0000000), wk =   0.0408163
        k(   44) = (   0.3571429   0.3730119   0.0000000), wk =   0.0408163
        k(   45) = (   0.3571429   0.4973491   0.0000000), wk =   0.0408163
        k(   46) = (   0.3571429   0.6216864   0.0000000), wk =   0.0408163
        k(   47) = (   0.3571429   0.7460237   0.0000000), wk =   0.0408163
        k(   48) = (   0.3571429  -0.8703610   0.0000000), wk =   0.0204082
        k(   49) = (   0.4285714   0.0000000   0.0000000), wk =   0.0204082
        k(   50) = (   0.4285714   0.1243373   0.0000000), wk =   0.0408163
        k(   51) = (   0.4285714   0.2486746   0.0000000), wk =   0.0408163
        k(   52) = (   0.4285714   0.3730119   0.0000000), wk =   0.0408163
        k(   53) = (   0.4285714   0.4973491   0.0000000), wk =   0.0408163
        k(   54) = (   0.4285714   0.6216864   0.0000000), wk =   0.0408163
        k(   55) = (   0.4285714   0.7460237   0.0000000), wk =   0.0408163
        k(   56) = (   0.4285714  -0.8703610   0.0000000), wk =   0.0204082
        k(   57) = (  -0.5000000   0.0000000   0.0000000), wk =   0.0102041
        k(   58) = (  -0.5000000   0.1243373   0.0000000), wk =   0.0204082
        k(   59) = (  -0.5000000   0.2486746   0.0000000), wk =   0.0204082
        k(   60) = (  -0.5000000   0.3730119   0.0000000), wk =   0.0204082
        k(   61) = (  -0.5000000   0.4973491   0.0000000), wk =   0.0204082
        k(   62) = (  -0.5000000   0.6216864   0.0000000), wk =   0.0204082
        k(   63) = (  -0.5000000   0.7460237   0.0000000), wk =   0.0204082
        k(   64) = (  -0.5000000  -0.8703610   0.0000000), wk =   0.0102041

     Dense  grid:   277219 G-vectors     FFT dimensions: (  60,  36, 270)

     Smooth grid:    92257 G-vectors     FFT dimensions: (  45,  24, 192)

     Estimated max dynamical RAM per process >      20.32 MB

     Estimated total dynamical RAM >     487.67 MB

     Check: negative core charge=   -0.000004

     Initial potential from superposition of free atoms

     starting charge   15.99942, renormalised to   16.00000

     negative rho (up, down):  1.534E-05 0.000E+00
     Starting wfcs are   16 randomized atomic wfcs

     total cpu time spent up to now is        1.1 secs

     Self-consistent Calculation

     iteration #  1     ecut=    60.00 Ry     beta= 0.70
     Davidson diagonalization with overlap
     ethr =  1.00E-02,  avg # of iterations =  2.0

     negative rho (up, down):  5.181E-07 0.000E+00

     total cpu time spent up to now is        1.8 secs

     total energy              =     -54.59399491 Ry
     estimated scf accuracy    <       0.79637975 Ry

     iteration #  2     ecut=    60.00 Ry     beta= 0.70
     Davidson diagonalization with overlap
     ethr =  4.98E-03,  avg # of iterations =  2.9

     negative rho (up, down):  7.396E-06 0.000E+00

     total cpu time spent up to now is        2.7 secs

     total energy              =     -54.84548964 Ry
     estimated scf accuracy    <       0.22236588 Ry

     iteration #  3     ecut=    60.00 Ry     beta= 0.70
     Davidson diagonalization with overlap
     ethr =  1.39E-03,  avg # of iterations =  2.0

     negative rho (up, down):  2.028E-05 0.000E+00

     total cpu time spent up to now is        3.4 secs

     total energy              =     -54.84920331 Ry
     estimated scf accuracy    <       0.02603579 Ry

     iteration #  4     ecut=    60.00 Ry     beta= 0.70
     Davidson diagonalization with overlap
     ethr =  1.63E-04,  avg # of iterations =  6.4

     negative rho (up, down):  1.031E-05 0.000E+00

     total cpu time spent up to now is        4.3 secs

     total energy              =     -54.86669081 Ry
     estimated scf accuracy    <       0.08045806 Ry

     iteration #  5     ecut=    60.00 Ry     beta= 0.70
     Davidson diagonalization with overlap
     ethr =  1.63E-04,  avg # of iterations =  2.0

     negative rho (up, down):  1.049E-05 0.000E+00

     total cpu time spent up to now is        5.0 secs

     total energy              =     -54.87044600 Ry
     estimated scf accuracy    <       0.01871118 Ry

     iteration #  6     ecut=    60.00 Ry     beta= 0.70
     Davidson diagonalization with overlap
     ethr =  1.17E-04,  avg # of iterations =  1.0

     negative rho (up, down):  9.825E-06 0.000E+00

     total cpu time spent up to now is        5.5 secs

     total energy              =     -54.86510573 Ry
     estimated scf accuracy    <       0.01491570 Ry

     iteration #  7     ecut=    60.00 Ry     beta= 0.70
     Davidson diagonalization with overlap
     ethr =  9.32E-05,  avg # of iterations =  3.1

     negative rho (up, down):  9.297E-06 0.000E+00

     total cpu time spent up to now is        6.2 secs

     total energy              =     -54.86806716 Ry
     estimated scf accuracy    <       0.00074738 Ry

     iteration #  8     ecut=    60.00 Ry     beta= 0.70
     Davidson diagonalization with overlap
     ethr =  4.67E-06,  avg # of iterations =  4.6

     negative rho (up, down):  9.388E-06 0.000E+00

     total cpu time spent up to now is        7.0 secs

     total energy              =     -54.86870902 Ry
     estimated scf accuracy    <       0.00001100 Ry

     iteration #  9     ecut=    60.00 Ry     beta= 0.70
     Davidson diagonalization with overlap
     ethr =  6.88E-08,  avg # of iterations =  7.4

     negative rho (up, down):  9.258E-06 0.000E+00

     total cpu time spent up to now is        8.2 secs

     total energy              =     -54.86864232 Ry
     estimated scf accuracy    <       0.00029857 Ry

     iteration # 10     ecut=    60.00 Ry     beta= 0.70
     Davidson diagonalization with overlap
     ethr =  6.88E-08,  avg # of iterations =  6.3

     negative rho (up, down):  9.282E-06 0.000E+00

     total cpu time spent up to now is        9.2 secs

     total energy              =     -54.86871305 Ry
     estimated scf accuracy    <       0.00000430 Ry

     iteration # 11     ecut=    60.00 Ry     beta= 0.70
     Davidson diagonalization with overlap
     ethr =  2.69E-08,  avg # of iterations =  3.9

     negative rho (up, down):  9.274E-06 0.000E+00

     total cpu time spent up to now is        9.9 secs

     total energy              =     -54.86871947 Ry
     estimated scf accuracy    <       0.00001817 Ry

     iteration # 12     ecut=    60.00 Ry     beta= 0.70
     Davidson diagonalization with overlap
     ethr =  2.69E-08,  avg # of iterations =  3.0

     negative rho (up, down):  9.279E-06 0.000E+00

     total cpu time spent up to now is       10.5 secs

     total energy              =     -54.86871170 Ry
     estimated scf accuracy    <       0.00003416 Ry

     iteration # 13     ecut=    60.00 Ry     beta= 0.70
     Davidson diagonalization with overlap
     ethr =  2.69E-08,  avg # of iterations =  2.0

     negative rho (up, down):  9.282E-06 0.000E+00

     total cpu time spent up to now is       11.2 secs

     total energy              =     -54.86870932 Ry
     estimated scf accuracy    <       0.00001595 Ry

     iteration # 14     ecut=    60.00 Ry     beta= 0.70
     Davidson diagonalization with overlap
     ethr =  2.69E-08,  avg # of iterations =  2.0

     negative rho (up, down):  9.280E-06 0.000E+00

     total cpu time spent up to now is       11.8 secs

     total energy              =     -54.86870903 Ry
     estimated scf accuracy    <       0.00000730 Ry

     iteration # 15     ecut=    60.00 Ry     beta= 0.70
     Davidson diagonalization with overlap
     ethr =  2.69E-08,  avg # of iterations =  1.5

     negative rho (up, down):  9.278E-06 0.000E+00

     total cpu time spent up to now is       12.4 secs

     total energy              =     -54.86870799 Ry
     estimated scf accuracy    <       0.00000389 Ry

     iteration # 16     ecut=    60.00 Ry     beta= 0.70
     Davidson diagonalization with overlap
     ethr =  2.43E-08,  avg # of iterations =  2.2

     negative rho (up, down):  9.279E-06 0.000E+00

     total cpu time spent up to now is       13.0 secs

     total energy              =     -54.86870791 Ry
     estimated scf accuracy    <       0.00000089 Ry

     iteration # 17     ecut=    60.00 Ry     beta= 0.70
     Davidson diagonalization with overlap
     ethr =  5.57E-09,  avg # of iterations =  5.2

     negative rho (up, down):  9.271E-06 0.000E+00

     total cpu time spent up to now is       13.8 secs

     total energy              =     -54.86870859 Ry
     estimated scf accuracy    <       0.00000042 Ry

     iteration # 18     ecut=    60.00 Ry     beta= 0.70
     Davidson diagonalization with overlap
     ethr =  2.63E-09,  avg # of iterations =  1.9

     negative rho (up, down):  9.270E-06 0.000E+00

     total cpu time spent up to now is       14.3 secs

     total energy              =     -54.86870856 Ry
     estimated scf accuracy    <       0.00000010 Ry

     iteration # 19     ecut=    60.00 Ry     beta= 0.70
     Davidson diagonalization with overlap
     ethr =  6.45E-10,  avg # of iterations =  4.1

     negative rho (up, down):  9.271E-06 0.000E+00

     total cpu time spent up to now is       15.1 secs

     total energy              =     -54.86870861 Ry
     estimated scf accuracy    <          7.4E-09 Ry

     iteration # 20     ecut=    60.00 Ry     beta= 0.70
     Davidson diagonalization with overlap
     ethr =  4.65E-11,  avg # of iterations =  4.7

     negative rho (up, down):  9.271E-06 0.000E+00

     total cpu time spent up to now is       15.9 secs

     total energy              =     -54.86870862 Ry
     estimated scf accuracy    <       0.00000002 Ry

     iteration # 21     ecut=    60.00 Ry     beta= 0.70
     Davidson diagonalization with overlap
     ethr =  4.65E-11,  avg # of iterations =  2.0

     negative rho (up, down):  9.271E-06 0.000E+00

     total cpu time spent up to now is       16.5 secs

     total energy              =     -54.86870860 Ry
     estimated scf accuracy    <       0.00000004 Ry

     iteration # 22     ecut=    60.00 Ry     beta= 0.70
     Davidson diagonalization with overlap
     ethr =  4.65E-11,  avg # of iterations =  2.9

     negative rho (up, down):  9.271E-06 0.000E+00

     total cpu time spent up to now is       17.1 secs

     total energy              =     -54.86870860 Ry
     estimated scf accuracy    <       0.00000001 Ry

     iteration # 23     ecut=    60.00 Ry     beta= 0.70
     Davidson diagonalization with overlap
     ethr =  4.65E-11,  avg # of iterations =  2.0

     negative rho (up, down):  9.272E-06 0.000E+00

     total cpu time spent up to now is       17.7 secs

     total energy              =     -54.86870860 Ry
     estimated scf accuracy    <          3.5E-09 Ry

     iteration # 24     ecut=    60.00 Ry     beta= 0.70
     Davidson diagonalization with overlap
     ethr =  2.18E-11,  avg # of iterations =  4.6

     negative rho (up, down):  9.271E-06 0.000E+00

     total cpu time spent up to now is       18.5 secs

     total energy              =     -54.86870860 Ry
     estimated scf accuracy    <          6.7E-10 Ry

     iteration # 25     ecut=    60.00 Ry     beta= 0.70
     Davidson diagonalization with overlap
     ethr =  4.19E-12,  avg # of iterations =  5.9

     negative rho (up, down):  9.271E-06 0.000E+00

     total cpu time spent up to now is       19.4 secs

     total energy              =     -54.86870860 Ry
     estimated scf accuracy    <          2.2E-09 Ry

     iteration # 26     ecut=    60.00 Ry     beta= 0.70
     Davidson diagonalization with overlap
     ethr =  4.19E-12,  avg # of iterations =  3.0

     negative rho (up, down):  9.271E-06 0.000E+00

     total cpu time spent up to now is       20.1 secs

     End of self-consistent calculation

          k = 0.0000 0.0000 0.0000 ( 11467 PWs)   bands (ev):

   -21.7048 -18.6517 -12.9627  -9.2929  -8.1684  -5.4418  -5.4184  -4.9967

          k = 0.0000 0.1243 0.0000 ( 11491 PWs)   bands (ev):

   -21.6309 -18.6025 -12.9033  -9.1937  -8.4607  -5.7307  -5.5884  -4.9246

          k = 0.0000 0.2487 0.0000 ( 11485 PWs)   bands (ev):

   -21.4112 -18.4649 -12.7270  -9.2127  -8.8976  -6.5500  -6.0075  -4.7197

          k = 0.0000 0.3730 0.0000 ( 11488 PWs)   bands (ev):

   -21.0528 -18.2736 -12.4427 -10.1563  -8.4129  -7.6480  -6.6460  -4.4262

          k = 0.0000 0.4973 0.0000 ( 11496 PWs)   bands (ev):

   -20.5693 -18.1005 -12.0982 -10.9894  -8.8310  -7.7547  -7.4293  -4.1492

          k = 0.0000 0.6217 0.0000 ( 11534 PWs)   bands (ev):

   -19.9865 -18.0611 -11.9986 -11.1787  -9.9679  -8.2822  -6.9518  -4.0853

          k = 0.0000 0.7460 0.0000 ( 11550 PWs)   bands (ev):

   -19.3492 -18.2714 -12.0384 -10.9543 -10.6606  -9.1382  -6.0549  -4.4345

          k = 0.0000-0.8704 0.0000 ( 11592 PWs)   bands (ev):

   -18.7376 -18.7376 -11.6837 -11.6837  -9.9461  -9.9461  -5.1603  -5.1603

          k = 0.0714 0.0000 0.0000 ( 11521 PWs)   bands (ev):

   -21.6805 -18.7244 -12.8494  -9.2603  -8.1423  -5.5499  -5.4672  -5.1108

          k = 0.0714 0.1243 0.0000 ( 11506 PWs)   bands (ev):

   -21.6066 -18.6741 -12.7921  -9.1609  -8.4344  -5.8371  -5.6289  -5.0375

          k = 0.0714 0.2487 0.0000 ( 11487 PWs)   bands (ev):

   -21.3873 -18.5328 -12.6237  -9.1837  -8.8653  -6.6535  -6.0277  -4.8283

          k = 0.0714 0.3730 0.0000 ( 11486 PWs)   bands (ev):

   -21.0296 -18.3345 -12.3601 -10.1175  -8.3813  -7.7535  -6.6331  -4.5261

          k = 0.0714 0.4973 0.0000 ( 11496 PWs)   bands (ev):

   -20.5475 -18.1490 -12.0809 -10.9025  -8.9397  -7.7247  -7.3823  -4.2308

          k = 0.0714 0.6217 0.0000 ( 11524 PWs)   bands (ev):

   -19.9671 -18.0914 -12.0916 -11.0071 -10.0785  -8.2038  -6.9246  -4.1356

          k = 0.0714 0.7460 0.0000 ( 11550 PWs)   bands (ev):

   -19.3348 -18.2813 -12.1414 -11.0650 -10.5090  -9.0335  -6.0336  -4.4488

          k = 0.0714-0.8704 0.0000 ( 11568 PWs)   bands (ev):

   -18.7320 -18.7320 -11.7916 -11.7916  -9.8181  -9.8181  -5.1505  -5.1505

          k = 0.1429 0.0000 0.0000 ( 11526 PWs)   bands (ev):

   -21.6075 -18.9247 -12.5264  -9.1622  -8.0651  -5.8591  -5.6065  -5.4179

          k = 0.1429 0.1243 0.0000 ( 11511 PWs)   bands (ev):

   -21.5340 -18.8716 -12.4755  -9.0632  -8.3554  -6.1237  -5.7684  -5.3413

          k = 0.1429 0.2487 0.0000 ( 11481 PWs)   bands (ev):

   -21.3158 -18.7214 -12.3304  -9.0971  -8.7688  -6.9209  -6.1233  -5.1222

          k = 0.1429 0.3730 0.0000 ( 11499 PWs)   bands (ev):

   -20.9603 -18.5050 -12.1279  -9.9994  -8.2872  -8.0210  -6.6438  -4.7980

          k = 0.1429 0.4973 0.0000 ( 11519 PWs)   bands (ev):

   -20.4824 -18.2872 -12.0246 -10.6569  -9.2106  -7.6353  -7.2987  -4.4579

          k = 0.1429 0.6217 0.0000 ( 11515 PWs)   bands (ev):

   -19.9096 -18.1797 -12.2421 -10.6261 -10.3502  -8.0332  -6.8437  -4.2803

          k = 0.1429 0.7460 0.0000 ( 11523 PWs)   bands (ev):

   -19.2916 -18.3115 -12.3541 -11.3308 -10.1534  -8.7889  -5.9701  -4.4929

          k = 0.1429-0.8704 0.0000 ( 11540 PWs)   bands (ev):

   -18.7161 -18.7161 -12.0395 -12.0395  -9.5128  -9.5128  -5.1232  -5.1232

          k = 0.2143 0.0000 0.0000 ( 11492 PWs)   bands (ev):

   -21.4866 -19.2127 -12.0356  -8.9992  -7.9373  -6.3398  -5.8454  -5.8209

          k = 0.2143 0.1243 0.0000 ( 11509 PWs)   bands (ev):

   -21.4137 -19.1563 -11.9948  -8.9009  -8.2254  -6.5590  -5.9985  -5.7655

          k = 0.2143 0.2487 0.0000 ( 11512 PWs)   bands (ev):

   -21.1975 -18.9947 -11.8868  -8.9536  -8.6087  -7.2953  -6.3306  -5.5340

          k = 0.2143 0.3730 0.0000 ( 11518 PWs)   bands (ev):

   -20.8459 -18.7551 -11.7838  -9.7987  -8.3768  -8.1315  -6.7469  -5.1828

          k = 0.2143 0.4973 0.0000 ( 11532 PWs)   bands (ev):

   -20.3750 -18.4951 -11.9205 -10.2863  -9.5608  -7.4875  -7.2687  -4.7869

          k = 0.2143 0.6217 0.0000 ( 11527 PWs)   bands (ev):

   -19.8153 -18.3187 -12.3423 -10.6926 -10.1589  -7.8726  -6.7108  -4.5036

          k = 0.2143 0.7460 0.0000 ( 11526 PWs)   bands (ev):

   -19.2220 -18.3633 -12.5613 -11.6539  -9.7178  -8.5148  -5.8675  -4.5697

          k = 0.2143-0.8704 0.0000 ( 11544 PWs)   bands (ev):

   -18.6928 -18.6928 -12.3208 -12.3208  -9.1464  -9.1464  -5.0830  -5.0830

          k = 0.2857 0.0000 0.0000 ( 11504 PWs)   bands (ev):

   -21.3191 -19.5477 -11.4226  -8.7731  -7.7629  -6.9514  -6.3293  -6.0893

          k = 0.2857 0.1243 0.0000 ( 11519 PWs)   bands (ev):

   -21.2472 -19.4878 -11.3951  -8.6759  -8.0467  -7.1179  -6.2896  -6.2453

          k = 0.2857 0.2487 0.0000 ( 11499 PWs)   bands (ev):

   -21.0336 -19.3149 -11.3372  -8.7530  -8.3867  -7.7446  -6.6419  -6.0013

          k = 0.2857 0.3730 0.0000 ( 11507 PWs)   bands (ev):

   -20.6875 -19.0520 -11.3725  -9.5120  -8.7762  -7.9156  -6.9714  -5.6235

          k = 0.2857 0.4973 0.0000 ( 11535 PWs)   bands (ev):

   -20.2271 -18.7483 -11.7649  -9.9390  -9.8291  -7.3474  -7.2833  -5.1735

          k = 0.2857 0.6217 0.0000 ( 11545 PWs)   bands (ev):

   -19.6865 -18.4972 -12.3641 -11.0504  -9.6565  -7.7919  -6.5288  -4.7833

          k = 0.2857 0.7460 0.0000 ( 11540 PWs)   bands (ev):

   -19.1294 -18.4373 -12.7111 -11.9762  -9.2696  -8.2855  -5.7297  -4.6811

          k = 0.2857-0.8704 0.0000 ( 11568 PWs)   bands (ev):

   -18.6666 -18.6665 -12.5765 -12.5765  -8.7928  -8.7928  -5.0369  -5.0369

          k = 0.3571 0.0000 0.0000 ( 11516 PWs)   bands (ev):

   -21.1072 -19.8976 -10.7252  -8.4862  -7.6548  -7.5449  -6.8236  -6.3893

          k = 0.3571 0.1243 0.0000 ( 11501 PWs)   bands (ev):

   -21.0362 -19.8347 -10.7145  -8.3900  -7.8229  -7.7701  -6.7363  -6.6117

          k = 0.3571 0.2487 0.0000 ( 11497 PWs)   bands (ev):

   -20.8264 -19.6517 -10.7230  -8.4967  -8.2557  -8.1049  -7.0239  -6.4812

          k = 0.3571 0.3730 0.0000 ( 11521 PWs)   bands (ev):

   -20.4879 -19.3676 -10.9335  -9.1957  -9.1411  -7.6425  -7.3130  -6.0796

          k = 0.3571 0.4973 0.0000 ( 11553 PWs)   bands (ev):

   -20.0414 -19.0241 -11.5591 -10.3171  -9.3231  -7.5552  -7.0259  -5.5821

          k = 0.3571 0.6217 0.0000 ( 11553 PWs)   bands (ev):

   -19.5266 -18.7017 -12.3047 -11.3934  -9.1558  -7.8290  -6.3015  -5.0956

          k = 0.3571 0.7460 0.0000 ( 11549 PWs)   bands (ev):

   -19.0185 -18.5323 -12.7834 -12.2661  -8.8521  -8.1493  -5.5639  -4.8256

          k = 0.3571-0.8704 0.0000 ( 11562 PWs)   bands (ev):

   -18.6422 -18.6422 -12.7757 -12.7757  -8.5011  -8.5011  -4.9938  -4.9937

          k = 0.4286 0.0000 0.0000 ( 11494 PWs)   bands (ev):

   -20.8534 -20.2407  -9.9738  -8.4124  -8.1414  -7.3010  -7.2893  -6.6996

          k = 0.4286 0.1243 0.0000 ( 11493 PWs)   bands (ev):

   -20.7839 -20.1753  -9.9846  -8.4849  -8.0468  -7.5590  -7.2109  -6.9419

          k = 0.4286 0.2487 0.0000 ( 11507 PWs)   bands (ev):

   -20.5790 -19.9834 -10.0790  -8.8231  -8.1867  -7.7673  -7.4321  -6.9460

          k = 0.4286 0.3730 0.0000 ( 11530 PWs)   bands (ev):

   -20.2501 -19.6815 -10.4913  -9.6230  -8.7006  -7.7430  -7.3154  -6.5245

          k = 0.4286 0.4973 0.0000 ( 11546 PWs)   bands (ev):

   -19.8215 -19.3039 -11.3058 -10.6778  -8.8054  -7.8856  -6.7191  -5.9868

          k = 0.4286 0.6217 0.0000 ( 11567 PWs)   bands (ev):

   -19.3406 -18.9185 -12.1689 -11.7027  -8.6901  -7.9989  -6.0350  -5.4197

          k = 0.4286 0.7460 0.0000 ( 11568 PWs)   bands (ev):

   -18.8957 -18.6447 -12.7712 -12.5042  -8.5038  -8.1361  -5.3790  -4.9975

          k = 0.4286-0.8704 0.0000 ( 11530 PWs)   bands (ev):

   -18.6249 -18.6249 -12.9017 -12.9017  -8.3083  -8.3083  -4.9629  -4.9628

          k =-0.5000 0.0000 0.0000 ( 11468 PWs)   bands (ev):

   -20.5624 -20.5624  -9.1942  -9.1942  -7.7438  -7.7438  -7.0039  -7.0039

          k =-0.5000 0.1243 0.0000 ( 11482 PWs)   bands (ev):

   -20.4948 -20.4948  -9.2326  -9.2325  -7.6514  -7.6514  -7.2619  -7.2619

          k =-0.5000 0.2487 0.0000 ( 11526 PWs)   bands (ev):

   -20.2958 -20.2958  -9.4370  -9.4370  -7.8280  -7.8280  -7.3786  -7.3786

          k =-0.5000 0.3730 0.0000 ( 11514 PWs)   bands (ev):

   -19.9789 -19.9789 -10.0545 -10.0545  -8.2204  -8.2204  -6.9402  -6.9402

          k =-0.5000 0.4973 0.0000 ( 11546 PWs)   bands (ev):

   -19.5732 -19.5732 -11.0100 -11.0100  -8.3138  -8.3138  -6.3700  -6.3700

          k =-0.5000 0.6217 0.0000 ( 11568 PWs)   bands (ev):

   -19.1351 -19.1350 -11.9649 -11.9649  -8.2937  -8.2937  -5.7375  -5.7375

          k =-0.5000 0.7460 0.0000 ( 11568 PWs)   bands (ev):

   -18.7684 -18.7684 -12.6761 -12.6761  -8.2569  -8.2569  -5.1860  -5.1859

          k =-0.5000-0.8704 0.0000 ( 11536 PWs)   bands (ev):

   -18.6187 -18.6187 -12.9448 -12.9448  -8.2412  -8.2412  -4.9517  -4.9516

     highest occupied level (ev):    -4.0853

!    total energy              =     -54.86870860 Ry
     estimated scf accuracy    <          6.3E-11 Ry

     The total energy is the sum of the following terms:
     one-electron contribution =    -440.64463951 Ry
     hartree contribution      =     223.56820249 Ry
     xc contribution           =     -18.60900054 Ry
     ewald contribution        =     180.81672895 Ry

     convergence has been achieved in  26 iterations

     negative rho (up, down):  9.271E-06 0.000E+00

     Forces acting on atoms (cartesian axes, Ry/au):

     atom    1 type  2   force =     0.00229720    0.00000000    0.00000000
     atom    2 type  1   force =    -0.00229752    0.00000000    0.00000000
     atom    3 type  2   force =     0.00229480    0.00000000    0.00000000
     atom    4 type  1   force =    -0.00229448    0.00000000    0.00000000

     Total force =     0.004592     Total SCF correction =     0.000000

     BFGS Geometry Optimization

     number of scf cycles    =   1
     number of bfgs steps    =   0

     energy   new            =     -54.8687086035 Ry

     new trust radius        =       0.0022975187 bohr
     new conv_thr            =            1.0E-10 Ry


ATOMIC_POSITIONS (crystal)
N             0.0002937709        0.0000000000        0.5000000000
B             0.3330647278        0.0000000000        0.5000000000
N             0.5002936733        0.5000000000        0.5000000000
B             0.8330648280        0.5000000000        0.5000000000



     Writing output data file ./wfc-out/pwscf.save/
     NEW-OLD atomic charge density approx. for the potential

     Check: negative core charge=   -0.000004

     negative rho (up, down):  9.278E-06 0.000E+00

     total cpu time spent up to now is       22.1 secs

     Self-consistent Calculation

     iteration #  1     ecut=    60.00 Ry     beta= 0.70
     Davidson diagonalization with overlap
     ethr =  1.00E-06,  avg # of iterations =  3.1

     Threshold (ethr) on eigenvalues was too large:
     Diagonalizing with lowered threshold

     Davidson diagonalization with overlap
     ethr =  2.15E-08,  avg # of iterations =  5.0

     negative rho (up, down):  9.270E-06 0.000E+00

     total cpu time spent up to now is       23.6 secs

     total energy              =     -54.86871125 Ry
     estimated scf accuracy    <       0.00000538 Ry

     iteration #  2     ecut=    60.00 Ry     beta= 0.70
     Davidson diagonalization with overlap
     ethr =  3.36E-08,  avg # of iterations =  2.0

     negative rho (up, down):  9.269E-06 0.000E+00

     total cpu time spent up to now is       24.2 secs

     total energy              =     -54.86871205 Ry
     estimated scf accuracy    <       0.00000006 Ry

     iteration #  3     ecut=    60.00 Ry     beta= 0.70
     Davidson diagonalization with overlap
     ethr =  4.00E-10,  avg # of iterations =  5.5

     negative rho (up, down):  9.269E-06 0.000E+00

     total cpu time spent up to now is       25.1 secs

     total energy              =     -54.86871212 Ry
     estimated scf accuracy    <       0.00000001 Ry

     iteration #  4     ecut=    60.00 Ry     beta= 0.70
     Davidson diagonalization with overlap
     ethr =  8.05E-11,  avg # of iterations =  3.6

     negative rho (up, down):  9.269E-06 0.000E+00

     total cpu time spent up to now is       25.9 secs

     total energy              =     -54.86871212 Ry
     estimated scf accuracy    <          2.6E-09 Ry

     iteration #  5     ecut=    60.00 Ry     beta= 0.70
     Davidson diagonalization with overlap
     ethr =  1.63E-11,  avg # of iterations =  3.2

     negative rho (up, down):  9.268E-06 0.000E+00

     total cpu time spent up to now is       26.6 secs

     total energy              =     -54.86871212 Ry
     estimated scf accuracy    <          4.5E-10 Ry

     iteration #  6     ecut=    60.00 Ry     beta= 0.70
     Davidson diagonalization with overlap
     ethr =  2.80E-12,  avg # of iterations =  4.3

     negative rho (up, down):  9.268E-06 0.000E+00

     total cpu time spent up to now is       27.4 secs

     End of self-consistent calculation

          k = 0.0000 0.0000 0.0000 ( 11467 PWs)   bands (ev):

   -21.7047 -18.6549 -12.9679  -9.2929  -8.1534  -5.4699  -5.3901  -4.9876

          k = 0.0000 0.1243 0.0000 ( 11491 PWs)   bands (ev):

   -21.6308 -18.6055 -12.9085  -9.1937  -8.4466  -5.7042  -5.6154  -4.9158

          k = 0.0000 0.2487 0.0000 ( 11485 PWs)   bands (ev):

   -21.4109 -18.4675 -12.7322  -9.2007  -8.8978  -6.5276  -6.0317  -4.7118

          k = 0.0000 0.3730 0.0000 ( 11488 PWs)   bands (ev):

   -21.0523 -18.2754 -12.4477 -10.1469  -8.4135  -7.6303  -6.6665  -4.4201

          k = 0.0000 0.4973 0.0000 ( 11496 PWs)   bands (ev):

   -20.5683 -18.1012 -12.1023 -10.9837  -8.8177  -7.7559  -7.4458  -4.1463

          k = 0.0000 0.6217 0.0000 ( 11534 PWs)   bands (ev):

   -19.9851 -18.0605 -11.9964 -11.1816  -9.9583  -8.2953  -6.9539  -4.0865

          k = 0.0000 0.7460 0.0000 ( 11550 PWs)   bands (ev):

   -19.3474 -18.2698 -12.0345 -10.9476 -10.6671  -9.1486  -6.0580  -4.4384

          k = 0.0000-0.8704 0.0000 ( 11592 PWs)   bands (ev):

   -18.7356 -18.7356 -11.6790 -11.6789  -9.9544  -9.9544  -5.1643  -5.1643

          k = 0.0714 0.0000 0.0000 ( 11521 PWs)   bands (ev):

   -21.6804 -18.7275 -12.8548  -9.2602  -8.1273  -5.5774  -5.4393  -5.1023

          k = 0.0714 0.1243 0.0000 ( 11506 PWs)   bands (ev):

   -21.6065 -18.6770 -12.7975  -9.1609  -8.4202  -5.8289  -5.6374  -5.0292

          k = 0.0714 0.2487 0.0000 ( 11487 PWs)   bands (ev):

   -21.3870 -18.5354 -12.6291  -9.1716  -8.8656  -6.6361  -6.0468  -4.8209

          k = 0.0714 0.3730 0.0000 ( 11486 PWs)   bands (ev):

   -21.0290 -18.3363 -12.3652 -10.1082  -8.3819  -7.7383  -6.6510  -4.5204

          k = 0.0714 0.4973 0.0000 ( 11496 PWs)   bands (ev):

   -20.5466 -18.1497 -12.0843 -10.8975  -8.9279  -7.7259  -7.3974  -4.2281

          k = 0.0714 0.6217 0.0000 ( 11524 PWs)   bands (ev):

   -19.9657 -18.0908 -12.0896 -11.0100 -10.0699  -8.2159  -6.9267  -4.1368

          k = 0.0714 0.7460 0.0000 ( 11550 PWs)   bands (ev):

   -19.3329 -18.2797 -12.1380 -11.0590 -10.5151  -9.0432  -6.0367  -4.4526

          k = 0.0714-0.8704 0.0000 ( 11568 PWs)   bands (ev):

   -18.7300 -18.7300 -11.7874 -11.7874  -9.8259  -9.8259  -5.1545  -5.1545

          k = 0.1429 0.0000 0.0000 ( 11526 PWs)   bands (ev):

   -21.6075 -18.9275 -12.5324  -9.1620  -8.0498  -5.8849  -5.5796  -5.4108

          k = 0.1429 0.1243 0.0000 ( 11511 PWs)   bands (ev):

   -21.5340 -18.8743 -12.4815  -9.0631  -8.3410  -6.1298  -5.7620  -5.3345

          k = 0.1429 0.2487 0.0000 ( 11481 PWs)   bands (ev):

   -21.3156 -18.7236 -12.3363  -9.0850  -8.7689  -6.9110  -6.1345  -5.1161

          k = 0.1429 0.3730 0.0000 ( 11499 PWs)   bands (ev):

   -20.9598 -18.5065 -12.1331  -9.9903  -8.2878  -8.0100  -6.6574  -4.7934

          k = 0.1429 0.4973 0.0000 ( 11519 PWs)   bands (ev):

   -20.4815 -18.2878 -12.0267 -10.6535  -9.2014  -7.6365  -7.3112  -4.4557

          k = 0.1429 0.6217 0.0000 ( 11515 PWs)   bands (ev):

   -19.9083 -18.1790 -12.2401 -10.6292 -10.3434  -8.0438  -6.8458  -4.2816

          k = 0.1429 0.7460 0.0000 ( 11523 PWs)   bands (ev):

   -19.2898 -18.3099 -12.3513 -11.3260 -10.1590  -8.7976  -5.9732  -4.4967

          k = 0.1429-0.8704 0.0000 ( 11540 PWs)   bands (ev):

   -18.7141 -18.7141 -12.0361 -12.0361  -9.5199  -9.5199  -5.1273  -5.1273

          k = 0.2143 0.0000 0.0000 ( 11492 PWs)   bands (ev):

   -21.4867 -19.2151 -12.0426  -8.9990  -7.9216  -6.3632  -5.8399  -5.7955

          k = 0.2143 0.1243 0.0000 ( 11509 PWs)   bands (ev):

   -21.4138 -19.1585 -12.0018  -8.9007  -8.2107  -6.5719  -5.9844  -5.7602

          k = 0.2143 0.2487 0.0000 ( 11512 PWs)   bands (ev):

   -21.1974 -18.9967 -11.8933  -8.9412  -8.6087  -7.2914  -6.3352  -5.5293

          k = 0.2143 0.3730 0.0000 ( 11518 PWs)   bands (ev):

   -20.8454 -18.7565 -11.7889  -9.7902  -8.3690  -8.1320  -6.7570  -5.1793

          k = 0.2143 0.4973 0.0000 ( 11532 PWs)   bands (ev):

   -20.3742 -18.4955 -11.9210 -10.2848  -9.5536  -7.4887  -7.2792  -4.7854

          k = 0.2143 0.6217 0.0000 ( 11527 PWs)   bands (ev):

   -19.8140 -18.3181 -12.3399 -10.6870 -10.1625  -7.8820  -6.7128  -4.5050

          k = 0.2143 0.7460 0.0000 ( 11526 PWs)   bands (ev):

   -19.2203 -18.3617 -12.5587 -11.6499  -9.7235  -8.5229  -5.8706  -4.5735

          k = 0.2143-0.8704 0.0000 ( 11544 PWs)   bands (ev):

   -18.6909 -18.6909 -12.3179 -12.3179  -9.1533  -9.1533  -5.0872  -5.0872

          k = 0.2857 0.0000 0.0000 ( 11504 PWs)   bands (ev):

   -21.3194 -19.5497 -11.4309  -8.7727  -7.7466  -6.9722  -6.3251  -6.0655

          k = 0.2857 0.1243 0.0000 ( 11519 PWs)   bands (ev):

   -21.2474 -19.4896 -11.4032  -8.6755  -8.0315  -7.1333  -6.2721  -6.2413

          k = 0.2857 0.2487 0.0000 ( 11499 PWs)   bands (ev):

   -21.0336 -19.3165 -11.3446  -8.7405  -8.3865  -7.7454  -6.6409  -5.9978

          k = 0.2857 0.3730 0.0000 ( 11507 PWs)   bands (ev):

   -20.6872 -19.0530 -11.3771  -9.5047  -8.7708  -7.9160  -6.9786  -5.6210

          k = 0.2857 0.4973 0.0000 ( 11535 PWs)   bands (ev):

   -20.2264 -18.7485 -11.7641  -9.9332  -9.8295  -7.3563  -7.2843  -5.1727

          k = 0.2857 0.6217 0.0000 ( 11545 PWs)   bands (ev):

   -19.6853 -18.4965 -12.3615 -11.0456  -9.6609  -7.8005  -6.5308  -4.7848

          k = 0.2857 0.7460 0.0000 ( 11540 PWs)   bands (ev):

   -19.1277 -18.4357 -12.7085 -11.9727  -9.2755  -8.2933  -5.7329  -4.6849

          k = 0.2857-0.8704 0.0000 ( 11568 PWs)   bands (ev):

   -18.6646 -18.6646 -12.5738 -12.5738  -8.7997  -8.7997  -5.0412  -5.0412

          k = 0.3571 0.0000 0.0000 ( 11516 PWs)   bands (ev):

   -21.1076 -19.8992 -10.7349  -8.4854  -7.6729  -7.5279  -6.8206  -6.3671

          k = 0.3571 0.1243 0.0000 ( 11501 PWs)   bands (ev):

   -21.0366 -19.8362 -10.7240  -8.3894  -7.8070  -7.7855  -6.7334  -6.5932

          k = 0.3571 0.2487 0.0000 ( 11497 PWs)   bands (ev):

   -20.8265 -19.6529 -10.7311  -8.4841  -8.2603  -8.1045  -7.0184  -6.4787

          k = 0.3571 0.3730 0.0000 ( 11521 PWs)   bands (ev):

   -20.4877 -19.3683 -10.9370  -9.1922  -9.1356  -7.6426  -7.3175  -6.0779

          k = 0.3571 0.4973 0.0000 ( 11553 PWs)   bands (ev):

   -20.0408 -19.0242 -11.5573 -10.3123  -9.3251  -7.5627  -7.0267  -5.5817

          k = 0.3571 0.6217 0.0000 ( 11553 PWs)   bands (ev):

   -19.5255 -18.7009 -12.3017 -11.3892  -9.1609  -7.8370  -6.3035  -5.0973

          k = 0.3571 0.7460 0.0000 ( 11549 PWs)   bands (ev):

   -19.0169 -18.5307 -12.7808 -12.2629  -8.8585  -8.1570  -5.5672  -4.8293

          k = 0.3571-0.8704 0.0000 ( 11562 PWs)   bands (ev):

   -18.6403 -18.6403 -12.7731 -12.7731  -8.5082  -8.5082  -4.9981  -4.9981

          k = 0.4286 0.0000 0.0000 ( 11494 PWs)   bands (ev):

   -20.8541 -20.2419  -9.9853  -8.4280  -8.1403  -7.2988  -7.2713  -6.6789

          k = 0.4286 0.1243 0.0000 ( 11493 PWs)   bands (ev):

   -20.7845 -20.1764  -9.9956  -8.4991  -8.0458  -7.5423  -7.2088  -6.9236

          k = 0.4286 0.2487 0.0000 ( 11507 PWs)   bands (ev):

   -20.5793 -19.9843 -10.0877  -8.8302  -8.1745  -7.7666  -7.4231  -6.9443

          k = 0.4286 0.3730 0.0000 ( 11530 PWs)   bands (ev):

   -20.2501 -19.6819 -10.4933  -9.6214  -8.6973  -7.7450  -7.3153  -6.5235

          k = 0.4286 0.4973 0.0000 ( 11546 PWs)   bands (ev):

   -19.8211 -19.3037 -11.3032 -10.6738  -8.8089  -7.8919  -6.7198  -5.9869

          k = 0.4286 0.6217 0.0000 ( 11567 PWs)   bands (ev):

   -19.3395 -18.9177 -12.1657 -11.6989  -8.6960  -8.0064  -6.0369  -5.4215

          k = 0.4286 0.7460 0.0000 ( 11568 PWs)   bands (ev):

   -18.8941 -18.6432 -12.7684 -12.5012  -8.5107  -8.1436  -5.3824  -5.0011

          k = 0.4286-0.8704 0.0000 ( 11530 PWs)   bands (ev):

   -18.6231 -18.6230 -12.8992 -12.8992  -8.3156  -8.3156  -4.9673  -4.9673

          k =-0.5000 0.0000 0.0000 ( 11468 PWs)   bands (ev):

   -20.5633 -20.5633  -9.2077  -9.2077  -7.7422  -7.7422  -6.9847  -6.9847

          k =-0.5000 0.1243 0.0000 ( 11482 PWs)   bands (ev):

   -20.4956 -20.4956  -9.2452  -9.2452  -7.6499  -7.6499  -7.2443  -7.2443

          k =-0.5000 0.2487 0.0000 ( 11526 PWs)   bands (ev):

   -20.2964 -20.2964  -9.4454  -9.4454  -7.8168  -7.8168  -7.3774  -7.3774

          k =-0.5000 0.3730 0.0000 ( 11514 PWs)   bands (ev):

   -19.9791 -19.9791 -10.0547 -10.0547  -8.2198  -8.2198  -6.9397  -6.9396

          k =-0.5000 0.4973 0.0000 ( 11546 PWs)   bands (ev):

   -19.5729 -19.5729 -11.0066 -11.0066  -8.3188  -8.3188  -6.3704  -6.3704

          k =-0.5000 0.6217 0.0000 ( 11568 PWs)   bands (ev):

   -19.1341 -19.1341 -11.9614 -11.9614  -8.3005  -8.3004  -5.7394  -5.7394

          k =-0.5000 0.7460 0.0000 ( 11568 PWs)   bands (ev):

   -18.7668 -18.7668 -12.6732 -12.6732  -8.2642  -8.2642  -5.1895  -5.1895

          k =-0.5000-0.8704 0.0000 ( 11536 PWs)   bands (ev):

   -18.6169 -18.6169 -12.9423 -12.9423  -8.2485  -8.2485  -4.9561  -4.9561

     highest occupied level (ev):    -4.0865

!    total energy              =     -54.86871212 Ry
     estimated scf accuracy    <          9.0E-11 Ry

     The total energy is the sum of the following terms:
     one-electron contribution =    -440.64410913 Ry
     hartree contribution      =     223.56789267 Ry
     xc contribution           =     -18.60893939 Ry
     ewald contribution        =     180.81644373 Ry

     convergence has been achieved in   6 iterations

     negative rho (up, down):  9.268E-06 0.000E+00

     Forces acting on atoms (cartesian axes, Ry/au):

     atom    1 type  2   force =    -0.00153690    0.00000000    0.00000000
     atom    2 type  1   force =     0.00153692    0.00000000    0.00000000
     atom    3 type  2   force =    -0.00153582    0.00000000    0.00000000
     atom    4 type  1   force =     0.00153580    0.00000000    0.00000000

     Total force =     0.003073     Total SCF correction =     0.000012

     number of scf cycles    =   2
     number of bfgs steps    =   1

     energy   old            =     -54.8687086035 Ry
     energy   new            =     -54.8687121250 Ry

     CASE: energy  _new < energy  _old

     new trust radius        =       0.0009207817 bohr
     new conv_thr            =            3.5E-12 Ry


ATOMIC_POSITIONS (crystal)
N             0.0001817907        0.0000000000        0.5000000000
B             0.3331767096        0.0000000000        0.5000000000
N             0.5001817713        0.5000000000        0.5000000000
B             0.8331767284        0.5000000000        0.5000000000



     Writing output data file ./wfc-out/pwscf.save/
     NEW-OLD atomic charge density approx. for the potential

     Check: negative core charge=   -0.000004

     negative rho (up, down):  9.270E-06 0.000E+00

     total cpu time spent up to now is       30.7 secs

     Self-consistent Calculation

     iteration #  1     ecut=    60.00 Ry     beta= 0.70
     Davidson diagonalization with overlap
     ethr =  1.00E-06,  avg # of iterations =  2.1

     Threshold (ethr) on eigenvalues was too large:
     Diagonalizing with lowered threshold

     Davidson diagonalization with overlap
     ethr =  2.40E-09,  avg # of iterations =  6.0

     negative rho (up, down):  9.269E-06 0.000E+00

     total cpu time spent up to now is       32.4 secs

     total energy              =     -54.86871480 Ry
     estimated scf accuracy    <       0.00000087 Ry

     iteration #  2     ecut=    60.00 Ry     beta= 0.70
     Davidson diagonalization with overlap
     ethr =  5.43E-09,  avg # of iterations =  2.0

     negative rho (up, down):  9.269E-06 0.000E+00

     total cpu time spent up to now is       33.0 secs

     total energy              =     -54.86871493 Ry
     estimated scf accuracy    <          9.8E-09 Ry

     iteration #  3     ecut=    60.00 Ry     beta= 0.70
     Davidson diagonalization with overlap
     ethr =  6.13E-11,  avg # of iterations =  5.0

     negative rho (up, down):  9.269E-06 0.000E+00

     total cpu time spent up to now is       33.9 secs

     total energy              =     -54.86871494 Ry
     estimated scf accuracy    <          1.7E-09 Ry

     iteration #  4     ecut=    60.00 Ry     beta= 0.70
     Davidson diagonalization with overlap
     ethr =  1.03E-11,  avg # of iterations =  3.8

     negative rho (up, down):  9.269E-06 0.000E+00

     total cpu time spent up to now is       34.6 secs

     total energy              =     -54.86871494 Ry
     estimated scf accuracy    <          3.1E-10 Ry

     iteration #  5     ecut=    60.00 Ry     beta= 0.70
     Davidson diagonalization with overlap
     ethr =  1.95E-12,  avg # of iterations =  3.1

     negative rho (up, down):  9.269E-06 0.000E+00

     total cpu time spent up to now is       35.3 secs

     total energy              =     -54.86871494 Ry
     estimated scf accuracy    <          4.7E-11 Ry

     iteration #  6     ecut=    60.00 Ry     beta= 0.70
     Davidson diagonalization with overlap
     ethr =  2.92E-13,  avg # of iterations =  5.0

     negative rho (up, down):  9.269E-06 0.000E+00

     total cpu time spent up to now is       36.2 secs

     total energy              =     -54.86871494 Ry
     estimated scf accuracy    <          1.4E-11 Ry

     iteration #  7     ecut=    60.00 Ry     beta= 0.70
     Davidson diagonalization with overlap
     ethr =  1.00E-13,  avg # of iterations =  2.1

     negative rho (up, down):  9.269E-06 0.000E+00

     total cpu time spent up to now is       36.8 secs

     End of self-consistent calculation

          k = 0.0000 0.0000 0.0000 ( 11467 PWs)   bands (ev):

   -21.7048 -18.6536 -12.9658  -9.2929  -8.1594  -5.4587  -5.4015  -4.9913

          k = 0.0000 0.1243 0.0000 ( 11491 PWs)   bands (ev):

   -21.6309 -18.6043 -12.9064  -9.1937  -8.4523  -5.7148  -5.6047  -4.9193

          k = 0.0000 0.2487 0.0000 ( 11485 PWs)   bands (ev):

   -21.4110 -18.4665 -12.7301  -9.2055  -8.8977  -6.5366  -6.0221  -4.7149

          k = 0.0000 0.3730 0.0000 ( 11488 PWs)   bands (ev):

   -21.0525 -18.2747 -12.4457 -10.1506  -8.4133  -7.6374  -6.6584  -4.4226

          k = 0.0000 0.4973 0.0000 ( 11496 PWs)   bands (ev):

   -20.5687 -18.1009 -12.1006 -10.9860  -8.8230  -7.7554  -7.4393  -4.1475

          k = 0.0000 0.6217 0.0000 ( 11534 PWs)   bands (ev):

   -19.9857 -18.0608 -11.9973 -11.1805  -9.9621  -8.2901  -6.9530  -4.0860

          k = 0.0000 0.7460 0.0000 ( 11550 PWs)   bands (ev):

   -19.3482 -18.2705 -12.0361 -10.9503 -10.6646  -9.1445  -6.0568  -4.4368

          k = 0.0000-0.8704 0.0000 ( 11592 PWs)   bands (ev):

   -18.7364 -18.7364 -11.6809 -11.6809  -9.9511  -9.9511  -5.1627  -5.1627

          k = 0.0714 0.0000 0.0000 ( 11521 PWs)   bands (ev):

   -21.6805 -18.7263 -12.8526  -9.2602  -8.1333  -5.5664  -5.4505  -5.1057

          k = 0.0714 0.1243 0.0000 ( 11506 PWs)   bands (ev):

   -21.6066 -18.6759 -12.7953  -9.1610  -8.4259  -5.8314  -5.6348  -5.0325

          k = 0.0714 0.2487 0.0000 ( 11487 PWs)   bands (ev):

   -21.3872 -18.5344 -12.6269  -9.1765  -8.8655  -6.6430  -6.0393  -4.8239

          k = 0.0714 0.3730 0.0000 ( 11486 PWs)   bands (ev):

   -21.0293 -18.3356 -12.3632 -10.1120  -8.3817  -7.7444  -6.6439  -4.5227

          k = 0.0714 0.4973 0.0000 ( 11496 PWs)   bands (ev):

   -20.5470 -18.1494 -12.0829 -10.8995  -8.9326  -7.7254  -7.3914  -4.2292

          k = 0.0714 0.6217 0.0000 ( 11524 PWs)   bands (ev):

   -19.9663 -18.0910 -12.0904 -11.0088 -10.0733  -8.2111  -6.9259  -4.1363

          k = 0.0714 0.7460 0.0000 ( 11550 PWs)   bands (ev):

   -19.3337 -18.2803 -12.1394 -11.0614 -10.5127  -9.0393  -6.0355  -4.4511

          k = 0.0714-0.8704 0.0000 ( 11568 PWs)   bands (ev):

   -18.7308 -18.7308 -11.7891 -11.7891  -9.8228  -9.8228  -5.1529  -5.1529

          k = 0.1429 0.0000 0.0000 ( 11526 PWs)   bands (ev):

   -21.6075 -18.9264 -12.5300  -9.1621  -8.0559  -5.8746  -5.5904  -5.4137

          k = 0.1429 0.1243 0.0000 ( 11511 PWs)   bands (ev):

   -21.5340 -18.8732 -12.4791  -9.0632  -8.3468  -6.1270  -5.7650  -5.3372

          k = 0.1429 0.2487 0.0000 ( 11481 PWs)   bands (ev):

   -21.3157 -18.7227 -12.3339  -9.0898  -8.7689  -6.9149  -6.1302  -5.1185

          k = 0.1429 0.3730 0.0000 ( 11499 PWs)   bands (ev):

   -20.9601 -18.5059 -12.1311  -9.9939  -8.2875  -8.0144  -6.6520  -4.7952

          k = 0.1429 0.4973 0.0000 ( 11519 PWs)   bands (ev):

   -20.4819 -18.2876 -12.0258 -10.6549  -9.2051  -7.6360  -7.3063  -4.4566

          k = 0.1429 0.6217 0.0000 ( 11515 PWs)   bands (ev):

   -19.9088 -18.1793 -12.2409 -10.6280 -10.3461  -8.0396  -6.8450  -4.2811

          k = 0.1429 0.7460 0.0000 ( 11523 PWs)   bands (ev):

   -19.2905 -18.3106 -12.3524 -11.3279 -10.1568  -8.7941  -5.9720  -4.4952

          k = 0.1429-0.8704 0.0000 ( 11540 PWs)   bands (ev):

   -18.7149 -18.7149 -12.0375 -12.0375  -9.5171  -9.5171  -5.1257  -5.1257

          k = 0.2143 0.0000 0.0000 ( 11492 PWs)   bands (ev):

   -21.4867 -19.2141 -12.0398  -8.9991  -7.9279  -6.3539  -5.8421  -5.8057

          k = 0.2143 0.1243 0.0000 ( 11509 PWs)   bands (ev):

   -21.4138 -19.1576 -11.9990  -8.9008  -8.2166  -6.5666  -5.9902  -5.7623

          k = 0.2143 0.2487 0.0000 ( 11512 PWs)   bands (ev):

   -21.1974 -18.9959 -11.8907  -8.9462  -8.6087  -7.2929  -6.3335  -5.5312

          k = 0.2143 0.3730 0.0000 ( 11518 PWs)   bands (ev):

   -20.8456 -18.7559 -11.7869  -9.7936  -8.3721  -8.1318  -6.7530  -5.1807

          k = 0.2143 0.4973 0.0000 ( 11532 PWs)   bands (ev):

   -20.3746 -18.4953 -11.9208 -10.2855  -9.5564  -7.4882  -7.2751  -4.7860

          k = 0.2143 0.6217 0.0000 ( 11527 PWs)   bands (ev):

   -19.8145 -18.3184 -12.3409 -10.6892 -10.1611  -7.8783  -6.7120  -4.5045

          k = 0.2143 0.7460 0.0000 ( 11526 PWs)   bands (ev):

   -19.2210 -18.3624 -12.5597 -11.6515  -9.7212  -8.5197  -5.8694  -4.5720

          k = 0.2143-0.8704 0.0000 ( 11544 PWs)   bands (ev):

   -18.6917 -18.6917 -12.3191 -12.3191  -9.1506  -9.1506  -5.0855  -5.0855

          k = 0.2857 0.0000 0.0000 ( 11504 PWs)   bands (ev):

   -21.3193 -19.5489 -11.4276  -8.7729  -7.7531  -6.9639  -6.3268  -6.0750

          k = 0.2857 0.1243 0.0000 ( 11519 PWs)   bands (ev):

   -21.2473 -19.4889 -11.4000  -8.6756  -8.0376  -7.1271  -6.2792  -6.2429

          k = 0.2857 0.2487 0.0000 ( 11499 PWs)   bands (ev):

   -21.0337 -19.3159 -11.3416  -8.7456  -8.3866  -7.7450  -6.6414  -5.9992

          k = 0.2857 0.3730 0.0000 ( 11507 PWs)   bands (ev):

   -20.6874 -19.0526 -11.3753  -9.5077  -8.7729  -7.9158  -6.9757  -5.6220

          k = 0.2857 0.4973 0.0000 ( 11535 PWs)   bands (ev):

   -20.2267 -18.7485 -11.7644  -9.9355  -9.8294  -7.3528  -7.2839  -5.1730

          k = 0.2857 0.6217 0.0000 ( 11545 PWs)   bands (ev):

   -19.6858 -18.4967 -12.3626 -11.0475  -9.6591  -7.7971  -6.5300  -4.7842

          k = 0.2857 0.7460 0.0000 ( 11540 PWs)   bands (ev):

   -19.1284 -18.4363 -12.7096 -11.9741  -9.2731  -8.2902  -5.7316  -4.6834

          k = 0.2857-0.8704 0.0000 ( 11568 PWs)   bands (ev):

   -18.6654 -18.6654 -12.5749 -12.5749  -8.7969  -8.7969  -5.0395  -5.0395

          k = 0.3571 0.0000 0.0000 ( 11516 PWs)   bands (ev):

   -21.1074 -19.8986 -10.7310  -8.4857  -7.6656  -7.5347  -6.8218  -6.3760

          k = 0.3571 0.1243 0.0000 ( 11501 PWs)   bands (ev):

   -21.0365 -19.8356 -10.7202  -8.3896  -7.8134  -7.7793  -6.7345  -6.6007

          k = 0.3571 0.2487 0.0000 ( 11497 PWs)   bands (ev):

   -20.8265 -19.6524 -10.7279  -8.4892  -8.2584  -8.1047  -7.0207  -6.4797

          k = 0.3571 0.3730 0.0000 ( 11521 PWs)   bands (ev):

   -20.4878 -19.3680 -10.9356  -9.1936  -9.1379  -7.6426  -7.3158  -6.0786

          k = 0.3571 0.4973 0.0000 ( 11553 PWs)   bands (ev):

   -20.0410 -19.0242 -11.5580 -10.3142  -9.3243  -7.5597  -7.0264  -5.5819

          k = 0.3571 0.6217 0.0000 ( 11553 PWs)   bands (ev):

   -19.5259 -18.7012 -12.3029 -11.3909  -9.1589  -7.8338  -6.3027  -5.0966

          k = 0.3571 0.7460 0.0000 ( 11549 PWs)   bands (ev):

   -19.0175 -18.5313 -12.7819 -12.2642  -8.8560  -8.1540  -5.5659  -4.8278

          k = 0.3571-0.8704 0.0000 ( 11562 PWs)   bands (ev):

   -18.6411 -18.6411 -12.7742 -12.7742  -8.5054  -8.5054  -4.9964  -4.9964

          k = 0.4286 0.0000 0.0000 ( 11494 PWs)   bands (ev):

   -20.8538 -20.2414  -9.9807  -8.4218  -8.1407  -7.2997  -7.2785  -6.6872

          k = 0.4286 0.1243 0.0000 ( 11493 PWs)   bands (ev):

   -20.7843 -20.1759  -9.9912  -8.4934  -8.0462  -7.5490  -7.2097  -6.9310

          k = 0.4286 0.2487 0.0000 ( 11507 PWs)   bands (ev):

   -20.5792 -19.9839 -10.0842  -8.8273  -8.1794  -7.7669  -7.4268  -6.9450

          k = 0.4286 0.3730 0.0000 ( 11530 PWs)   bands (ev):

   -20.2501 -19.6818 -10.4925  -9.6220  -8.6987  -7.7442  -7.3153  -6.5239

          k = 0.4286 0.4973 0.0000 ( 11546 PWs)   bands (ev):

   -19.8213 -19.3038 -11.3042 -10.6754  -8.8075  -7.8894  -6.7196  -5.9868

          k = 0.4286 0.6217 0.0000 ( 11567 PWs)   bands (ev):

   -19.3400 -18.9180 -12.1670 -11.7004  -8.6937  -8.0034  -6.0362  -5.4208

          k = 0.4286 0.7460 0.0000 ( 11568 PWs)   bands (ev):

   -18.8947 -18.6438 -12.7696 -12.5024  -8.5080  -8.1406  -5.3811  -4.9997

          k = 0.4286-0.8704 0.0000 ( 11530 PWs)   bands (ev):

   -18.6238 -18.6238 -12.9002 -12.9002  -8.3127  -8.3127  -4.9655  -4.9655

          k =-0.5000 0.0000 0.0000 ( 11468 PWs)   bands (ev):

   -20.5630 -20.5630  -9.2023  -9.2023  -7.7429  -7.7428  -6.9924  -6.9924

          k =-0.5000 0.1243 0.0000 ( 11482 PWs)   bands (ev):

   -20.4953 -20.4953  -9.2401  -9.2401  -7.6505  -7.6505  -7.2514  -7.2514

          k =-0.5000 0.2487 0.0000 ( 11526 PWs)   bands (ev):

   -20.2962 -20.2962  -9.4420  -9.4420  -7.8213  -7.8213  -7.3779  -7.3779

          k =-0.5000 0.3730 0.0000 ( 11514 PWs)   bands (ev):

   -19.9791 -19.9791 -10.0546 -10.0546  -8.2201  -8.2201  -6.9399  -6.9399

          k =-0.5000 0.4973 0.0000 ( 11546 PWs)   bands (ev):

   -19.5730 -19.5730 -11.0080 -11.0080  -8.3168  -8.3168  -6.3703  -6.3703

          k =-0.5000 0.6217 0.0000 ( 11568 PWs)   bands (ev):

   -19.1345 -19.1345 -11.9628 -11.9628  -8.2978  -8.2978  -5.7386  -5.7386

          k =-0.5000 0.7460 0.0000 ( 11568 PWs)   bands (ev):

   -18.7675 -18.7675 -12.6744 -12.6744  -8.2613  -8.2613  -5.1881  -5.1881

          k =-0.5000-0.8704 0.0000 ( 11536 PWs)   bands (ev):

   -18.6176 -18.6176 -12.9433 -12.9433  -8.2456  -8.2456  -4.9543  -4.9543

     highest occupied level (ev):    -4.0860

!    total energy              =     -54.86871494 Ry
     estimated scf accuracy    <          1.7E-12 Ry

     The total energy is the sum of the following terms:
     one-electron contribution =    -440.64430623 Ry
     hartree contribution      =     223.56801179 Ry
     xc contribution           =     -18.60896200 Ry
     ewald contribution        =     180.81654150 Ry

     convergence has been achieved in   7 iterations

     negative rho (up, down):  9.269E-06 0.000E+00

     Forces acting on atoms (cartesian axes, Ry/au):

     atom    1 type  2   force =     0.00000473    0.00000000    0.00000000
     atom    2 type  1   force =    -0.00000476    0.00000000    0.00000000
     atom    3 type  2   force =     0.00000501    0.00000000    0.00000000
     atom    4 type  1   force =    -0.00000497    0.00000000    0.00000000

     Total force =     0.000010     Total SCF correction =     0.000001
     SCF correction compared to forces is large: reduce conv_thr to get better values

     number of scf cycles    =   3
     number of bfgs steps    =   2

     energy   old            =     -54.8687121250 Ry
     energy   new            =     -54.8687149386 Ry

     CASE: energy  _new < energy  _old

     small trust_radius: resetting bfgs history

     new trust radius        =       0.0000050098 bohr
     new conv_thr            =            1.0E-12 Ry


ATOMIC_POSITIONS (crystal)
N             0.0001823653        0.0000000000        0.5000000000
B             0.3331761304        0.0000000000        0.5000000000
N             0.5001823806        0.5000000000        0.5000000000
B             0.8331761237        0.5000000000        0.5000000000



     Writing output data file ./wfc-out/pwscf.save/
     NEW-OLD atomic charge density approx. for the potential

     Check: negative core charge=   -0.000004

     negative rho (up, down):  9.269E-06 0.000E+00

     total cpu time spent up to now is       43.5 secs

     Self-consistent Calculation

     iteration #  1     ecut=    60.00 Ry     beta= 0.70
     Davidson diagonalization with overlap
     ethr =  1.00E-06,  avg # of iterations =  1.0

     Threshold (ethr) on eigenvalues was too large:
     Diagonalizing with lowered threshold

     Davidson diagonalization with overlap
     ethr =  2.65E-14,  avg # of iterations =  8.4

     negative rho (up, down):  9.269E-06 0.000E+00

     total cpu time spent up to now is       45.3 secs

     total energy              =     -54.86871494 Ry
     estimated scf accuracy    <          2.7E-11 Ry

     iteration #  2     ecut=    60.00 Ry     beta= 0.70
     Davidson diagonalization with overlap
     ethr =  1.68E-13,  avg # of iterations =  2.0

     negative rho (up, down):  9.269E-06 0.000E+00

     total cpu time spent up to now is       46.0 secs

     total energy              =     -54.86871494 Ry
     estimated scf accuracy    <          1.3E-12 Ry

     iteration #  3     ecut=    60.00 Ry     beta= 0.70
     Davidson diagonalization with overlap
     ethr =  1.00E-13,  avg # of iterations =  1.0

     negative rho (up, down):  9.269E-06 0.000E+00

     total cpu time spent up to now is       46.5 secs

     End of self-consistent calculation

          k = 0.0000 0.0000 0.0000 ( 11467 PWs)   bands (ev):

   -21.7047 -18.6536 -12.9658  -9.2929  -8.1594  -5.4587  -5.4014  -4.9912

          k = 0.0000 0.1243 0.0000 ( 11491 PWs)   bands (ev):

   -21.6309 -18.6043 -12.9065  -9.1937  -8.4522  -5.7147  -5.6048  -4.9193

          k = 0.0000 0.2487 0.0000 ( 11485 PWs)   bands (ev):

   -21.4110 -18.4665 -12.7301  -9.2055  -8.8977  -6.5365  -6.0221  -4.7149

          k = 0.0000 0.3730 0.0000 ( 11488 PWs)   bands (ev):

   -21.0525 -18.2747 -12.4457 -10.1506  -8.4133  -7.6374  -6.6584  -4.4226

          k = 0.0000 0.4973 0.0000 ( 11496 PWs)   bands (ev):

   -20.5687 -18.1009 -12.1006 -10.9860  -8.8230  -7.7554  -7.4393  -4.1475

          k = 0.0000 0.6217 0.0000 ( 11534 PWs)   bands (ev):

   -19.9857 -18.0608 -11.9973 -11.1805  -9.9621  -8.2901  -6.9530  -4.0860

          k = 0.0000 0.7460 0.0000 ( 11550 PWs)   bands (ev):

   -19.3481 -18.2705 -12.0361 -10.9503 -10.6646  -9.1445  -6.0568  -4.4368

          k = 0.0000-0.8704 0.0000 ( 11592 PWs)   bands (ev):

   -18.7364 -18.7364 -11.6808 -11.6808  -9.9512  -9.9512  -5.1627  -5.1627

          k = 0.0714 0.0000 0.0000 ( 11521 PWs)   bands (ev):

   -21.6805 -18.7263 -12.8527  -9.2602  -8.1333  -5.5665  -5.4504  -5.1057

          k = 0.0714 0.1243 0.0000 ( 11506 PWs)   bands (ev):

   -21.6066 -18.6759 -12.7954  -9.1610  -8.4259  -5.8314  -5.6348  -5.0325

          k = 0.0714 0.2487 0.0000 ( 11487 PWs)   bands (ev):

   -21.3872 -18.5344 -12.6269  -9.1765  -8.8655  -6.6429  -6.0393  -4.8239

          k = 0.0714 0.3730 0.0000 ( 11486 PWs)   bands (ev):

   -21.0293 -18.3356 -12.3632 -10.1119  -8.3817  -7.7444  -6.6439  -4.5227

          k = 0.0714 0.4973 0.0000 ( 11496 PWs)   bands (ev):

   -20.5470 -18.1494 -12.0830 -10.8995  -8.9326  -7.7254  -7.3914  -4.2292

          k = 0.0714 0.6217 0.0000 ( 11524 PWs)   bands (ev):

   -19.9663 -18.0910 -12.0904 -11.0088 -10.0733  -8.2111  -6.9259  -4.1363

          k = 0.0714 0.7460 0.0000 ( 11550 PWs)   bands (ev):

   -19.3337 -18.2803 -12.1394 -11.0614 -10.5127  -9.0394  -6.0355  -4.4511

          k = 0.0714-0.8704 0.0000 ( 11568 PWs)   bands (ev):

   -18.7308 -18.7308 -11.7891 -11.7891  -9.8228  -9.8228  -5.1529  -5.1529

          k = 0.1429 0.0000 0.0000 ( 11526 PWs)   bands (ev):

   -21.6075 -18.9264 -12.5300  -9.1621  -8.0559  -5.8746  -5.5904  -5.4137

          k = 0.1429 0.1243 0.0000 ( 11511 PWs)   bands (ev):

   -21.5340 -18.8732 -12.4791  -9.0632  -8.3467  -6.1270  -5.7650  -5.3372

          k = 0.1429 0.2487 0.0000 ( 11481 PWs)   bands (ev):

   -21.3157 -18.7227 -12.3339  -9.0898  -8.7689  -6.9149  -6.1302  -5.1185

          k = 0.1429 0.3730 0.0000 ( 11499 PWs)   bands (ev):

   -20.9601 -18.5059 -12.1311  -9.9939  -8.2875  -8.0143  -6.6521  -4.7952

          k = 0.1429 0.4973 0.0000 ( 11519 PWs)   bands (ev):

   -20.4819 -18.2876 -12.0259 -10.6549  -9.2051  -7.6360  -7.3063  -4.4566

          k = 0.1429 0.6217 0.0000 ( 11515 PWs)   bands (ev):

   -19.9088 -18.1793 -12.2409 -10.6280 -10.3461  -8.0396  -6.8450  -4.2811

          k = 0.1429 0.7460 0.0000 ( 11523 PWs)   bands (ev):

   -19.2905 -18.3105 -12.3524 -11.3279 -10.1568  -8.7941  -5.9720  -4.4952

          k = 0.1429-0.8704 0.0000 ( 11540 PWs)   bands (ev):

   -18.7149 -18.7149 -12.0375 -12.0375  -9.5171  -9.5171  -5.1257  -5.1257

          k = 0.2143 0.0000 0.0000 ( 11492 PWs)   bands (ev):

   -21.4867 -19.2141 -12.0399  -8.9991  -7.9279  -6.3539  -5.8421  -5.8056

          k = 0.2143 0.1243 0.0000 ( 11509 PWs)   bands (ev):

   -21.4138 -19.1576 -11.9990  -8.9008  -8.2166  -6.5666  -5.9902  -5.7623

          k = 0.2143 0.2487 0.0000 ( 11512 PWs)   bands (ev):

   -21.1974 -18.9959 -11.8907  -8.9462  -8.6087  -7.2929  -6.3335  -5.5312

          k = 0.2143 0.3730 0.0000 ( 11518 PWs)   bands (ev):

   -20.8456 -18.7559 -11.7869  -9.7936  -8.3721  -8.1318  -6.7530  -5.1807

          k = 0.2143 0.4973 0.0000 ( 11532 PWs)   bands (ev):

   -20.3746 -18.4953 -11.9208 -10.2854  -9.5564  -7.4882  -7.2751  -4.7860

          k = 0.2143 0.6217 0.0000 ( 11527 PWs)   bands (ev):

   -19.8145 -18.3184 -12.3409 -10.6892 -10.1611  -7.8783  -6.7120  -4.5045

          k = 0.2143 0.7460 0.0000 ( 11526 PWs)   bands (ev):

   -19.2210 -18.3624 -12.5597 -11.6515  -9.7212  -8.5197  -5.8694  -4.5720

          k = 0.2143-0.8704 0.0000 ( 11544 PWs)   bands (ev):

   -18.6917 -18.6917 -12.3191 -12.3191  -9.1506  -9.1506  -5.0855  -5.0855

          k = 0.2857 0.0000 0.0000 ( 11504 PWs)   bands (ev):

   -21.3193 -19.5489 -11.4276  -8.7729  -7.7531  -6.9639  -6.3268  -6.0750

          k = 0.2857 0.1243 0.0000 ( 11519 PWs)   bands (ev):

   -21.2473 -19.4889 -11.4000  -8.6756  -8.0375  -7.1271  -6.2791  -6.2429

          k = 0.2857 0.2487 0.0000 ( 11499 PWs)   bands (ev):

   -21.0337 -19.3159 -11.3416  -8.7455  -8.3866  -7.7450  -6.6414  -5.9992

          k = 0.2857 0.3730 0.0000 ( 11507 PWs)   bands (ev):

   -20.6874 -19.0526 -11.3753  -9.5076  -8.7729  -7.9158  -6.9758  -5.6220

          k = 0.2857 0.4973 0.0000 ( 11535 PWs)   bands (ev):

   -20.2267 -18.7485 -11.7644  -9.9355  -9.8294  -7.3528  -7.2839  -5.1730

          k = 0.2857 0.6217 0.0000 ( 11545 PWs)   bands (ev):

   -19.6858 -18.4967 -12.3625 -11.0475  -9.6591  -7.7971  -6.5300  -4.7842

          k = 0.2857 0.7460 0.0000 ( 11540 PWs)   bands (ev):

   -19.1284 -18.4363 -12.7096 -11.9741  -9.2732  -8.2902  -5.7316  -4.6834

          k = 0.2857-0.8704 0.0000 ( 11568 PWs)   bands (ev):

   -18.6654 -18.6654 -12.5749 -12.5749  -8.7969  -8.7969  -5.0395  -5.0395

          k = 0.3571 0.0000 0.0000 ( 11516 PWs)   bands (ev):

   -21.1074 -19.8986 -10.7310  -8.4857  -7.6657  -7.5347  -6.8218  -6.3760

          k = 0.3571 0.1243 0.0000 ( 11501 PWs)   bands (ev):

   -21.0365 -19.8356 -10.7202  -8.3896  -7.8133  -7.7794  -6.7345  -6.6006

          k = 0.3571 0.2487 0.0000 ( 11497 PWs)   bands (ev):

   -20.8265 -19.6524 -10.7279  -8.4891  -8.2584  -8.1047  -7.0207  -6.4797

          k = 0.3571 0.3730 0.0000 ( 11521 PWs)   bands (ev):

   -20.4878 -19.3680 -10.9356  -9.1936  -9.1379  -7.6426  -7.3158  -6.0786

          k = 0.3571 0.4973 0.0000 ( 11553 PWs)   bands (ev):

   -20.0410 -19.0242 -11.5580 -10.3142  -9.3243  -7.5598  -7.0264  -5.5819

          k = 0.3571 0.6217 0.0000 ( 11553 PWs)   bands (ev):

   -19.5259 -18.7012 -12.3029 -11.3909  -9.1589  -7.8338  -6.3027  -5.0966

          k = 0.3571 0.7460 0.0000 ( 11549 PWs)   bands (ev):

   -19.0175 -18.5313 -12.7819 -12.2642  -8.8560  -8.1540  -5.5659  -4.8278

          k = 0.3571-0.8704 0.0000 ( 11562 PWs)   bands (ev):

   -18.6411 -18.6411 -12.7742 -12.7742  -8.5054  -8.5054  -4.9964  -4.9964

          k = 0.4286 0.0000 0.0000 ( 11494 PWs)   bands (ev):

   -20.8538 -20.2414  -9.9807  -8.4218  -8.1407  -7.2997  -7.2785  -6.6872

          k = 0.4286 0.1243 0.0000 ( 11493 PWs)   bands (ev):

   -20.7843 -20.1759  -9.9913  -8.4934  -8.0462  -7.5490  -7.2097  -6.9309

          k = 0.4286 0.2487 0.0000 ( 11507 PWs)   bands (ev):

   -20.5792 -19.9839 -10.0842  -8.8274  -8.1794  -7.7669  -7.4268  -6.9450

          k = 0.4286 0.3730 0.0000 ( 11530 PWs)   bands (ev):

   -20.2501 -19.6818 -10.4925  -9.6220  -8.6987  -7.7442  -7.3153  -6.5239

          k = 0.4286 0.4973 0.0000 ( 11546 PWs)   bands (ev):

   -19.8213 -19.3038 -11.3042 -10.6754  -8.8075  -7.8894  -6.7196  -5.9868

          k = 0.4286 0.6217 0.0000 ( 11567 PWs)   bands (ev):

   -19.3400 -18.9180 -12.1670 -11.7004  -8.6937  -8.0034  -6.0362  -5.4208

          k = 0.4286 0.7460 0.0000 ( 11568 PWs)   bands (ev):

   -18.8947 -18.6438 -12.7696 -12.5024  -8.5080  -8.1406  -5.3811  -4.9997

          k = 0.4286-0.8704 0.0000 ( 11530 PWs)   bands (ev):

   -18.6238 -18.6238 -12.9002 -12.9002  -8.3127  -8.3127  -4.9655  -4.9655

          k =-0.5000 0.0000 0.0000 ( 11468 PWs)   bands (ev):

   -20.5630 -20.5630  -9.2023  -9.2023  -7.7428  -7.7428  -6.9923  -6.9923

          k =-0.5000 0.1243 0.0000 ( 11482 PWs)   bands (ev):

   -20.4953 -20.4953  -9.2402  -9.2402  -7.6505  -7.6505  -7.2513  -7.2513

          k =-0.5000 0.2487 0.0000 ( 11526 PWs)   bands (ev):

   -20.2962 -20.2962  -9.4420  -9.4420  -7.8213  -7.8213  -7.3779  -7.3779

          k =-0.5000 0.3730 0.0000 ( 11514 PWs)   bands (ev):

   -19.9790 -19.9790 -10.0546 -10.0546  -8.2200  -8.2200  -6.9399  -6.9399

          k =-0.5000 0.4973 0.0000 ( 11546 PWs)   bands (ev):

   -19.5730 -19.5730 -11.0080 -11.0080  -8.3168  -8.3168  -6.3703  -6.3703

          k =-0.5000 0.6217 0.0000 ( 11568 PWs)   bands (ev):

   -19.1345 -19.1345 -11.9628 -11.9628  -8.2978  -8.2978  -5.7386  -5.7386

          k =-0.5000 0.7460 0.0000 ( 11568 PWs)   bands (ev):

   -18.7675 -18.7675 -12.6744 -12.6744  -8.2613  -8.2613  -5.1881  -5.1881

          k =-0.5000-0.8704 0.0000 ( 11536 PWs)   bands (ev):

   -18.6176 -18.6176 -12.9433 -12.9433  -8.2456  -8.2456  -4.9543  -4.9543

     highest occupied level (ev):    -4.0860

!    total energy              =     -54.86871494 Ry
     estimated scf accuracy    <          5.9E-14 Ry

     The total energy is the sum of the following terms:
     one-electron contribution =    -440.64430140 Ry
     hartree contribution      =     223.56800654 Ry
     xc contribution           =     -18.60896100 Ry
     ewald contribution        =     180.81654092 Ry

     convergence has been achieved in   3 iterations

     negative rho (up, down):  9.269E-06 0.000E+00

     Forces acting on atoms (cartesian axes, Ry/au):

     atom    1 type  2   force =    -0.00000342    0.00000000    0.00000000
     atom    2 type  1   force =     0.00000352    0.00000000    0.00000000
     atom    3 type  2   force =    -0.00000371    0.00000000    0.00000000
     atom    4 type  1   force =     0.00000361    0.00000000    0.00000000

     Total force =     0.000007     Total SCF correction =     0.000000

     bfgs converged in   4 scf cycles and   3 bfgs steps
     (criteria: energy <  1.0E-06 Ry, force <  1.0E-04 Ry/Bohr)

     End of BFGS Geometry Optimization

     Final energy   =     -54.8687149386 Ry

     File ./wfc-out/pwscf.bfgs deleted, as requested
Begin final coordinates

ATOMIC_POSITIONS (crystal)
N             0.0001823653        0.0000000000        0.5000000000
B             0.3331761304        0.0000000000        0.5000000000
N             0.5001823806        0.5000000000        0.5000000000
B             0.8331761237        0.5000000000        0.5000000000
End final coordinates



     Writing output data file ./wfc-out/pwscf.save/
 
     init_run     :      0.65s CPU      0.83s WALL (       1 calls)
     electrons    :     25.02s CPU     35.55s WALL (       4 calls)
     update_pot   :      0.58s CPU      0.60s WALL (       3 calls)
     forces       :      0.69s CPU      0.70s WALL (       4 calls)

     Called by init_run:
     wfcinit      :      0.30s CPU      0.39s WALL (       1 calls)
     potinit      :      0.07s CPU      0.09s WALL (       1 calls)
     hinit0       :      0.15s CPU      0.19s WALL (       1 calls)

     Called by electrons:
     c_bands      :     20.72s CPU     28.87s WALL (      45 calls)
     sum_band     :      3.27s CPU      3.40s WALL (      45 calls)
     v_of_rho     :      0.55s CPU      0.58s WALL (      46 calls)
     newd         :      0.34s CPU      0.36s WALL (      46 calls)
     mix_rho      :      0.08s CPU      0.09s WALL (      45 calls)

     Called by c_bands:
     init_us_2    :      0.61s CPU      0.66s WALL (    6080 calls)
     cegterg      :     19.07s CPU     20.25s WALL (    2880 calls)

     Called by *egterg:
     cdiaghg      :      1.14s CPU      1.43s WALL (   12519 calls)
     h_psi        :     16.00s CPU     16.86s WALL (   12967 calls)
     s_psi        :      0.29s CPU      0.30s WALL (   12967 calls)
     g_psi        :      0.09s CPU      0.10s WALL (   10023 calls)

     Called by h_psi:
     h_psi:calbec :      0.79s CPU      0.86s WALL (   12967 calls)
     vloc_psi     :     14.77s CPU     15.54s WALL (   12967 calls)
     add_vuspsi   :      0.31s CPU      0.33s WALL (   12967 calls)

     General routines
     calbec       :      0.99s CPU      1.07s WALL (   16871 calls)
     fft          :      0.38s CPU      0.42s WALL (     640 calls)
     ffts         :      0.02s CPU      0.03s WALL (      91 calls)
     fftw         :     15.47s CPU     16.26s WALL (  182424 calls)
     interpolate  :      0.04s CPU      0.05s WALL (      46 calls)
 
     Parallel routines
     fft_scatt_xy :      1.89s CPU      1.98s WALL (  183155 calls)
     fft_scatt_yz :      6.55s CPU      6.88s WALL (  183155 calls)
 
     PWSCF        :     27.33s CPU   1m16.38s WALL

 
   This run was terminated on:  17:29: 8  12Dec2022            

=------------------------------------------------------------------------------=
   JOB DONE.
=------------------------------------------------------------------------------=
