
     Program PWSCF v.6.6 starts on  8May2023 at  6:37:32 

     This program is part of the open-source Quantum ESPRESSO suite
     for quantum simulation of materials; please cite
         "P. Giannozzi et al., J. Phys.:Condens. Matter 21 395502 (2009);
         "P. Giannozzi et al., J. Phys.:Condens. Matter 29 465901 (2017);
          URL http://www.quantum-espresso.org", 
     in publications or presentations arising from this work. More details at
     http://www.quantum-espresso.org/quote

     Parallel version (MPI), running on    24 processors

     MPI processes distributed on     1 nodes
     R & G space division:  proc/nbgrp/npool/nimage =      24
     Fft bands division:     nmany     =       1
     Reading input from INCAR-nscf.pw

     Current dimensions of program PWSCF are:
     Max number of different atomic species (ntypx) = 10
     Max number of k-points (npk) =  40000
     Max angular momentum in pseudopotentials (lmaxx) =  3

     Atomic positions and unit cell read from directory:
     ./wfc-out/pwscf.save/
     Atomic positions from file used, from input discarded
 

     Subspace diagonalization in iterative solution of the eigenvalue problem:
     a serial algorithm will be used

 
     Parallelization info
     --------------------
     sticks:   dense  smooth     PW     G-vecs:    dense   smooth      PW
     Min         133      71     21                26255    10221    1659
     Max         134      72     22                26270    10233    1679
     Sum        3211    1709    505               630313   245443   40081
 


     bravais-lattice index     =            0
     lattice parameter (alat)  =       8.2935  a.u.
     unit-cell volume          =    2539.7300 (a.u.)^3
     number of atoms/cell      =            4
     number of atomic types    =            2
     number of electrons       =        40.00
     number of Kohn-Sham states=           20
     kinetic-energy cutoff     =      80.0000  Ry
     charge density cutoff     =     600.0000  Ry
     Exchange-correlation= SLA  PW   PBE  PBE
                           (   1   4   3   4   0   0   0)

     celldm(1)=   8.293538  celldm(2)=   0.000000  celldm(3)=   0.000000
     celldm(4)=   0.000000  celldm(5)=   0.000000  celldm(6)=   0.000000

     crystal axes: (cart. coord. in units of alat)
               a(1) = (   1.000000   0.000000   0.000000 )  
               a(2) = (   0.000000   0.976965   0.000000 )  
               a(3) = (   0.000000   0.000000   4.557105 )  

     reciprocal axes: (cart. coord. in units 2 pi/alat)
               b(1) = (  1.000000  0.000000  0.000000 )  
               b(2) = (  0.000000  1.023578  0.000000 )  
               b(3) = (  0.000000  0.000000  0.219438 )  


     PseudoPot. # 1 for Sn read from file:
     ./Sn_pbe_v1.uspp.F.UPF
     MD5 check sum: 4cf58ce39ec5d5d420df3dd08604eb00
     Pseudo is Ultrasoft + core correction, Zval = 14.0
     Generated by new atomic code, or converted to UPF format
     Using radial grid of  891 points,  6 beta functions with: 
                l(1) =   0
                l(2) =   0
                l(3) =   1
                l(4) =   1
                l(5) =   2
                l(6) =   2
     Q(r) pseudized with  6 coefficients,  rinner =    1.200   1.200   1.200
                                                       1.200   1.200

     PseudoPot. # 2 for Se read from file:
     ./Se_pbe_v1.uspp.F.UPF
     MD5 check sum: 1b3568f3a8ae88f9a2a0ad0698632c85
     Pseudo is Ultrasoft + core correction, Zval =  6.0
     Generated by new atomic code, or converted to UPF format
     Using radial grid of  877 points,  6 beta functions with: 
                l(1) =   0
                l(2) =   0
                l(3) =   1
                l(4) =   1
                l(5) =   2
                l(6) =   2
     Q(r) pseudized with  8 coefficients,  rinner =    1.300   1.300   1.300
                                                       1.300   1.300

     atomic species   valence    mass     pseudopotential
        Sn            14.00   118.71000     Sn( 1.00)
        Se             6.00    78.96000     Se( 1.00)

     No symmetry found



   Cartesian axes

     site n.     atom                  positions (alat units)
         1           Sn  tau(   1) = (   0.5823674   0.7327237   0.6586449  )
         2           Sn  tau(   2) = (   0.0823675   0.2442412   0.0301372  )
         3           Se  tau(   3) = (   0.0317368   0.2442412   0.6489759  )
         4           Se  tau(   4) = (   0.5317362   0.7327237   0.0398094  )

     number of k points=   120

     Number of k-points >= 100: set verbosity='high' to print them.

     Dense  grid:   630313 G-vectors     FFT dimensions: (  72,  64, 300)

     Smooth grid:   245443 G-vectors     FFT dimensions: (  48,  48, 216)

     Estimated max dynamical RAM per process >      89.53 MB

     Estimated total dynamical RAM >       2.10 GB

     The potential is recalculated from file :
     ./wfc-out/pwscf.save/charge-density


     negative rho (up, down):  2.806E-05 0.000E+00
     Starting wfcs are   26 randomized atomic wfcs

     Band Structure Calculation
     Davidson diagonalization with overlap

     ethr =  2.50E-13,  avg # of iterations = 57.9

     total cpu time spent up to now is      113.5 secs

     End of band structure calculation

     Number of k-points >= 100: set verbosity='high' to print the bands.

     highest occupied level (ev):    -0.8654



               ==================================================
                            POLARIZATION CALCULATION
                         !!! NOT THOROUGHLY TESTED !!!
               --------------------------------------------------


                     K-POINTS STRINGS USED IN CALCULATIONS
                     ~~~~~~~~~~~~~~~~~~~~~~~~~~~~~~~~~~~~~

       G-vector along string (2 pi/a):  1.00000  0.00000  0.00000
       Modulus of the vector (1/bohr):  0.75760
       Number of k-points per string:  15
       Number of different strings  :   8


                               IONIC POLARIZATION
                               ~~~~~~~~~~~~~~~~~~

  ============================================================================
    Ion    Species    Charge              Position                Phase
  ----------------------------------------------------------------------------
     1        Sn      14.000       0.5824  0.7327  0.6586     0.15314 (mod 2)
     2        Sn      14.000       0.0824  0.2442  0.0301    -0.84685 (mod 2)
     3        Se       6.000       0.0317  0.2442  0.6490     0.19042 (mod 2)
     4        Se       6.000       0.5317  0.7327  0.0398    -0.80958 (mod 2)
  ----------------------------------------------------------------------------
                                               IONIC PHASE:   0.68713 (mod 2)
  ============================================================================


                            ELECTRONIC POLARIZATION
                            ~~~~~~~~~~~~~~~~~~~~~~~

  ============================================================================
    String     Weight      First k-point in string         Phase
  ----------------------------------------------------------------------------
       1      0.066667      0.0000  0.0000  0.0000    -0.46472
       2      0.133333      0.0000  0.0682  0.0000    -0.32865
       3      0.133333      0.0000  0.1365  0.0000    -0.22438
       4      0.133333      0.0000  0.2047  0.0000    -0.16157
       5      0.133333      0.0000  0.2730  0.0000    -0.10690
       6      0.133333      0.0000  0.3412  0.0000    -0.06259
       7      0.133333      0.0000  0.4094  0.0000    -0.03897
       8      0.133333      0.0000  0.4777  0.0000    -0.03153
  ----------------------------------------------------------------------------
                                          ELECTRONIC PHASE:  -0.15826
  ============================================================================


                               SUMMARY OF PHASES
                               ~~~~~~~~~~~~~~~~~

                          Ionic Phase:  0.68713
                     Electronic Phase: -0.15826
                          TOTAL PHASE:  0.52887 MOD_TOT: 2


                             VALUES OF POLARIZATION
                             ~~~~~~~~~~~~~~~~~~~~~~

        The calculation of phases done along the direction of vector 1
        of the reciprocal lattice gives the following contribution to
        the polarization vector (in different units, and being Omega
        the volume of the unit cell):

           P =   4.3861845  (mod  16.5870765)  (e/Omega).bohr

           P =   0.0017270  (mod   0.0065310)  e/bohr^2

           P =   0.0987372  (mod   0.3733908)  C/m^2

        The polarization direction is:  ( 1.00000 , 0.00000 , 0.00000 )


               ==================================================



     Writing output data file ./wfc-out/pwscf.save/
 
     init_run     :      0.83s CPU      1.10s WALL (       1 calls)
     electrons    :    115.74s CPU    119.63s WALL (       1 calls)

     Called by init_run:
     wfcinit      :      0.00s CPU      0.01s WALL (       1 calls)
     potinit      :      0.06s CPU      0.09s WALL (       1 calls)
     hinit0       :      0.28s CPU      0.29s WALL (       1 calls)

     Called by electrons:
     c_bands      :    108.35s CPU    112.01s WALL (       1 calls)
     v_of_rho     :      0.04s CPU      0.04s WALL (       1 calls)
     newd         :      0.16s CPU      0.31s WALL (       1 calls)

     Called by c_bands:
     init_us_2    :      0.16s CPU      0.23s WALL (     344 calls)
     cegterg      :    100.38s CPU    103.72s WALL (     369 calls)

     Called by *egterg:
     cdiaghg      :      5.04s CPU      5.14s WALL (    7064 calls)
     h_psi        :     75.76s CPU     78.62s WALL (    7433 calls)
     s_psi        :      3.48s CPU      3.57s WALL (    7433 calls)
     g_psi        :      0.56s CPU      0.57s WALL (    6944 calls)

     Called by h_psi:
     h_psi:calbec :      5.24s CPU      5.42s WALL (    7433 calls)
     vloc_psi     :     65.55s CPU     68.13s WALL (    7433 calls)
     add_vuspsi   :      4.36s CPU      4.46s WALL (    7433 calls)

     General routines
     calbec       :      6.00s CPU      6.22s WALL (    7657 calls)
     fft          :      0.04s CPU      0.04s WALL (      13 calls)
     ffts         :      0.00s CPU      0.00s WALL (       1 calls)
     fftw         :     59.08s CPU     61.41s WALL (  275806 calls)
     interpolate  :      0.00s CPU      0.00s WALL (       1 calls)
     davcio       :      0.09s CPU      0.33s WALL (     464 calls)
 
     Parallel routines
     fft_scatt_xy :      7.59s CPU      7.91s WALL (  275820 calls)
     fft_scatt_yz :     34.64s CPU     35.99s WALL (  275820 calls)
 
     PWSCF        :   2m 6.34s CPU   3m25.61s WALL

 
   This run was terminated on:   6:40:57   8May2023            

=------------------------------------------------------------------------------=
   JOB DONE.
=------------------------------------------------------------------------------=
