 vasp.5.4.4.18Apr17-6-g9f103f2a35 (build Sep 16 2021 14:01:42) gamma-only       
  
 executed on             LinuxIFC date 2022.08.15  15:13:20
 running on    4 total cores
 distrk:  each k-point on    4 cores,    1 groups
 distr:  one band on NCORES_PER_BAND=   1 cores,    4 groups


--------------------------------------------------------------------------------------------------------


 INCAR:
 POTCAR:    PAW_PBE Si 05Jan2001                  
 POTCAR:    PAW_PBE Si 05Jan2001                  
   VRHFIN =Si: s2p2                                                             
   LEXCH  = PE                                                                  
   EATOM  =   103.0669 eV,    7.5752 Ry                                         
                                                                                
   TITEL  = PAW_PBE Si 05Jan2001                                                
   LULTRA =        F    use ultrasoft PP ?                                      
   IUNSCR =        1    unscreen: 0-lin 1-nonlin 2-no                           
   RPACOR =    1.500    partial core radius                                     
   POMASS =   28.085; ZVAL   =    4.000    mass and valenz                      
   RCORE  =    1.900    outmost cutoff radius                                   
   RWIGS  =    2.480; RWIGS  =    1.312    wigner-seitz radius (au A)           
   ENMAX  =  245.345; ENMIN  =  184.009 eV                                      
   ICORE  =        2    local potential                                         
   LCOR   =        T    correct aug charges                                     
   LPAW   =        T    paw PP                                                  
   EAUG   =  322.069                                                            
   DEXC   =    0.000                                                            
   RMAX   =    1.950    core radius for proj-oper                               
   RAUG   =    1.300    factor for augmentation sphere                          
   RDEP   =    1.993    radius for radial grids                                 
   RDEPT  =    1.837    core radius for aug-charge                              
                                                                                
   Atomic configuration                                                         
    6 entries                                                                   
     n  l   j            E        occ.                                          
     1  0  0.50     -1785.8828   2.0000                                         
     2  0  0.50      -139.4969   2.0000                                         
     2  1  1.50       -95.5546   6.0000                                         
     3  0  0.50       -10.8127   2.0000                                         
     3  1  0.50        -4.0811   2.0000                                         
     3  2  1.50        -4.0817   0.0000                                         
   Description                                                                  
     l       E           TYP  RCUT    TYP  RCUT                                 
     0    -10.8127223     23  1.900                                             
     0     -7.6451159     23  1.900                                             
     1     -4.0811372     23  1.900                                             
     1      2.4879257     23  1.900                                             
     2     -4.0817478      7  1.900                                             
  local pseudopotential read in
  partial core-charges read in
  partial kinetic energy density read in
  atomic valenz-charges read in
  non local Contribution for L=           0  read in
    real space projection operators read in
  non local Contribution for L=           0  read in
    real space projection operators read in
  non local Contribution for L=           1  read in
    real space projection operators read in
  non local Contribution for L=           1  read in
    real space projection operators read in
    PAW grid and wavefunctions read in
 
   number of l-projection  operators is LMAX  =           4
   number of lm-projection operators is LMMAX =           8
 
 Optimization of the real space projectors (new method)

 maximal supplied QI-value         = 19.84
 optimisation between [QCUT,QGAM] = [  6.94, 13.89] = [ 13.51, 54.02] Ry 
 Optimized for a Real-space Cutoff    1.43 Angstroem

   l    n(q)    QCUT    max X(q) W(low)/X(q) W(high)/X(q)  e(spline) 
   0      6     6.945   159.560    0.19E-02    0.13E-02    0.67E-07
   0      6     6.945   115.863    0.19E-02    0.13E-02    0.66E-07
   1      5     6.945    87.792    0.57E-03    0.17E-02    0.11E-06
   1      5     6.945    48.448    0.56E-03    0.16E-02    0.11E-06
  PAW_PBE Si 05Jan2001                  :
 energy of atom  1       EATOM= -103.0669
 kinetic energy error for atom=    0.0129 (will be added to EATOM!!)
 
 
 POSCAR: Si_2x2x2                                
  positions in direct lattice
  velocities in cartesian coordinates
 
  Using predictor-coordinates on the file
 exchange correlation table for  LEXCH =        8
   RHO(1)=    0.500       N(1)  =     2000
   RHO(2)=  100.500       N(2)  =     4000
 


--------------------------------------------------------------------------------------------------------


 ion  position               nearest neighbor table
   1  0.245  0.285  0.983-  58 2.22  41 2.33  34 2.43  49 2.59  31 2.99
   2  0.212  0.216  0.434-  33 2.38  42 2.42  57 2.51  26 2.97  50 3.12  21 3.14
   3  0.224  0.681  0.874-  24 2.20  36 2.25  43 2.63  51 2.70  58 2.75  19 2.93  10 3.07
   4  0.229  0.713  0.484-  52 2.24  35 2.27  59 2.34  44 2.59  23 2.90  28 3.02  11 3.09
   5  0.807  0.255  0.049-  14 2.19  38 2.35  53 2.40  62 2.56  45 2.75  17 2.78
   6  0.769  0.255  0.467-  54 2.49  37 2.68  46 2.69  61 2.83
   7  0.679  0.809  0.026-  40 2.47  64 2.51  47 2.53  29 2.64  55 2.84
   8  0.776  0.761  0.468-  63 2.30  13 2.48  56 2.56  47 2.58  39 2.69
   9  0.469  0.949  0.258-  21 2.40  59 2.52  29 2.63  23 2.70  47 2.80  37 2.99
  10  0.215  0.943  0.774-  44 2.33  60 2.41  50 2.69  34 2.72   3 3.07
  11  0.235  0.529  0.269-  57 2.23  35 2.32  51 2.45  41 2.68  23 2.75   4 3.09
  12  0.221  0.446  0.668-  58 2.14  52 2.37  42 2.42  36 2.59  28 2.90
  13  0.615  0.894  0.557-  30 2.17   8 2.48  37 2.52  59 2.73  54 2.89  48 2.95
  14  0.865  0.129  0.906-   5 2.19  18 2.39  48 2.52  38 2.61  64 2.64  34 2.67  62 2.70  25 2.83

  15  0.757  0.557  0.204-  45 2.27  39 2.50  61 2.61  55 2.65  47 3.06
  16  0.748  0.499  0.752-  56 2.28  62 2.28  46 2.28  40 2.41  27 2.96
  17  0.003  0.282  0.209-  33 2.35  53 2.42  41 2.50  61 2.52   5 2.78  25 2.92
  18  0.955  0.188  0.716-  14 2.39  42 2.56  26 2.62  54 2.66  62 2.67  34 2.71
  19  0.122  0.791  0.096-  43 2.76  55 2.79  35 2.85   3 2.93  25 2.99
  20  0.920  0.804  0.720-  44 2.20  56 2.69  36 2.72  64 2.83  48 2.89
  21  0.425  0.164  0.248-  49 2.28   9 2.40  57 2.73  37 2.94   2 3.14
  22  0.507  0.206  0.780-  30 2.23  38 2.41  46 2.74
  23  0.407  0.712  0.288-  59 2.23  39 2.38   9 2.70  11 2.75   4 2.90  51 2.91
  24  0.412  0.682  0.804-   3 2.20  60 2.39  52 2.56  40 2.60  43 2.84  58 3.08
  25  0.002  0.036  0.106-  53 2.32  33 2.47  64 2.58  34 2.74  14 2.83  17 2.92  19 2.99
  26  0.042  0.039  0.550-  44 2.36  54 2.38  63 2.43  18 2.62  33 2.76   2 2.97  42 3.15
  27  0.966  0.534  0.907-  62 2.13  36 2.23  55 2.29  41 2.76  16 2.96
  28  0.032  0.520  0.497-  42 2.29  61 2.31  56 2.35  35 2.61  12 2.90  36 2.99   4 3.02
  29  0.517  0.988  0.026-  38 2.46  43 2.47   9 2.63   7 2.64  60 2.87  49 2.97
  30  0.553  0.032  0.686-  13 2.17  22 2.23  60 2.32  48 2.32  37 2.62  50 2.62
  31  0.462  0.449  0.006-  51 2.15  45 2.17  49 2.25  58 2.58   1 2.99
  32  0.475  0.474  0.494-  52 2.14  57 2.35  46 2.59  39 2.72
  33  0.073  0.105  0.308-  17 2.35   2 2.38  25 2.47  53 2.65  26 2.76  63 3.01
  34  0.110  0.130  0.900-   1 2.43  14 2.67  18 2.71  10 2.72  25 2.74
  35  0.096  0.678  0.329-   4 2.27  11 2.32  28 2.61  19 2.85
  36  0.074  0.611  0.752-  27 2.23   3 2.25  12 2.59  20 2.72  56 2.81  44 2.90  28 2.99
  37  0.579  0.100  0.458-  13 2.52  30 2.62   6 2.68  21 2.94  54 2.95   9 2.99  50 3.06
  38  0.635  0.166  0.955-   5 2.35  49 2.39  22 2.41  29 2.46  14 2.61  48 2.98
  39  0.600  0.635  0.351-  23 2.38  15 2.50  47 2.52   8 2.69  32 2.72
  40  0.640  0.653  0.868-  16 2.41   7 2.47  24 2.60  45 3.00
  41  0.119  0.429  0.078-   1 2.33  17 2.50  11 2.68  27 2.76  51 2.81  58 3.03
  42  0.069  0.325  0.563-  28 2.29  12 2.42   2 2.42  18 2.56  26 3.15
  43  0.355  0.832  0.008-  29 2.47  60 2.57   3 2.63  19 2.76  24 2.84  51 2.88
  44  0.094  0.845  0.628-  20 2.20  10 2.33  26 2.36   4 2.59  36 2.90  63 3.00
  45  0.654  0.454  0.056-  31 2.17  15 2.27   5 2.75  40 3.00  49 3.02
  46  0.632  0.369  0.636-  16 2.28  32 2.59   6 2.69  22 2.74
  47  0.692  0.824  0.257-  39 2.52   7 2.53   8 2.58   9 2.80  15 3.06
  48  0.737  0.985  0.780-  30 2.32  14 2.52  54 2.71  64 2.71  20 2.89  13 2.95  38 2.98
  49  0.465  0.252  0.064-  31 2.25  21 2.28  38 2.39   1 2.59  29 2.97  45 3.02
  50  0.343  0.004  0.574-  59 2.35  30 2.62  10 2.69  60 2.84  37 3.06   2 3.12
  51  0.329  0.578  0.071-  31 2.15  11 2.45   3 2.70  41 2.81  58 2.88  43 2.88  23 2.91
  52  0.357  0.596  0.593-  32 2.14   4 2.24  12 2.37  24 2.56  59 3.13
  53  0.848  0.125  0.221-  25 2.32   5 2.40  17 2.42  33 2.65
  54  0.825  0.055  0.559-  26 2.38   6 2.49  63 2.52  18 2.66  48 2.71  13 2.89  37 2.95
  55  0.900  0.675  0.047-  27 2.29  64 2.59  15 2.65  19 2.79   7 2.84
  56  0.863  0.594  0.607-  16 2.28  28 2.35   8 2.56  20 2.69  36 2.81
  57  0.348  0.380  0.349-  11 2.23  32 2.35   2 2.51  21 2.73
  58  0.282  0.437  0.854-  12 2.14   1 2.22  31 2.58   3 2.75  51 2.88  41 3.03  24 3.08
  59  0.398  0.839  0.447-  23 2.23   4 2.34  50 2.35   9 2.52  13 2.73  52 3.13
  60  0.430  0.899  0.795-  30 2.32  24 2.39  10 2.41  43 2.57  50 2.84  29 2.87
  61  0.906  0.439  0.347-  28 2.31  17 2.52  15 2.61   6 2.83
  62  0.874  0.370  0.857-  27 2.13  16 2.28   5 2.56  18 2.67  14 2.70
  63  0.925  0.901  0.420-   8 2.30  26 2.43  54 2.52  44 3.00  33 3.01
  64  0.882  0.894  0.960-   7 2.51  25 2.58  55 2.59  14 2.64  48 2.71  20 2.83
 

IMPORTANT INFORMATION: All symmetrisations will be switched off!
NOSYMM: (Re-)initialisation of all symmetry stuff for point group C_1.

 
 
 KPOINTS: Gamma-point only                        

Automatic generation of k-mesh.
Space group operators:
 irot       det(A)        alpha          n_x          n_y          n_z        tau_x        tau_y        tau_z
    1     1.000000     0.000000     1.000000     0.000000     0.000000     0.000000     0.000000     0.000000
 
 Subroutine IBZKPT returns following result:
 ===========================================
 
 Found      1 irreducible k-points:
 
 Following reciprocal coordinates:
            Coordinates               Weight
  0.000000  0.000000  0.000000      1.000000
 
 Following cartesian coordinates:
            Coordinates               Weight
  0.000000  0.000000  0.000000      1.000000
 


--------------------------------------------------------------------------------------------------------




 Dimension of arrays:
   k-points           NKPTS =      1   k-points in BZ     NKDIM =      1   number of bands    NBANDS=    164
   number of dos      NEDOS =    301   number of ions     NIONS =     64
   non local maximal  LDIM  =      4   non local SUM 2l+1 LMDIM =      8
   total plane-waves  NPLWV =  46656
   max r-space proj   IRMAX =    484   max aug-charges    IRDMAX=    553
   dimension x,y,z NGX =    36 NGY =   36 NGZ =   36
   dimension x,y,z NGXF=    48 NGYF=   48 NGZF=   48
   support grid    NGXF=    48 NGYF=   48 NGZF=   48
   ions per type =              64
   NGX,Y,Z   is equivalent  to a cutoff of   5.47,  5.47,  5.47 a.u.
   NGXF,Y,Z  is equivalent  to a cutoff of   7.30,  7.30,  7.30 a.u.

 SYSTEM =  Si_2x2x2                                
 POSCAR =  Si_2x2x2                                

 Startparameter for this run:
   NWRITE =      2    write-flag & timer
   PREC   = low       normal or accurate (medium, high low for compatibility)
   ISTART =      0    job   : 0-new  1-cont  2-samecut
   ICHARG =      2    charge: 1-file 2-atom 10-const
   ISPIN  =      1    spin polarized calculation?
   LNONCOLLINEAR =      F non collinear calculations
   LSORBIT =      F    spin-orbit coupling
   INIWAV =      1    electr: 0-lowe 1-rand  2-diag
   LASPH  =      F    aspherical Exc in radial PAW
   METAGGA=      F    non-selfconsistent MetaGGA calc.

 Electronic Relaxation 1
   ENCUT  =  184.0 eV  13.52 Ry    3.68 a.u.  12.10 12.10 12.10*2*pi/ulx,y,z
   ENINI  =  184.0     initial cutoff
   ENAUG  =  322.1 eV  augmentation charge cutoff
   NELM   =     60;   NELMIN=  2; NELMDL=-12     # of ELM steps 
   EDIFF  = 0.1E-03   stopping-criterion for ELM
   LREAL  =      T    real-space projection
   NLSPLINE    = F    spline interpolate recip. space projectors
   LCOMPAT=      F    compatible to vasp.4.4
   GGA_COMPAT  = T    GGA compatible to vasp.4.4-vasp.4.6
   LMAXPAW     = -100 max onsite density
   LMAXMIX     =    2 max onsite mixed and CHGCAR
   VOSKOWN=      0    Vosko Wilk Nusair interpolation
   ROPT   =   -0.01000
 Ionic relaxation
   EDIFFG = 0.1E-02   stopping-criterion for IOM
   NSW    =      5    number of steps for IOM
   NBLOCK =      1;   KBLOCK =      5    inner block; outer block 
   IBRION =      0    ionic relax: 0-MD 1-quasi-New 2-CG
   NFREE  =      0    steps in history (QN), initial steepest desc. (CG)
   ISIF   =      2    stress and relaxation
   IWAVPR =     12    prediction:  0-non 1-charg 2-wave 3-comb
   ISYM   =      0    0-nonsym 1-usesym 2-fastsym
   LCORR  =      T    Harris-Foulkes like correction to forces

   POTIM  = 3.0000    time-step for ionic-motion
   TEIN   = 1793.1    initial temperature
   TEBEG  = 2000.0;   TEEND  =2000.0 temperature during run
   SMASS  =   1.00    Nose mass-parameter (am)
   estimated Nose-frequenzy (Omega)   =  0.72E+14 period in steps = 28.89 mass=   0.911E-27a.u.
   SCALEE = 1.0000    scale energy and forces
   NPACO  =    256;   APACO  = 16.0  distance and # of slots for P.C.
   PSTRESS=    0.0 pullay stress

  Mass of Ions in am
   POMASS =  28.09
  Ionic Valenz
   ZVAL   =   4.00
  Atomic Wigner-Seitz radii
   RWIGS  =  -1.00
  virtual crystal weights 
   VCA    =   1.00
   NELECT =     256.0000    total number of electrons
   NUPDOWN=      -1.0000    fix difference up-down

 DOS related values:
   EMIN   =  10.00;   EMAX   =-10.00  energy-range for DOS
   EFERMI =   0.00
   ISMEAR =     0;   SIGMA  =   0.10  broadening in eV -4-tet -1-fermi 0-gaus

 Electronic relaxation 2 (details)
   IALGO  =     48    algorithm
   LDIAG  =      T    sub-space diagonalisation (order eigenvalues)
   LSUBROT=      F    optimize rotation matrix (better conditioning)
   TURBO    =      0    0=normal 1=particle mesh
   IRESTART =      0    0=no restart 2=restart with 2 vectors
   NREBOOT  =      0    no. of reboots
   NMIN     =      0    reboot dimension
   EREF     =   0.00    reference energy to select bands
   IMIX   =      4    mixing-type and parameters
     AMIX     =   0.40;   BMIX     =  1.00
     AMIX_MAG =   1.60;   BMIX_MAG =  1.00
     AMIN     =   0.10
     WC   =   100.;   INIMIX=   1;  MIXPRE=   1;  MAXMIX= -45

 Intra band minimization:
   WEIMIN = 0.0010     energy-eigenvalue tresh-hold
   EBREAK =  0.15E-06  absolut break condition
   DEPER  =   0.30     relativ break condition  

   TIME   =   0.40     timestep for ELM

  volume/ion in A,a.u.               =      20.44       137.96
  Fermi-wavevector in a.u.,A,eV,Ry     =   0.950397  1.795991 12.289531  0.903255
  Thomas-Fermi vector in A             =   2.078770
 
 Write flags
   LWAVE        =      T    write WAVECAR
   LDOWNSAMPLE  =      F    k-point downsampling of WAVECAR
   LCHARG       =      T    write CHGCAR
   LVTOT        =      F    write LOCPOT, total local potential
   LVHAR        =      F    write LOCPOT, Hartree potential only
   LELF         =      F    write electronic localiz. function (ELF)
   LORBIT       =      0    0 simple, 1 ext, 2 COOP (PROOUT), +10 PAW based schemes


 Dipole corrections
   LMONO  =      F    monopole corrections only (constant potential shift)
   LDIPOL =      F    correct potential (dipole corrections)
   IDIPOL =      0    1-x, 2-y, 3-z, 4-all directions 
   EPSILON=  1.0000000 bulk dielectric constant

 Exchange correlation treatment:
   GGA     =    --    GGA type
   LEXCH   =     8    internal setting for exchange type
   VOSKOWN=      0    Vosko Wilk Nusair interpolation
   LHFCALC =     F    Hartree Fock is set to
   LHFONE  =     F    Hartree Fock one center treatment
   AEXX    =    0.0000 exact exchange contribution

 Linear response parameters
   LEPSILON=     F    determine dielectric tensor
   LRPA    =     F    only Hartree local field effects (RPA)
   LNABLA  =     F    use nabla operator in PAW spheres
   LVEL    =     F    velocity operator in full k-point grid
   LINTERFAST=   F  fast interpolation
   KINTER  =     0    interpolate to denser k-point grid
   CSHIFT  =0.1000    complex shift for real part using Kramers Kronig
   OMEGAMAX=  -1.0    maximum frequency
   DEG_THRESHOLD= 0.2000000E-02 threshold for treating states as degnerate
   RTIME   =   -0.100 relaxation time in fs
  (WPLASMAI=    0.000 imaginary part of plasma frequency in eV, 0.658/RTIME)
   DFIELD  = 0.0000000 0.0000000 0.0000000 field for delta impulse in time
 
 Orbital magnetization related:
   ORBITALMAG=     F  switch on orbital magnetization
   LCHIMAG   =     F  perturbation theory with respect to B field
   DQ        =  0.001000  dq finite difference perturbation B field
   LLRAUG    =     F  two centre corrections for induced B field



--------------------------------------------------------------------------------------------------------


 molecular dynamics for ions
   using nose mass (canonical ensemble)
 charge density and potential will be updated during run
 non-spin polarized calculation
 RMM-DIIS sequential band-by-band
 perform sub-space diagonalisation
    before iterative eigenvector-optimisation
 modified Broyden-mixing scheme, WC =      100.0
 initial mixing is a Kerker type mixing with AMIX =  0.4000 and BMIX =      1.0000
 Hartree-type preconditioning will be used
 using additional bands           36
 real space projection scheme for non local part
 use partial core corrections
 calculate Harris-corrections to forces 
   (improved forces if not selfconsistent)
 use gradient corrections 
 use of overlap-Matrix (Vanderbilt PP)
 Gauss-broadening in eV      SIGMA  =   0.10


--------------------------------------------------------------------------------------------------------


  energy-cutoff  :      184.01
  volume of cell :     1308.43
      direct lattice vectors                 reciprocal lattice vectors
    10.937455177  0.000000000  0.000000000     0.091428946  0.000000000  0.000000000
     0.000000000 10.937455177  0.000000000     0.000000000  0.091428946  0.000000000
     0.000000000  0.000000000 10.937455177     0.000000000  0.000000000  0.091428946

  length of vectors
    10.937455177 10.937455177 10.937455177     0.091428946  0.091428946  0.091428946


 
 k-points in units of 2pi/SCALE and weight: Gamma-point only                        
   0.00000000  0.00000000  0.00000000       1.000
 
 k-points in reciprocal lattice and weights: Gamma-point only                        
   0.00000000  0.00000000  0.00000000       1.000
 
 position of ions in fractional coordinates (direct lattice) 
   0.24495962  0.28500236  0.98326263
   0.21239277  0.21575545  0.43420120
   0.22358162  0.68109765  0.87392398
   0.22894914  0.71278532  0.48445622
   0.80702779  0.25487246  0.04922878
   0.76888611  0.25506702  0.46659909
   0.67918741  0.80927869  0.02627633
   0.77560510  0.76129784  0.46830261
   0.46887717  0.94883676  0.25812518
   0.21457707  0.94323962  0.77427164
   0.23498739  0.52929763  0.26943597
   0.22076120  0.44573120  0.66785056
   0.61520047  0.89428939  0.55700623
   0.86547035  0.12857752  0.90585550
   0.75686238  0.55738119  0.20413838
   0.74773403  0.49915550  0.75194595
   0.00308187  0.28204775  0.20911008
   0.95506847  0.18840103  0.71551796
   0.12226797  0.79069752  0.09634629
   0.92030560  0.80405660  0.72005950
   0.42453255  0.16390834  0.24813579
   0.50715190  0.20649238  0.78045164
   0.40660444  0.71191639  0.28784386
   0.41248453  0.68167537  0.80403389
   0.00158123  0.03558887  0.10557934
   0.04168871  0.03859578  0.54955731
   0.96640001  0.53387055  0.90719812
   0.03192917  0.51992159  0.49724952
   0.51692362  0.98797045  0.02561809
   0.55319281  0.03229399  0.68581473
   0.46212134  0.44929363  0.00591127
   0.47512844  0.47445460  0.49424753
   0.07341845  0.10471545  0.30818836
   0.10951091  0.13017657  0.90040634
   0.09571009  0.67772744  0.32949973
   0.07406157  0.61109457  0.75165115
   0.57920065  0.09952107  0.45776369
   0.63478811  0.16634847  0.95534685
   0.59975427  0.63492094  0.35096795
   0.63976717  0.65297397  0.86765474
   0.11948571  0.42867854  0.07799877
   0.06855045  0.32474656  0.56270063
   0.35490001  0.83185171  0.00773701
   0.09422498  0.84496706  0.62817222
   0.65412500  0.45404076  0.05579823
   0.63248827  0.36921487  0.63628690
   0.69194553  0.82404698  0.25713970
   0.73718562  0.98478923  0.78022329
   0.46545622  0.25198346  0.06407608
   0.34302523  0.00394949  0.57350811
   0.32861105  0.57757672  0.07140574
   0.35730368  0.59589111  0.59309516
   0.84780557  0.12515885  0.22133236
   0.82527410  0.05469211  0.55926125
   0.89995541  0.67478310  0.04727445
   0.86289694  0.59397556  0.60659777
   0.34847212  0.37979907  0.34859935
   0.28185728  0.43704270  0.85360553
   0.39813412  0.83861486  0.44745921
   0.42955742  0.89941129  0.79502003
   0.90649277  0.43908841  0.34749404
   0.87369440  0.37038608  0.85655393
   0.92488673  0.90123684  0.41954444
   0.88193793  0.89374571  0.96008182
 
 position of ions in cartesian coordinates  (Angst):
   2.67923486  3.11720054 10.75439094
   2.32303640  2.35981556  4.74905616
   2.44541395  7.44947502  9.55850436
   2.50412096  7.79605749  5.29871819
   8.82683028  2.78765611  0.53843754
   8.40965736  2.78978410  5.10340663
   7.42858185  8.85144940  0.28739620
   8.48314602  8.32666100  5.12203881
   5.12832303 10.37785953  2.82323259
   2.34692709 10.31664107  8.46856136
   2.57016405  5.78916910  2.94694385
   2.41456573  4.87516502  7.30458557
   6.72872757  9.78125012  6.09223067
   9.46604316  1.40631086  9.90775393
   8.27814836  6.09633178  2.23275438
   8.17830744  5.45949091  8.22437512
   0.03370779  3.08488462  2.28713213
  10.44601858  2.06062782  7.82594562
   1.33730044  8.64821868  1.05378325
  10.06580125  8.79433302  7.87561851
   4.64330574  1.79274012  2.71397408
   5.54695117  2.25850115  8.53615483
   4.44721784  7.78655361  3.14827932
   4.51153106  7.45579380  8.79408463
   0.01729458  0.38925168  1.15476930
   0.45596838  0.42213964  6.01075845
  10.56995679  5.83918521  9.92243877
   0.34922385  5.68661909  5.43864434
   5.65382892 10.80588251  0.28019672
   6.05052156  0.35321408  7.50106787
   5.05443144  4.91412894  0.06465422
   5.19669602  5.18932592  5.40581021
   0.80301097  1.14532054  3.37079637
   1.19777067  1.42380040  9.84815399
   1.04682480  7.41261350  3.60388853
   0.81004509  6.68381947  8.22115076
   6.33498115  1.08850726  5.00676984
   6.94296650  1.81942893 10.44906335
   6.55978545  6.94441932  3.83869622
   6.99742475  7.14187353  9.48993483
   1.30686960  4.68865232  0.85310809
   0.74976749  3.55190094  6.15451292
   3.88170295  9.09834079  0.08462317
   1.03058146  9.24178935  6.87060550
   7.15446287  4.96605046  0.61029060
   6.91781210  4.03827109  6.95935945
   7.56812322  9.01297691  2.81245394
   8.06293468 10.77108806  8.53365726
   5.09090654  2.75605780  0.70082922
   3.75182308  0.04319734  6.27271925
   3.59416863  6.31721949  0.78099706
   3.90799298  6.51753231  6.48695173
   9.27283542  1.36891931  2.42081277
   9.02639848  0.59819249  6.11689485
   9.84322196  7.38040991  0.51706220
   9.43789660  6.49658106  6.63463592
   3.81139819  4.15403530  3.81278977
   3.08280137  4.78013494  9.33627222
   4.35457409  9.17231244  4.89406505
   4.69826503  9.83727067  8.69549594
   9.91472404  4.80250980  3.80070049
   9.55599334  4.05108115  9.36852022
  10.11590715  9.85723754  4.58874851
   9.64615658  9.77530364 10.50085187
 


--------------------------------------------------------------------------------------------------------


 use serial FFT for orbitals x direction half grid
 k-point  1 :   0.0000 0.0000 0.0000  plane waves:    3721

 maximum and minimum number of plane-waves per node :      3721     3721

 maximum number of plane-waves:      3721
 maximum index in each direction: 
   IXMAX=   12   IYMAX=   12   IZMAX=   12
   IXMIN=    0   IYMIN=  -12   IZMIN=  -12


 serial   3D FFT for wavefunctions
 parallel 3D FFT for charge:
    minimum data exchange during FFTs selected (reduces bandwidth)


 total amount of memory used by VASP MPI-rank0    39122. kBytes
=======================================================================

   base      :      30000. kBytes
   nonlr-proj:       1900. kBytes
   fftplans  :       1264. kBytes
   grid      :       3250. kBytes
   one-center:         98. kBytes
   wavefun   :       2610. kBytes
 
     INWAV:  cpu time    0.0000: real time    0.0001
 Broyden mixing: mesh for mixing (old mesh)
   NGX = 25   NGY = 25   NGZ = 25
  (NGX  = 48   NGY  = 48   NGZ  = 48)
  gives a total of  15625 points

 initial charge density was supplied:
 charge density of overlapping atoms calculated
 number of electron     256.0000000 magnetization 
 keeping initial charge density in first step


--------------------------------------------------------------------------------------------------------


 Maximum index for non-local projection operator          437
 Maximum index for augmentation-charges           95 (set IRDMAX)


--------------------------------------------------------------------------------------------------------


 First call to EWALD:  gamma=   0.162
 Maximum number of real-space cells 3x 3x 3
 Maximum number of reciprocal cells 3x 3x 3

    FEWALD:  cpu time    0.0065: real time    0.0066


--------------------------------------- Iteration      1(   1)  ---------------------------------------


    POTLOK:  cpu time    0.0740: real time    0.3167
    SETDIJ:  cpu time    0.0114: real time    0.0120
    EDDIAG:  cpu time    0.5461: real time    0.5523
  RMM-DIIS:  cpu time    0.1267: real time    0.1272
    ORTHCH:  cpu time    0.0099: real time    0.0099
       DOS:  cpu time    0.0004: real time    0.0005
    --------------------------------------------
      LOOP:  cpu time    0.7685: real time    1.0186

 eigenvalue-minimisations  :   164
 total energy-change (2. order) : 0.1505659E+04  (-0.4426566E+04)
 number of electron     256.0000000 magnetization 
 augmentation part      256.0000000 magnetization 

 Free energy of the ion-electron system (eV)
  ---------------------------------------------------
  alpha Z        PSCENC =       105.38179549
  Ewald energy   TEWEN  =     -7034.30016086
  -Hartree energ DENC   =      -611.56319439
  -exchange      EXHF   =         0.00000000
  -V(xc)+E(xc)   XCENC  =      -597.66591685
  PAW double counting   =      5639.92317535    -4513.95313856
  entropy T*S    EENTRO =        -0.09707298
  eigenvalues    EBANDS =      1922.47950966
  atomic energy  EATOM  =      6595.45443641
  Solvation  Ediel_sol  =         0.00000000
  ---------------------------------------------------
  free energy    TOTEN  =      1505.65943326 eV

  energy without entropy =     1505.75650625  energy(sigma->0) =     1505.70796976


--------------------------------------------------------------------------------------------------------




--------------------------------------- Iteration      1(   2)  ---------------------------------------


    EDDIAG:  cpu time    0.0525: real time    0.0529
  RMM-DIIS:  cpu time    0.1147: real time    0.1152
    ORTHCH:  cpu time    0.0063: real time    0.0063
       DOS:  cpu time    0.0002: real time    0.0002
    --------------------------------------------
      LOOP:  cpu time    0.1737: real time    0.1746

 eigenvalue-minimisations  :   164
 total energy-change (2. order) :-0.1221666E+04  (-0.1245328E+04)
 number of electron     256.0000000 magnetization 
 augmentation part      256.0000000 magnetization 

 Free energy of the ion-electron system (eV)
  ---------------------------------------------------
  alpha Z        PSCENC =       105.38179549
  Ewald energy   TEWEN  =     -7034.30016086
  -Hartree energ DENC   =      -611.56319439
  -exchange      EXHF   =         0.00000000
  -V(xc)+E(xc)   XCENC  =      -597.66591685
  PAW double counting   =      5639.92317535    -4513.95313856
  entropy T*S    EENTRO =        -0.12952092
  eigenvalues    EBANDS =       700.84604850
  atomic energy  EATOM  =      6595.45443641
  Solvation  Ediel_sol  =         0.00000000
  ---------------------------------------------------
  free energy    TOTEN  =       283.99352417 eV

  energy without entropy =      284.12304509  energy(sigma->0) =      284.05828463


--------------------------------------------------------------------------------------------------------




--------------------------------------- Iteration      1(   3)  ---------------------------------------


    EDDIAG:  cpu time    0.0511: real time    0.0514
  RMM-DIIS:  cpu time    0.1180: real time    0.1184
    ORTHCH:  cpu time    0.0089: real time    0.0089
       DOS:  cpu time    0.0003: real time    0.0003
    --------------------------------------------
      LOOP:  cpu time    0.1782: real time    0.1790

 eigenvalue-minimisations  :   164
 total energy-change (2. order) :-0.3344789E+03  (-0.4013721E+03)
 number of electron     256.0000000 magnetization 
 augmentation part      256.0000000 magnetization 

 Free energy of the ion-electron system (eV)
  ---------------------------------------------------
  alpha Z        PSCENC =       105.38179549
  Ewald energy   TEWEN  =     -7034.30016086
  -Hartree energ DENC   =      -611.56319439
  -exchange      EXHF   =         0.00000000
  -V(xc)+E(xc)   XCENC  =      -597.66591685
  PAW double counting   =      5639.92317535    -4513.95313856
  entropy T*S    EENTRO =        -0.25203947
  eigenvalues    EBANDS =       366.48971632
  atomic energy  EATOM  =      6595.45443641
  Solvation  Ediel_sol  =         0.00000000
  ---------------------------------------------------
  free energy    TOTEN  =       -50.48532655 eV

  energy without entropy =      -50.23328708  energy(sigma->0) =      -50.35930682


--------------------------------------------------------------------------------------------------------




--------------------------------------- Iteration      1(   4)  ---------------------------------------


    EDDIAG:  cpu time    0.0511: real time    0.0514
  RMM-DIIS:  cpu time    0.1196: real time    0.1206
    ORTHCH:  cpu time    0.0103: real time    0.0106
       DOS:  cpu time    0.0003: real time    0.0003
    --------------------------------------------
      LOOP:  cpu time    0.1812: real time    0.1829

 eigenvalue-minimisations  :   164
 total energy-change (2. order) :-0.1336609E+03  (-0.1423661E+03)
 number of electron     256.0000000 magnetization 
 augmentation part      256.0000000 magnetization 

 Free energy of the ion-electron system (eV)
  ---------------------------------------------------
  alpha Z        PSCENC =       105.38179549
  Ewald energy   TEWEN  =     -7034.30016086
  -Hartree energ DENC   =      -611.56319439
  -exchange      EXHF   =         0.00000000
  -V(xc)+E(xc)   XCENC  =      -597.66591685
  PAW double counting   =      5639.92317535    -4513.95313856
  entropy T*S    EENTRO =        -0.04558170
  eigenvalues    EBANDS =       232.62235875
  atomic energy  EATOM  =      6595.45443641
  Solvation  Ediel_sol  =         0.00000000
  ---------------------------------------------------
  free energy    TOTEN  =      -184.14622635 eV

  energy without entropy =     -184.10064466  energy(sigma->0) =     -184.12343551


--------------------------------------------------------------------------------------------------------




--------------------------------------- Iteration      1(   5)  ---------------------------------------


    EDDIAG:  cpu time    0.0519: real time    0.0524
  RMM-DIIS:  cpu time    0.1167: real time    0.1170
    ORTHCH:  cpu time    0.0065: real time    0.0066
       DOS:  cpu time    0.0003: real time    0.0003
    --------------------------------------------
      LOOP:  cpu time    0.1754: real time    0.1763

 eigenvalue-minimisations  :   164
 total energy-change (2. order) :-0.5988590E+02  (-0.5782555E+02)
 number of electron     256.0000000 magnetization 
 augmentation part      256.0000000 magnetization 

 Free energy of the ion-electron system (eV)
  ---------------------------------------------------
  alpha Z        PSCENC =       105.38179549
  Ewald energy   TEWEN  =     -7034.30016086
  -Hartree energ DENC   =      -611.56319439
  -exchange      EXHF   =         0.00000000
  -V(xc)+E(xc)   XCENC  =      -597.66591685
  PAW double counting   =      5639.92317535    -4513.95313856
  entropy T*S    EENTRO =        -0.16363509
  eigenvalues    EBANDS =       172.85450815
  atomic energy  EATOM  =      6595.45443641
  Solvation  Ediel_sol  =         0.00000000
  ---------------------------------------------------
  free energy    TOTEN  =      -244.03213034 eV

  energy without entropy =     -243.86849526  energy(sigma->0) =     -243.95031280


--------------------------------------------------------------------------------------------------------




--------------------------------------- Iteration      1(   6)  ---------------------------------------


    EDDIAG:  cpu time    0.0507: real time    0.0510
  RMM-DIIS:  cpu time    0.1152: real time    0.1156
    ORTHCH:  cpu time    0.0063: real time    0.0064
       DOS:  cpu time    0.0003: real time    0.0003
    --------------------------------------------
      LOOP:  cpu time    0.1725: real time    0.1732

 eigenvalue-minimisations  :   164
 total energy-change (2. order) :-0.3061712E+02  (-0.2710584E+02)
 number of electron     256.0000000 magnetization 
 augmentation part      256.0000000 magnetization 

 Free energy of the ion-electron system (eV)
  ---------------------------------------------------
  alpha Z        PSCENC =       105.38179549
  Ewald energy   TEWEN  =     -7034.30016086
  -Hartree energ DENC   =      -611.56319439
  -exchange      EXHF   =         0.00000000
  -V(xc)+E(xc)   XCENC  =      -597.66591685
  PAW double counting   =      5639.92317535    -4513.95313856
  entropy T*S    EENTRO =        -0.10832678
  eigenvalues    EBANDS =       142.18207907
  atomic energy  EATOM  =      6595.45443641
  Solvation  Ediel_sol  =         0.00000000
  ---------------------------------------------------
  free energy    TOTEN  =      -274.64925112 eV

  energy without entropy =     -274.54092434  energy(sigma->0) =     -274.59508773


--------------------------------------------------------------------------------------------------------




--------------------------------------- Iteration      1(   7)  ---------------------------------------


    EDDIAG:  cpu time    0.0490: real time    0.0492
  RMM-DIIS:  cpu time    0.1056: real time    0.1059
    ORTHCH:  cpu time    0.0063: real time    0.0065
       DOS:  cpu time    0.0003: real time    0.0003
    --------------------------------------------
      LOOP:  cpu time    0.1612: real time    0.1618

 eigenvalue-minimisations  :   164
 total energy-change (2. order) :-0.1447248E+02  (-0.1333603E+02)
 number of electron     256.0000000 magnetization 
 augmentation part      256.0000000 magnetization 

 Free energy of the ion-electron system (eV)
  ---------------------------------------------------
  alpha Z        PSCENC =       105.38179549
  Ewald energy   TEWEN  =     -7034.30016086
  -Hartree energ DENC   =      -611.56319439
  -exchange      EXHF   =         0.00000000
  -V(xc)+E(xc)   XCENC  =      -597.66591685
  PAW double counting   =      5639.92317535    -4513.95313856
  entropy T*S    EENTRO =        -0.15699315
  eigenvalues    EBANDS =       127.75826663
  atomic energy  EATOM  =      6595.45443641
  Solvation  Ediel_sol  =         0.00000000
  ---------------------------------------------------
  free energy    TOTEN  =      -289.12172993 eV

  energy without entropy =     -288.96473677  energy(sigma->0) =     -289.04323335


--------------------------------------------------------------------------------------------------------




--------------------------------------- Iteration      1(   8)  ---------------------------------------


    EDDIAG:  cpu time    0.0492: real time    0.0496
  RMM-DIIS:  cpu time    0.1153: real time    0.1156
    ORTHCH:  cpu time    0.0068: real time    0.0068
       DOS:  cpu time    0.0003: real time    0.0003
    --------------------------------------------
      LOOP:  cpu time    0.1715: real time    0.1722

 eigenvalue-minimisations  :   164
 total energy-change (2. order) :-0.8038600E+01  (-0.7081328E+01)
 number of electron     256.0000000 magnetization 
 augmentation part      256.0000000 magnetization 

 Free energy of the ion-electron system (eV)
  ---------------------------------------------------
  alpha Z        PSCENC =       105.38179549
  Ewald energy   TEWEN  =     -7034.30016086
  -Hartree energ DENC   =      -611.56319439
  -exchange      EXHF   =         0.00000000
  -V(xc)+E(xc)   XCENC  =      -597.66591685
  PAW double counting   =      5639.92317535    -4513.95313856
  entropy T*S    EENTRO =        -0.16635707
  eigenvalues    EBANDS =       119.72903043
  atomic energy  EATOM  =      6595.45443641
  Solvation  Ediel_sol  =         0.00000000
  ---------------------------------------------------
  free energy    TOTEN  =      -297.16033005 eV

  energy without entropy =     -296.99397298  energy(sigma->0) =     -297.07715151


--------------------------------------------------------------------------------------------------------




--------------------------------------- Iteration      1(   9)  ---------------------------------------


    EDDIAG:  cpu time    0.0495: real time    0.0497
  RMM-DIIS:  cpu time    0.2309: real time    0.2320
    ORTHCH:  cpu time    0.0084: real time    0.0085
       DOS:  cpu time    0.0003: real time    0.0003
    --------------------------------------------
      LOOP:  cpu time    0.2891: real time    0.2904

 eigenvalue-minimisations  :   387
 total energy-change (2. order) :-0.8865583E+01  (-0.8458526E+01)
 number of electron     256.0000000 magnetization 
 augmentation part      256.0000000 magnetization 

 Free energy of the ion-electron system (eV)
  ---------------------------------------------------
  alpha Z        PSCENC =       105.38179549
  Ewald energy   TEWEN  =     -7034.30016086
  -Hartree energ DENC   =      -611.56319439
  -exchange      EXHF   =         0.00000000
  -V(xc)+E(xc)   XCENC  =      -597.66591685
  PAW double counting   =      5639.92317535    -4513.95313856
  entropy T*S    EENTRO =        -0.12799632
  eigenvalues    EBANDS =       110.82508712
  atomic energy  EATOM  =      6595.45443641
  Solvation  Ediel_sol  =         0.00000000
  ---------------------------------------------------
  free energy    TOTEN  =      -306.02591261 eV

  energy without entropy =     -305.89791628  energy(sigma->0) =     -305.96191445


--------------------------------------------------------------------------------------------------------




--------------------------------------- Iteration      1(  10)  ---------------------------------------


    EDDIAG:  cpu time    0.0494: real time    0.0497
  RMM-DIIS:  cpu time    0.2433: real time    0.2441
    ORTHCH:  cpu time    0.0075: real time    0.0075
       DOS:  cpu time    0.0003: real time    0.0003
    --------------------------------------------
      LOOP:  cpu time    0.3004: real time    0.3017

 eigenvalue-minimisations  :   405
 total energy-change (2. order) :-0.8702947E+00  (-0.8837490E+00)
 number of electron     256.0000000 magnetization 
 augmentation part      256.0000000 magnetization 

 Free energy of the ion-electron system (eV)
  ---------------------------------------------------
  alpha Z        PSCENC =       105.38179549
  Ewald energy   TEWEN  =     -7034.30016086
  -Hartree energ DENC   =      -611.56319439
  -exchange      EXHF   =         0.00000000
  -V(xc)+E(xc)   XCENC  =      -597.66591685
  PAW double counting   =      5639.92317535    -4513.95313856
  entropy T*S    EENTRO =        -0.16194346
  eigenvalues    EBANDS =       109.98873959
  atomic energy  EATOM  =      6595.45443641
  Solvation  Ediel_sol  =         0.00000000
  ---------------------------------------------------
  free energy    TOTEN  =      -306.89620727 eV

  energy without entropy =     -306.73426381  energy(sigma->0) =     -306.81523554


--------------------------------------------------------------------------------------------------------




--------------------------------------- Iteration      1(  11)  ---------------------------------------


    EDDIAG:  cpu time    0.0483: real time    0.0487
  RMM-DIIS:  cpu time    0.2135: real time    0.2141
    ORTHCH:  cpu time    0.0082: real time    0.0082
       DOS:  cpu time    0.0003: real time    0.0003
    --------------------------------------------
      LOOP:  cpu time    0.2702: real time    0.2712

 eigenvalue-minimisations  :   358
 total energy-change (2. order) :-0.1958804E+00  (-0.9767958E-01)
 number of electron     256.0000000 magnetization 
 augmentation part      256.0000000 magnetization 

 Free energy of the ion-electron system (eV)
  ---------------------------------------------------
  alpha Z        PSCENC =       105.38179549
  Ewald energy   TEWEN  =     -7034.30016086
  -Hartree energ DENC   =      -611.56319439
  -exchange      EXHF   =         0.00000000
  -V(xc)+E(xc)   XCENC  =      -597.66591685
  PAW double counting   =      5639.92317535    -4513.95313856
  entropy T*S    EENTRO =        -0.16367900
  eigenvalues    EBANDS =       109.79459475
  atomic energy  EATOM  =      6595.45443641
  Solvation  Ediel_sol  =         0.00000000
  ---------------------------------------------------
  free energy    TOTEN  =      -307.09208766 eV

  energy without entropy =     -306.92840866  energy(sigma->0) =     -307.01024816


--------------------------------------------------------------------------------------------------------




--------------------------------------- Iteration      1(  12)  ---------------------------------------


    EDDIAG:  cpu time    0.0497: real time    0.0501
  RMM-DIIS:  cpu time    0.1996: real time    0.2004
    ORTHCH:  cpu time    0.0076: real time    0.0077
       DOS:  cpu time    0.0003: real time    0.0003
    CHARGE:  cpu time    0.0187: real time    0.0187
    MIXING:  cpu time    0.0008: real time    0.0008
    --------------------------------------------
      LOOP:  cpu time    0.2767: real time    0.2779

 eigenvalue-minimisations  :   326
 total energy-change (2. order) :-0.2479858E-01  (-0.1223024E-01)
 number of electron     256.0001937 magnetization 
 augmentation part      -15.4869983 magnetization 

 Broyden mixing:
  rms(total) = 0.31410E+01    rms(broyden)= 0.31408E+01
  rms(prec ) = 0.34648E+01
  weight for this iteration     100.00

 Free energy of the ion-electron system (eV)
  ---------------------------------------------------
  alpha Z        PSCENC =       105.38179549
  Ewald energy   TEWEN  =     -7034.30016086
  -Hartree energ DENC   =      -611.56319439
  -exchange      EXHF   =         0.00000000
  -V(xc)+E(xc)   XCENC  =      -597.66591685
  PAW double counting   =      5639.92317535    -4513.95313856
  entropy T*S    EENTRO =        -0.16378594
  eigenvalues    EBANDS =       109.76990310
  atomic energy  EATOM  =      6595.45443641
  Solvation  Ediel_sol  =         0.00000000
  ---------------------------------------------------
  free energy    TOTEN  =      -307.11688624 eV

  energy without entropy =     -306.95310030  energy(sigma->0) =     -307.03499327


--------------------------------------------------------------------------------------------------------




--------------------------------------- Iteration      1(  13)  ---------------------------------------


    POTLOK:  cpu time    0.0111: real time    0.0113
    SETDIJ:  cpu time    0.0112: real time    0.0112
    EDDIAG:  cpu time    0.0499: real time    0.0502
  RMM-DIIS:  cpu time    0.1983: real time    0.1992
    ORTHCH:  cpu time    0.0078: real time    0.0078
       DOS:  cpu time    0.0003: real time    0.0003
    CHARGE:  cpu time    0.0176: real time    0.0178
    MIXING:  cpu time    0.0010: real time    0.0011
    --------------------------------------------
      LOOP:  cpu time    0.2973: real time    0.2989

 eigenvalue-minimisations  :   328
 total energy-change (2. order) : 0.5754346E+01  (-0.1328687E+01)
 number of electron     256.0001934 magnetization 
 augmentation part      -15.4232270 magnetization 

 Broyden mixing:
  rms(total) = 0.18433E+01    rms(broyden)= 0.18433E+01
  rms(prec ) = 0.19483E+01
  weight for this iteration     100.00

 eigenvalues of (default mixing * dielectric matrix)
  average eigenvalue GAMMA=   2.3312
  2.3312

 Free energy of the ion-electron system (eV)
  ---------------------------------------------------
  alpha Z        PSCENC =       105.38179549
  Ewald energy   TEWEN  =     -7034.30016086
  -Hartree energ DENC   =      -655.06722721
  -exchange      EXHF   =         0.00000000
  -V(xc)+E(xc)   XCENC  =      -592.80946800
  PAW double counting   =     13717.69830086   -12593.70126719
  entropy T*S    EENTRO =        -0.14892209
  eigenvalues    EBANDS =       156.12997188
  atomic energy  EATOM  =      6595.45443641
  Solvation  Ediel_sol  =         0.00000000
  ---------------------------------------------------
  free energy    TOTEN  =      -301.36254072 eV

  energy without entropy =     -301.21361863  energy(sigma->0) =     -301.28807968


--------------------------------------------------------------------------------------------------------




--------------------------------------- Iteration      1(  14)  ---------------------------------------


    POTLOK:  cpu time    0.0104: real time    0.0106
    SETDIJ:  cpu time    0.0111: real time    0.0112
    EDDIAG:  cpu time    0.0486: real time    0.0487
  RMM-DIIS:  cpu time    0.2027: real time    0.2035
    ORTHCH:  cpu time    0.0079: real time    0.0079
       DOS:  cpu time    0.0003: real time    0.0003
    CHARGE:  cpu time    0.0176: real time    0.0177
    MIXING:  cpu time    0.0011: real time    0.0012
    --------------------------------------------
      LOOP:  cpu time    0.2997: real time    0.3010

 eigenvalue-minimisations  :   329
 total energy-change (2. order) : 0.1074617E+01  (-0.5683943E+00)
 number of electron     256.0001942 magnetization 
 augmentation part      -15.3883434 magnetization 

 Broyden mixing:
  rms(total) = 0.44920E+00    rms(broyden)= 0.44917E+00
  rms(prec ) = 0.51693E+00
  weight for this iteration     100.00

 eigenvalues of (default mixing * dielectric matrix)
  average eigenvalue GAMMA=   1.6926
  1.0105  2.3746

 Free energy of the ion-electron system (eV)
  ---------------------------------------------------
  alpha Z        PSCENC =       105.38179549
  Ewald energy   TEWEN  =     -7034.30016086
  -Hartree energ DENC   =      -690.56648894
  -exchange      EXHF   =         0.00000000
  -V(xc)+E(xc)   XCENC  =      -587.17850060
  PAW double counting   =     27686.58461658   -26564.51006117
  entropy T*S    EENTRO =        -0.17357132
  eigenvalues    EBANDS =       189.02001099
  atomic energy  EATOM  =      6595.45443641
  Solvation  Ediel_sol  =         0.00000000
  ---------------------------------------------------
  free energy    TOTEN  =      -300.28792343 eV

  energy without entropy =     -300.11435211  energy(sigma->0) =     -300.20113777


--------------------------------------------------------------------------------------------------------




--------------------------------------- Iteration      1(  15)  ---------------------------------------


    POTLOK:  cpu time    0.0104: real time    0.0105
    SETDIJ:  cpu time    0.0109: real time    0.0110
    EDDIAG:  cpu time    0.0483: real time    0.0485
  RMM-DIIS:  cpu time    0.2280: real time    0.2289
    ORTHCH:  cpu time    0.0076: real time    0.0076
       DOS:  cpu time    0.0003: real time    0.0003
    CHARGE:  cpu time    0.0178: real time    0.0178
    MIXING:  cpu time    0.0012: real time    0.0014
    --------------------------------------------
      LOOP:  cpu time    0.3246: real time    0.3260

 eigenvalue-minimisations  :   360
 total energy-change (2. order) : 0.4343878E-01  (-0.7096524E-01)
 number of electron     256.0001942 magnetization 
 augmentation part      -15.3963870 magnetization 

 Broyden mixing:
  rms(total) = 0.11017E+00    rms(broyden)= 0.11015E+00
  rms(prec ) = 0.17165E+00
  weight for this iteration     100.00

 eigenvalues of (default mixing * dielectric matrix)
  average eigenvalue GAMMA=   1.4934
  2.3046  1.3674  0.8083

 Free energy of the ion-electron system (eV)
  ---------------------------------------------------
  alpha Z        PSCENC =       105.38179549
  Ewald energy   TEWEN  =     -7034.30016086
  -Hartree energ DENC   =      -697.61048258
  -exchange      EXHF   =         0.00000000
  -V(xc)+E(xc)   XCENC  =      -585.64407269
  PAW double counting   =     32208.45925227   -31086.77439262
  entropy T*S    EENTRO =        -0.16663861
  eigenvalues    EBANDS =       194.95577856
  atomic energy  EATOM  =      6595.45443641
  Solvation  Ediel_sol  =         0.00000000
  ---------------------------------------------------
  free energy    TOTEN  =      -300.24448465 eV

  energy without entropy =     -300.07784604  energy(sigma->0) =     -300.16116534


--------------------------------------------------------------------------------------------------------




--------------------------------------- Iteration      1(  16)  ---------------------------------------


    POTLOK:  cpu time    0.0107: real time    0.0108
    SETDIJ:  cpu time    0.0113: real time    0.0114
    EDDIAG:  cpu time    0.0510: real time    0.0512
  RMM-DIIS:  cpu time    0.2072: real time    0.2083
    ORTHCH:  cpu time    0.0085: real time    0.0085
       DOS:  cpu time    0.0004: real time    0.0004
    CHARGE:  cpu time    0.0182: real time    0.0182
    MIXING:  cpu time    0.0015: real time    0.0015
    --------------------------------------------
      LOOP:  cpu time    0.3088: real time    0.3104

 eigenvalue-minimisations  :   330
 total energy-change (2. order) : 0.3581658E-01  (-0.1059875E-01)
 number of electron     256.0001939 magnetization 
 augmentation part      -15.4054220 magnetization 

 Broyden mixing:
  rms(total) = 0.58741E-01    rms(broyden)= 0.58738E-01
  rms(prec ) = 0.73254E-01
  weight for this iteration     100.00

 eigenvalues of (default mixing * dielectric matrix)
  average eigenvalue GAMMA=   1.5062
  2.2385  1.8345  1.2169  0.7347

 Free energy of the ion-electron system (eV)
  ---------------------------------------------------
  alpha Z        PSCENC =       105.38179549
  Ewald energy   TEWEN  =     -7034.30016086
  -Hartree energ DENC   =      -695.92566333
  -exchange      EXHF   =         0.00000000
  -V(xc)+E(xc)   XCENC  =      -585.52758005
  PAW double counting   =     32479.04952906   -31357.32750864
  entropy T*S    EENTRO =        -0.16909135
  eigenvalues    EBANDS =       193.15557520
  atomic energy  EATOM  =      6595.45443641
  Solvation  Ediel_sol  =         0.00000000
  ---------------------------------------------------
  free energy    TOTEN  =      -300.20866807 eV

  energy without entropy =     -300.03957672  energy(sigma->0) =     -300.12412239


--------------------------------------------------------------------------------------------------------




--------------------------------------- Iteration      1(  17)  ---------------------------------------


    POTLOK:  cpu time    0.0109: real time    0.0111
    SETDIJ:  cpu time    0.0112: real time    0.0113
    EDDIAG:  cpu time    0.0498: real time    0.0499
  RMM-DIIS:  cpu time    0.2151: real time    0.2158
    ORTHCH:  cpu time    0.0081: real time    0.0081
       DOS:  cpu time    0.0003: real time    0.0003
    CHARGE:  cpu time    0.0183: real time    0.0183
    MIXING:  cpu time    0.0016: real time    0.0016
    --------------------------------------------
      LOOP:  cpu time    0.3153: real time    0.3165

 eigenvalue-minimisations  :   334
 total energy-change (2. order) : 0.6594978E-03  (-0.2773492E-02)
 number of electron     256.0001940 magnetization 
 augmentation part      -15.4102380 magnetization 

 Broyden mixing:
  rms(total) = 0.30165E-01    rms(broyden)= 0.30162E-01
  rms(prec ) = 0.35208E-01
  weight for this iteration     100.00

 eigenvalues of (default mixing * dielectric matrix)
  average eigenvalue GAMMA=   1.5144
  2.2583  2.0175  1.6542  0.9389  0.7030

 Free energy of the ion-electron system (eV)
  ---------------------------------------------------
  alpha Z        PSCENC =       105.38179549
  Ewald energy   TEWEN  =     -7034.30016086
  -Hartree energ DENC   =      -695.43578952
  -exchange      EXHF   =         0.00000000
  -V(xc)+E(xc)   XCENC  =      -585.45091632
  PAW double counting   =     32497.05172538   -31375.30967611
  entropy T*S    EENTRO =        -0.16790761
  eigenvalues    EBANDS =       192.56848458
  atomic energy  EATOM  =      6595.45443641
  Solvation  Ediel_sol  =         0.00000000
  ---------------------------------------------------
  free energy    TOTEN  =      -300.20800857 eV

  energy without entropy =     -300.04010096  energy(sigma->0) =     -300.12405477


--------------------------------------------------------------------------------------------------------




--------------------------------------- Iteration      1(  18)  ---------------------------------------


    POTLOK:  cpu time    0.0110: real time    0.0112
    SETDIJ:  cpu time    0.0113: real time    0.0114
    EDDIAG:  cpu time    0.0515: real time    0.0518
  RMM-DIIS:  cpu time    0.2219: real time    0.2226
    ORTHCH:  cpu time    0.0081: real time    0.0082
       DOS:  cpu time    0.0003: real time    0.0003
    CHARGE:  cpu time    0.0182: real time    0.0183
    MIXING:  cpu time    0.0019: real time    0.0019
    --------------------------------------------
      LOOP:  cpu time    0.3242: real time    0.3255

 eigenvalue-minimisations  :   342
 total energy-change (2. order) :-0.1063369E-02  (-0.4169083E-03)
 number of electron     256.0001940 magnetization 
 augmentation part      -15.4118837 magnetization 

 Broyden mixing:
  rms(total) = 0.14449E-01    rms(broyden)= 0.14448E-01
  rms(prec ) = 0.16467E-01
  weight for this iteration     100.00

 eigenvalues of (default mixing * dielectric matrix)
  average eigenvalue GAMMA=   1.5435
  2.4893  2.4893  1.4976  1.2530  0.8233  0.7082

 Free energy of the ion-electron system (eV)
  ---------------------------------------------------
  alpha Z        PSCENC =       105.38179549
  Ewald energy   TEWEN  =     -7034.30016086
  -Hartree energ DENC   =      -695.86240867
  -exchange      EXHF   =         0.00000000
  -V(xc)+E(xc)   XCENC  =      -585.36921059
  PAW double counting   =     32489.57582261   -31367.83872141
  entropy T*S    EENTRO =        -0.16768975
  eigenvalues    EBANDS =       192.91706483
  atomic energy  EATOM  =      6595.45443641
  Solvation  Ediel_sol  =         0.00000000
  ---------------------------------------------------
  free energy    TOTEN  =      -300.20907194 eV

  energy without entropy =     -300.04138219  energy(sigma->0) =     -300.12522707


--------------------------------------------------------------------------------------------------------




--------------------------------------- Iteration      1(  19)  ---------------------------------------


    POTLOK:  cpu time    0.0109: real time    0.0110
    SETDIJ:  cpu time    0.0113: real time    0.0114
    EDDIAG:  cpu time    0.0490: real time    0.0492
  RMM-DIIS:  cpu time    0.1880: real time    0.1888
    ORTHCH:  cpu time    0.0074: real time    0.0075
       DOS:  cpu time    0.0003: real time    0.0003
    CHARGE:  cpu time    0.0177: real time    0.0177
    MIXING:  cpu time    0.0017: real time    0.0017
    --------------------------------------------
      LOOP:  cpu time    0.2863: real time    0.2877

 eigenvalue-minimisations  :   321
 total energy-change (2. order) :-0.5537276E-03  (-0.9499563E-04)
 number of electron     256.0001940 magnetization 
 augmentation part      -15.4121547 magnetization 

 Broyden mixing:
  rms(total) = 0.48692E-02    rms(broyden)= 0.48688E-02
  rms(prec ) = 0.61718E-02
  weight for this iteration     100.00

 eigenvalues of (default mixing * dielectric matrix)
  average eigenvalue GAMMA=   1.5364
  2.6849  2.5089  1.5239  1.5239  1.0135  0.7943  0.7054

 Free energy of the ion-electron system (eV)
  ---------------------------------------------------
  alpha Z        PSCENC =       105.38179549
  Ewald energy   TEWEN  =     -7034.30016086
  -Hartree energ DENC   =      -696.15775162
  -exchange      EXHF   =         0.00000000
  -V(xc)+E(xc)   XCENC  =      -585.32296122
  PAW double counting   =     32431.77317883   -31310.03814621
  entropy T*S    EENTRO =        -0.16777041
  eigenvalues    EBANDS =       193.16775393
  atomic energy  EATOM  =      6595.45443641
  Solvation  Ediel_sol  =         0.00000000
  ---------------------------------------------------
  free energy    TOTEN  =      -300.20962567 eV

  energy without entropy =     -300.04185526  energy(sigma->0) =     -300.12574046


--------------------------------------------------------------------------------------------------------




--------------------------------------- Iteration      1(  20)  ---------------------------------------


    POTLOK:  cpu time    0.0109: real time    0.0110
    SETDIJ:  cpu time    0.0112: real time    0.0112
    EDDIAG:  cpu time    0.0522: real time    0.0523
  RMM-DIIS:  cpu time    0.1390: real time    0.1396
    ORTHCH:  cpu time    0.0066: real time    0.0066
       DOS:  cpu time    0.0003: real time    0.0003
    CHARGE:  cpu time    0.0188: real time    0.0188
    MIXING:  cpu time    0.0025: real time    0.0025
    --------------------------------------------
      LOOP:  cpu time    0.2414: real time    0.2423

 eigenvalue-minimisations  :   210
 total energy-change (2. order) :-0.1273232E-03  (-0.2242770E-04)
 number of electron     256.0001940 magnetization 
 augmentation part      -15.4120595 magnetization 

 Broyden mixing:
  rms(total) = 0.15374E-02    rms(broyden)= 0.15373E-02
  rms(prec ) = 0.23578E-02
  weight for this iteration     100.00

 eigenvalues of (default mixing * dielectric matrix)
  average eigenvalue GAMMA=   1.5217
  2.7602  2.4010  1.8606  1.5169  1.2020  0.9282  0.7033  0.8011

 Free energy of the ion-electron system (eV)
  ---------------------------------------------------
  alpha Z        PSCENC =       105.38179549
  Ewald energy   TEWEN  =     -7034.30016086
  -Hartree energ DENC   =      -696.33057511
  -exchange      EXHF   =         0.00000000
  -V(xc)+E(xc)   XCENC  =      -585.29892643
  PAW double counting   =     32410.96510038   -31289.23194923
  entropy T*S    EENTRO =        -0.16777098
  eigenvalues    EBANDS =       193.31829735
  atomic energy  EATOM  =      6595.45443641
  Solvation  Ediel_sol  =         0.00000000
  ---------------------------------------------------
  free energy    TOTEN  =      -300.20975299 eV

  energy without entropy =     -300.04198201  energy(sigma->0) =     -300.12586750


--------------------------------------------------------------------------------------------------------




--------------------------------------- Iteration      1(  21)  ---------------------------------------


    POTLOK:  cpu time    0.0111: real time    0.0113
    SETDIJ:  cpu time    0.0113: real time    0.0113
    EDDIAG:  cpu time    0.0505: real time    0.0508
  RMM-DIIS:  cpu time    0.1353: real time    0.1359
    ORTHCH:  cpu time    0.0079: real time    0.0079
       DOS:  cpu time    0.0003: real time    0.0003
    --------------------------------------------
      LOOP:  cpu time    0.2165: real time    0.2175

 eigenvalue-minimisations  :   197
 total energy-change (2. order) :-0.2413148E-04  (-0.5966780E-05)
 number of electron     256.0001940 magnetization 
 augmentation part      -15.4120595 magnetization 

 Free energy of the ion-electron system (eV)
  ---------------------------------------------------
  alpha Z        PSCENC =       105.38179549
  Ewald energy   TEWEN  =     -7034.30016086
  -Hartree energ DENC   =      -696.42533550
  -exchange      EXHF   =         0.00000000
  -V(xc)+E(xc)   XCENC  =      -585.29090413
  PAW double counting   =     32409.35399104   -31287.62189293
  entropy T*S    EENTRO =        -0.16780336
  eigenvalues    EBANDS =       193.40609672
  atomic energy  EATOM  =      6595.45443641
  Solvation  Ediel_sol  =         0.00000000
  ---------------------------------------------------
  free energy    TOTEN  =      -300.20977712 eV

  energy without entropy =     -300.04197376  energy(sigma->0) =     -300.12587544


--------------------------------------------------------------------------------------------------------




 average (electrostatic) potential at core
  the test charge radii are     0.9892
  (the norm of the test charge is              1.0000)
       1 -83.5482       2 -83.8712       3 -83.8203       4 -83.6551       5 -84.1139
       6 -83.8165       7 -83.9841       8 -83.9522       9 -83.9678      10 -83.8877
      11 -83.7172      12 -83.5565      13 -83.8370      14 -84.1261      15 -83.9095
      16 -83.5932      17 -83.6043      18 -84.0896      19 -84.2802      20 -83.7844
      21 -83.9415      22 -83.6167      23 -84.0600      24 -83.8225      25 -83.8618
      26 -83.8962      27 -83.4938      28 -83.6341      29 -84.0932      30 -83.5283
      31 -83.6270      32 -83.7309      33 -83.8752      34 -84.1376      35 -83.6643
      36 -83.6620      37 -83.9776      38 -83.6816      39 -83.7818      40 -84.1076
      41 -83.7034      42 -83.7740      43 -84.0775      44 -83.6499      45 -83.8835
      46 -83.8023      47 -83.9231      48 -84.1329      49 -83.7865      50 -83.9766
      51 -83.9911      52 -83.4684      53 -83.7459      54 -83.8971      55 -83.9465
      56 -83.7740      57 -83.7578      58 -83.7363      59 -83.8039      60 -83.8039
      61 -83.6822      62 -83.6973      63 -83.8700      64 -83.9195
 
 
 
 E-fermi :   5.8243     XC(G=0):  -9.4337     alpha+bet :-11.7317


 k-point     1 :       0.0000    0.0000    0.0000
  band No.  band energies     occupation 
      1      -6.8190      2.00000
      2      -6.3106      2.00000
      3      -6.1225      2.00000
      4      -5.8631      2.00000
      5      -5.6686      2.00000
      6      -5.4448      2.00000
      7      -5.3151      2.00000
      8      -5.0983      2.00000
      9      -5.0356      2.00000
     10      -4.7622      2.00000
     11      -4.6086      2.00000
     12      -4.5830      2.00000
     13      -4.4902      2.00000
     14      -4.3873      2.00000
     15      -4.2760      2.00000
     16      -4.1398      2.00000
     17      -3.9789      2.00000
     18      -3.9050      2.00000
     19      -3.7156      2.00000
     20      -3.4712      2.00000
     21      -3.3881      2.00000
     22      -3.2044      2.00000
     23      -3.0603      2.00000
     24      -2.8972      2.00000
     25      -2.7762      2.00000
     26      -2.4923      2.00000
     27      -2.4197      2.00000
     28      -2.3642      2.00000
     29      -2.2014      2.00000
     30      -2.1605      2.00000
     31      -2.0836      2.00000
     32      -1.9753      2.00000
     33      -1.8733      2.00000
     34      -1.7383      2.00000
     35      -1.6433      2.00000
     36      -1.6264      2.00000
     37      -1.5225      2.00000
     38      -1.4611      2.00000
     39      -1.3589      2.00000
     40      -1.2573      2.00000
     41      -1.1426      2.00000
     42      -1.0185      2.00000
     43      -0.9490      2.00000
     44      -0.8661      2.00000
     45      -0.6876      2.00000
     46      -0.5747      2.00000
     47      -0.5115      2.00000
     48      -0.3356      2.00000
     49      -0.2404      2.00000
     50      -0.0993      2.00000
     51       0.0352      2.00000
     52       0.1371      2.00000
     53       0.1648      2.00000
     54       0.3287      2.00000
     55       0.4257      2.00000
     56       0.5210      2.00000
     57       0.5925      2.00000
     58       0.6527      2.00000
     59       0.9032      2.00000
     60       0.9846      2.00000
     61       1.0789      2.00000
     62       1.1098      2.00000
     63       1.3001      2.00000
     64       1.3895      2.00000
     65       1.4411      2.00000
     66       1.5114      2.00000
     67       1.5907      2.00000
     68       1.6290      2.00000
     69       1.7261      2.00000
     70       1.7378      2.00000
     71       1.8311      2.00000
     72       1.9000      2.00000
     73       1.9355      2.00000
     74       2.0588      2.00000
     75       2.1605      2.00000
     76       2.1990      2.00000
     77       2.3476      2.00000
     78       2.4357      2.00000
     79       2.5005      2.00000
     80       2.5817      2.00000
     81       2.6345      2.00000
     82       2.7763      2.00000
     83       2.8266      2.00000
     84       2.8711      2.00000
     85       3.0291      2.00000
     86       3.0703      2.00000
     87       3.0843      2.00000
     88       3.1461      2.00000
     89       3.2343      2.00000
     90       3.2488      2.00000
     91       3.4148      2.00000
     92       3.4310      2.00000
     93       3.4924      2.00000
     94       3.5901      2.00000
     95       3.6342      2.00000
     96       3.7158      2.00000
     97       3.7569      2.00000
     98       3.8332      2.00000
     99       3.8697      2.00000
    100       3.9728      2.00000
    101       4.0312      2.00000
    102       4.1008      2.00000
    103       4.1285      2.00000
    104       4.1536      2.00000
    105       4.2453      2.00000
    106       4.3264      2.00000
    107       4.4241      2.00000
    108       4.5157      2.00000
    109       4.5508      2.00000
    110       4.6196      2.00000
    111       4.6305      2.00000
    112       4.6832      2.00000
    113       4.7553      2.00000
    114       4.7957      2.00000
    115       4.9178      2.00000
    116       4.9732      2.00000
    117       5.0262      2.00000
    118       5.0590      2.00000
    119       5.1659      2.00000
    120       5.2406      2.00000
    121       5.2767      2.00000
    122       5.3397      2.00000
    123       5.4555      2.00000
    124       5.5062      1.99999
    125       5.6195      1.99623
    126       5.6672      1.97372
    127       5.7373      1.78149
    128       5.7997      1.27216
    129       5.8466      0.75221
    130       5.9139      0.20501
    131       5.9902      0.01900
    132       6.0911      0.00016
    133       6.1207      0.00003
    134       6.2598      0.00000
    135       6.3047      0.00000
    136       6.3229      0.00000
    137       6.4277      0.00000
    138       6.4939      0.00000
    139       6.5187      0.00000
    140       6.5431      0.00000
    141       6.6617      0.00000
    142       6.6899      0.00000
    143       6.7008      0.00000
    144       6.8192      0.00000
    145       6.9039      0.00000
    146       6.9666      0.00000
    147       7.0054      0.00000
    148       7.0803      0.00000
    149       7.2055      0.00000
    150       7.2324      0.00000
    151       7.2472      0.00000
    152       7.3742      0.00000
    153       7.4496      0.00000
    154       7.5593      0.00000
    155       7.6003      0.00000
    156       7.7365      0.00000
    157       7.7999      0.00000
    158       7.8461      0.00000
    159       7.8723      0.00000
    160       7.8894      0.00000
    161       8.0015      0.00000
    162       8.1424      0.00000
    163       8.2736      0.00000
    164       8.4273      0.00000


--------------------------------------------------------------------------------------------------------


 soft charge-density along one line, spin component           1
         0         1         2         3         4         5         6         7         8         9
 total charge-density along one line
 
 pseudopotential strength for first ion, spin component:           1
 18.443  25.731  -0.003   0.002   0.001  -0.005   0.004   0.001
 25.731  35.904  -0.004   0.003   0.001  -0.007   0.006   0.002
 -0.003  -0.004   4.182  -0.000   0.000   7.792  -0.001   0.001
  0.002   0.003  -0.000   4.180   0.000  -0.001   7.790   0.000
  0.001   0.001   0.000   0.000   4.181   0.001   0.000   7.790
 -0.005  -0.007   7.792  -0.001   0.001  14.532  -0.001   0.001
  0.004   0.006  -0.001   7.790   0.000  -0.001  14.527   0.000
  0.001   0.002   0.001   0.000   7.790   0.001   0.000  14.528
 total augmentation occupancy for first ion, spin component:           1
  6.802  -2.806   1.049  -0.535  -0.418  -0.386   0.190   0.142
 -2.806   1.345  -0.653   0.331   0.269   0.223  -0.106  -0.075
  1.049  -0.653   4.093  -0.099   0.095  -1.149   0.024  -0.036
 -0.535   0.331  -0.099   3.559  -0.196   0.026  -0.918   0.042
 -0.418   0.269   0.095  -0.196   3.595  -0.033   0.041  -0.978
 -0.386   0.223  -1.149   0.026  -0.033   0.332  -0.007   0.012
  0.190  -0.106   0.024  -0.918   0.041  -0.007   0.244  -0.009
  0.142  -0.075  -0.036   0.042  -0.978   0.012  -0.009   0.274


------------------------ aborting loop because EDIFF is reached ----------------------------------------


    CHARGE:  cpu time    0.0178: real time    0.0179
    FORLOC:  cpu time    0.0074: real time    0.0074
    FORNL :  cpu time    0.0920: real time    0.0923
    STRESS:  cpu time    0.2736: real time    0.2748
    FORCOR:  cpu time    0.0171: real time    0.0171
    FORHAR:  cpu time    0.0093: real time    0.0094
    MIXING:  cpu time    0.0022: real time    0.0022
    OFIELD:  cpu time    0.0000: real time    0.0000

  FORCE on cell =-STRESS in cart. coord.  units (eV):
  Direction    XX          YY          ZZ          XY          YZ          ZX
  --------------------------------------------------------------------------------------
  Alpha Z   105.38180   105.38180   105.38180
  Ewald   -2397.79823 -2308.72365 -2327.82253   160.44598    86.49304    24.07201
  Hartree   213.38775   230.04041   253.08891    96.60579    21.79222    -1.97943
  E(xc)    -797.29867  -796.83130  -796.08388     0.48973    -0.61895     0.46442
  Local   -1006.68098 -1106.10530 -1108.16568  -252.36060  -106.63013   -15.29100
  n-local  2511.91213  2514.82332  2499.37820    -3.95214    14.01896    -4.44851
  augment  -392.56391  -392.28631  -391.32348    -0.12693    -0.97931     0.52537
  Kinetic  1765.07641  1753.39777  1759.19573     8.28731    -3.34861    -2.90900
  Fock        0.00000     0.00000     0.00000     0.00000     0.00000     0.00000
  -------------------------------------------------------------------------------------
  Total       1.41630    -0.30326    -6.35094     9.38914    10.72721     0.43386
  in kB       1.73428    -0.37134    -7.77677    11.49707    13.13556     0.53127
  external pressure =       -2.14 kB  Pullay stress =        0.00 kB

  kinetic pressure (ideal gas correction) =     11.92 kB
  total pressure  =      9.78 kB
  Total+kin.    14.316      12.999       2.032       9.628      12.267      -1.132

 VOLUME and BASIS-vectors are now :
 -----------------------------------------------------------------------------
  energy-cutoff  :      184.01
  volume of cell :     1308.43
      direct lattice vectors                 reciprocal lattice vectors
    10.937455177  0.000000000  0.000000000     0.091428946  0.000000000  0.000000000
     0.000000000 10.937455177  0.000000000     0.000000000  0.091428946  0.000000000
     0.000000000  0.000000000 10.937455177     0.000000000  0.000000000  0.091428946

  length of vectors
    10.937455177 10.937455177 10.937455177     0.091428946  0.091428946  0.091428946


 FORCES acting on ions
    electron-ion (+dipol)            ewald-force                    non-local-force                 convergence-correction
 -----------------------------------------------------------------------------------------------
   -.579E+01 0.549E+02 -.106E+02   0.536E+01 -.523E+02 0.911E+01   0.570E+00 -.427E+01 0.216E+01   -.930E-03 -.153E-02 -.755E-03
   -.353E+02 0.145E+02 -.317E+01   0.344E+02 -.144E+02 0.185E+01   0.137E+01 -.335E+00 0.151E+01   0.377E-02 -.171E-03 0.364E-03
   0.165E+02 -.221E+02 -.240E+02   -.167E+02 0.217E+02 0.219E+02   -.477E+00 0.613E+00 0.454E+01   0.711E-03 0.245E-03 0.189E-02
   0.108E+02 -.194E+02 0.896E+01   -.103E+02 0.187E+02 -.108E+02   -.152E+01 0.194E+01 0.217E+01   0.177E-02 0.987E-03 -.211E-02
   0.126E+02 -.285E+02 -.412E+02   -.139E+02 0.261E+02 0.409E+02   0.203E+00 0.504E+01 0.163E+01   -.768E-03 0.800E-03 0.181E-02
   0.191E+02 -.245E+02 0.251E+02   -.195E+02 0.246E+02 -.258E+02   -.243E+00 0.214E+00 0.129E+01   -.266E-02 0.356E-02 -.230E-02
   0.897E+01 0.278E+01 -.122E+02   -.891E+01 -.105E+01 0.134E+02   0.424E+00 -.123E+01 -.161E+01   -.209E-02 -.913E-03 -.353E-03
   0.707E+01 0.257E+02 0.646E+01   -.551E+01 -.244E+02 -.681E+01   -.291E+01 -.219E+01 0.733E+00   -.136E-02 -.261E-02 -.822E-03
   0.126E+02 -.175E+02 0.101E+02   -.114E+02 0.182E+02 -.108E+02   0.457E-03 -.858E+00 0.161E+00   -.227E-02 0.927E-03 -.196E-02
   0.646E+01 -.375E+02 -.281E+02   -.509E+01 0.353E+02 0.265E+02   -.657E+00 0.304E+01 0.172E+01   0.494E-03 0.208E-02 0.205E-02
   0.538E+01 0.120E+02 0.324E+01   -.527E+01 -.120E+02 -.199E+01   -.604E+00 0.558E+00 -.292E+01   0.772E-03 0.799E-03 -.185E-02
   -.172E+02 0.478E+02 0.187E+02   0.182E+02 -.479E+02 -.161E+02   -.206E+01 0.548E+00 -.432E+01   0.256E-02 -.247E-02 0.113E-02
   -.424E+01 0.354E+02 0.130E+02   0.308E+01 -.347E+02 -.119E+02   0.163E+01 -.235E+01 -.403E+01   -.251E-02 -.176E-02 -.523E-03
   -.100E+02 0.130E+02 -.647E-01   0.909E+01 -.126E+02 -.678E+00   0.182E+01 -.265E+01 -.113E+01   0.154E-02 0.215E-03 0.111E-02
   -.556E+01 0.602E+01 -.199E+02   0.434E+01 -.755E+01 0.192E+02   0.213E+01 0.209E+01 0.178E+01   -.210E-02 -.834E-03 -.687E-03
   0.316E+02 -.551E+01 0.861E+01   -.314E+02 0.378E+01 -.102E+02   -.104E+01 0.208E+01 0.200E+01   -.259E-02 0.878E-03 0.270E-03
   -.112E+02 -.154E+02 -.307E+01   0.113E+02 0.154E+02 0.359E+01   -.193E+00 0.185E+01 -.238E+00   -.445E-04 -.282E-03 -.152E-02
   -.137E+02 -.128E+02 0.105E+02   0.135E+02 0.124E+02 -.106E+02   0.803E+00 0.148E+01 0.131E+00   0.267E-02 0.786E-03 0.340E-02
   0.340E+01 -.287E+02 -.209E+02   -.245E+01 0.287E+02 0.225E+02   -.118E+01 -.141E+00 -.180E+01   0.249E-02 0.632E-03 0.526E-03
   0.295E+02 -.304E+01 -.201E+02   -.279E+02 0.315E+01 0.173E+02   -.351E+01 -.117E+01 0.339E+01   0.102E-03 -.945E-03 0.252E-02
   0.586E+01 -.289E+01 -.188E+02   -.637E+01 0.192E+01 0.175E+02   0.173E+00 0.930E+00 0.295E+01   0.344E-03 -.110E-02 -.429E-04
   0.371E+02 -.370E+02 0.149E+02   -.386E+02 0.344E+02 -.151E+02   0.216E+01 0.471E+01 0.108E+00   -.274E-02 0.115E-02 0.924E-04
   0.201E+01 0.140E+01 0.338E+02   -.272E+00 -.128E+01 -.327E+02   -.181E+01 -.950E+00 -.292E+01   -.625E-03 0.161E-02 -.206E-02
   -.457E+02 0.143E+02 0.140E+02   0.429E+02 -.131E+02 -.135E+02   0.531E+01 -.126E+01 -.168E+01   0.821E-03 -.879E-03 0.158E-02
   -.395E+02 0.312E+02 -.571E+01   0.372E+02 -.307E+02 0.756E+01   0.350E+01 -.158E+01 -.319E+01   0.258E-02 0.158E-03 -.699E-03
   -.343E+02 -.202E+02 0.101E+02   0.344E+02 0.196E+02 -.104E+02   0.525E+00 0.133E+01 -.286E+00   0.438E-02 0.121E-02 0.101E-02
   0.344E+00 -.370E+01 -.271E+02   -.180E+01 0.256E+01 0.246E+02   0.320E+01 0.152E+01 0.463E+01   0.137E-02 0.258E-03 0.128E-02
   0.150E+01 -.349E+01 0.160E+02   -.407E+01 0.130E+01 -.170E+02   0.205E+01 0.319E+01 0.106E+00   0.362E-04 -.655E-03 -.318E-03
   0.120E+02 -.907E+01 -.186E+02   -.117E+02 0.846E+01 0.183E+02   0.252E+00 -.264E+00 0.376E+00   -.210E-02 -.141E-03 0.224E-02
   0.142E+02 -.273E+02 0.427E+01   -.142E+02 0.275E+02 -.271E+01   -.127E+01 0.708E+00 -.151E+01   -.248E-02 0.214E-02 0.131E-02
   -.203E+02 -.465E+00 0.586E+01   0.200E+02 -.569E+00 -.341E+01   0.510E+00 0.177E+00 -.401E+01   0.503E-03 0.107E-02 0.702E-03
   -.435E+02 0.350E+02 0.777E+01   0.403E+02 -.339E+02 -.612E+01   0.584E+01 -.242E+01 -.265E+01   0.418E-03 -.210E-02 0.186E-03
   -.349E+02 0.295E+02 0.238E+01   0.351E+02 -.292E+02 -.487E+01   -.324E+00 -.962E+00 0.258E+01   0.337E-02 -.407E-03 -.235E-02
   -.345E+02 0.123E+02 -.220E+01   0.350E+02 -.108E+02 0.305E+01   -.827E+00 -.220E+01 -.877E+00   0.216E-02 0.880E-03 -.487E-03
   0.374E+02 -.319E+02 0.329E+02   -.366E+02 0.311E+02 -.318E+02   -.149E+01 0.871E+00 -.145E+01   0.178E-02 0.142E-02 -.336E-02
   0.101E+02 -.214E+01 0.131E+02   -.953E+01 0.188E+01 -.102E+02   -.694E+00 0.157E-01 -.438E+01   0.131E-02 -.146E-03 0.116E-02
   0.117E+02 -.412E+02 0.374E+02   -.113E+02 0.413E+02 -.362E+02   -.428E+00 0.120E+00 -.179E+01   -.349E-02 0.269E-02 -.321E-02
   0.932E+01 -.404E-01 -.119E+02   -.106E+02 0.711E+00 0.116E+02   0.160E+00 -.120E+01 -.149E+00   -.165E-02 0.252E-03 0.145E-02
   -.970E+01 0.355E+02 -.876E+01   0.100E+02 -.348E+02 0.868E+01   0.453E+00 -.102E+01 0.394E+00   -.596E-03 -.141E-02 -.199E-02
   0.352E+01 -.218E+01 0.877E+01   -.325E+01 0.278E+01 -.909E+01   -.134E+01 -.930E+00 0.880E+00   -.103E-02 0.443E-03 0.115E-02
   0.170E+02 -.142E+01 -.178E+02   -.176E+02 0.111E+00 0.168E+02   -.164E+00 0.158E+01 0.124E+01   0.135E-02 0.109E-04 -.119E-02
   0.148E+01 0.257E+02 -.139E+01   -.915E+00 -.247E+02 0.459E+00   -.229E+00 -.186E+01 0.163E+01   0.251E-02 -.538E-03 0.818E-03
   0.953E+01 -.255E+02 -.370E+02   -.994E+01 0.265E+02 0.379E+02   -.114E+00 -.128E+01 -.270E+00   -.298E-04 0.688E-03 0.236E-02
   -.147E+02 -.361E+01 0.174E+02   0.127E+02 0.430E+01 -.153E+02   0.365E+01 -.113E+01 -.310E+01   0.166E-02 -.811E-03 0.187E-02
   -.930E+01 0.505E+01 -.165E+02   0.673E+01 -.329E+01 0.187E+02   0.463E+01 -.180E+01 -.283E+01   -.474E-03 0.496E-03 0.201E-02
   0.221E+02 0.703E+01 0.204E+02   -.199E+02 -.618E+01 -.202E+02   -.335E+01 -.219E+01 -.162E+01   -.236E-02 0.375E-03 -.687E-03
   -.161E+02 -.211E+02 0.118E+02   0.163E+02 0.215E+02 -.107E+02   -.102E+01 -.119E+00 -.107E+01   -.275E-02 -.112E-02 -.192E-02
   -.165E+01 0.187E+02 -.587E+01   -.232E+00 -.177E+02 0.608E+01   0.307E+01 -.145E+01 -.584E-02   -.783E-03 -.102E-02 0.323E-02
   0.624E+01 0.188E+02 -.218E+02   -.592E+01 -.171E+02 0.230E+02   -.133E+01 -.215E+01 -.148E+01   0.301E-03 -.161E-02 0.173E-02
   0.209E+02 -.453E+02 0.165E+02   -.204E+02 0.454E+02 -.156E+02   -.750E+00 0.133E+01 -.344E+00   -.808E-03 0.242E-02 -.787E-03
   -.754E+01 -.211E+02 -.222E+02   0.862E+01 0.193E+02 0.226E+02   -.333E+01 0.423E+01 0.717E+00   0.284E-04 0.146E-02 0.237E-03
[...]


    CHARGE:  cpu time    0.0176: real time    0.0177
    FORLOC:  cpu time    0.0071: real time    0.0072
    FORNL :  cpu time    0.0753: real time    0.0755
    STRESS:  cpu time    0.2159: real time    0.2164
    FORCOR:  cpu time    0.0163: real time    0.0164
    FORHAR:  cpu time    0.0089: real time    0.0089
    MIXING:  cpu time    0.0009: real time    0.0009
    OFIELD:  cpu time    0.0000: real time    0.0000

  FORCE on cell =-STRESS in cart. coord.  units (eV):
  Direction    XX          YY          ZZ          XY          YZ          ZX
  --------------------------------------------------------------------------------------
  Alpha Z   105.38180   105.38180   105.38180
  Ewald   -2382.03650 -2330.35785 -2321.71799   156.02272     5.74074   -13.38320
  Hartree   214.68871   213.61182   270.99234    93.32580    -7.46592    -7.43847
  E(xc)    -796.93526  -796.10391  -795.13385     0.35914    -0.48801     0.68842
  Local   -1020.95139 -1068.66018 -1130.04868  -243.50686    -0.13194    22.55649
  n-local  2517.55143  2513.16882  2493.31479    -2.62772     7.97424    -9.95418
  augment  -393.84104  -393.04003  -391.66647    -0.01551    -0.62939     0.77931
  Kinetic  1762.78759  1748.58452  1757.64999     7.09021     0.01000    -3.46269
  Fock        0.00000     0.00000     0.00000     0.00000     0.00000     0.00000
  -------------------------------------------------------------------------------------
  Total       6.64535    -7.41502   -11.22808    10.64778     5.00972   -10.21432
  in kB       8.13728    -9.07975   -13.74888    13.03829     6.13445   -12.50752
  external pressure =       -4.90 kB  Pullay stress =        0.00 kB

  kinetic pressure (ideal gas correction) =     10.10 kB
  total pressure  =      5.21 kB
  Total+kin.    19.093       2.079      -5.549      12.461       7.026     -12.613

 VOLUME and BASIS-vectors are now :
 -----------------------------------------------------------------------------
  energy-cutoff  :      184.01
  volume of cell :     1308.43
      direct lattice vectors                 reciprocal lattice vectors
    10.937455177  0.000000000  0.000000000     0.091428946  0.000000000  0.000000000
     0.000000000 10.937455177  0.000000000     0.000000000  0.091428946  0.000000000
     0.000000000  0.000000000 10.937455177     0.000000000  0.000000000  0.091428946

  length of vectors
    10.937455177 10.937455177 10.937455177     0.091428946  0.091428946  0.091428946


 FORCES acting on ions
    electron-ion (+dipol)            ewald-force                    non-local-force                 convergence-correction
 -----------------------------------------------------------------------------------------------
   -.113E+02 0.601E+02 -.393E+01   0.107E+02 -.577E+02 0.258E+01   0.134E+01 -.378E+01 0.964E+00   0.149E-01 -.876E-02 0.114E-02
   -.321E+02 0.102E+02 -.536E+01   0.315E+02 -.973E+01 0.392E+01   0.872E+00 -.704E+00 0.171E+01   0.217E-01 -.458E-02 -.402E-02
   0.255E+02 -.267E+02 -.105E+02   -.244E+02 0.259E+02 0.848E+01   -.438E+01 0.101E+01 0.357E+01   0.172E-01 0.124E-01 0.236E-02
   0.121E+02 -.806E+01 0.299E+01   -.115E+02 0.906E+01 -.538E+01   -.208E+01 -.171E+01 0.403E+01   0.184E-01 0.713E-02 -.593E-02
   0.220E+02 -.275E+02 -.294E+02   -.221E+02 0.256E+02 0.291E+02   -.133E+01 0.379E+01 0.111E+01   -.895E-02 -.402E-02 0.106E-02
   0.231E+02 -.237E+02 0.138E+02   -.233E+02 0.237E+02 -.140E+02   -.999E-01 -.289E+00 0.936E+00   -.163E-01 0.152E-02 -.664E-03
   0.169E+02 -.244E+01 -.105E+02   -.163E+02 0.417E+01 0.119E+02   -.438E+00 -.134E+01 -.197E+01   -.200E-01 0.123E-01 -.241E-02
   0.850E+01 0.293E+02 0.579E+01   -.713E+01 -.277E+02 -.584E+01   -.274E+01 -.310E+01 0.578E+00   -.195E-01 0.223E-02 0.141E-02
   0.735E+01 -.151E+02 0.324E+01   -.622E+01 0.160E+02 -.382E+01   -.228E+00 -.131E+01 0.325E+00   -.483E-02 0.496E-02 -.387E-02
   0.114E+02 -.383E+02 -.242E+02   -.964E+01 0.365E+02 0.230E+02   -.164E+01 0.228E+01 0.111E+01   0.212E-01 0.846E-03 0.428E-02
   0.457E+01 0.136E+02 -.139E+02   -.417E+01 -.137E+02 0.144E+02   -.151E+01 0.104E+01 -.888E+00   0.125E-01 0.151E-02 0.294E-02
   -.184E+02 0.550E+02 0.217E+02   0.196E+02 -.547E+02 -.194E+02   -.250E+01 -.563E+00 -.288E+01   0.120E-01 0.730E-03 -.306E-02
   -.356E+01 0.237E+02 0.400E+01   0.371E+01 -.233E+02 -.322E+01   -.263E+00 -.503E+00 -.233E+01   -.168E-01 0.508E-02 -.652E-04
   0.285E+01 0.643E+01 0.676E+01   -.343E+01 -.527E+01 -.673E+01   0.778E+00 -.291E+01 -.193E+01   -.853E-02 -.980E-02 0.116E-02
   -.358E+01 0.112E+02 -.219E+02   0.263E+01 -.129E+02 0.211E+02   0.165E+01 0.225E+01 0.187E+01   -.900E-02 0.289E-02 0.217E-02
   0.365E+02 -.243E+01 0.129E+02   -.349E+02 0.494E+00 -.140E+02   -.412E+01 0.268E+01 0.650E-01   -.754E-02 0.322E-02 0.155E-02
   -.131E+02 -.348E+01 -.356E+01   0.125E+02 0.434E+01 0.430E+01   0.569E+00 -.226E+00 -.107E+01   0.308E-02 0.276E-02 -.247E-03
   -.342E+01 -.923E+01 0.960E+01   0.360E+01 0.913E+01 -.101E+02   -.597E-02 0.641E+00 0.737E+00   -.177E-02 -.273E-02 0.710E-02
   0.333E+00 -.324E+02 -.231E+02   0.479E+00 0.322E+02 0.245E+02   -.970E+00 0.356E-01 -.142E+01   0.128E-01 0.705E-02 0.219E-03
   0.299E+02 -.968E+01 -.185E+02   -.284E+02 0.101E+02 0.155E+02   -.273E+01 -.119E+01 0.327E+01   -.920E-02 0.235E-02 0.719E-02
   0.559E+01 -.957E+01 -.158E+02   -.627E+01 0.786E+01 0.151E+02   0.406E+00 0.212E+01 0.153E+01   0.952E-02 -.189E-01 -.103E-03
   0.293E+02 -.297E+02 0.214E+02   -.316E+02 0.280E+02 -.213E+02   0.267E+01 0.235E+01 -.887E+00   -.706E-02 -.175E-01 0.307E-02
   -.466E+01 -.345E+00 0.316E+02   0.615E+01 0.373E+00 -.302E+02   -.103E+01 -.966E+00 -.363E+01   0.666E-02 0.177E-01 -.141E-02
   -.474E+02 0.143E+02 0.207E+02   0.449E+02 -.131E+02 -.199E+02   0.572E+01 -.125E+01 -.250E+01   0.290E-02 0.185E-01 0.384E-02
   -.356E+02 0.178E+02 -.208E+02   0.339E+02 -.185E+02 0.216E+02   0.242E+01 0.372E+00 -.904E+00   0.492E-02 -.698E-02 -.626E-02
   -.281E+02 -.258E+02 0.741E+01   0.279E+02 0.245E+02 -.806E+01   0.122E+00 0.230E+01 -.791E-01   0.160E-01 -.347E-02 0.397E-02
   0.129E+02 0.899E+01 -.260E+02   -.137E+02 -.857E+01 0.228E+02   0.122E+01 -.205E+01 0.525E+01   0.726E-03 0.102E-01 0.250E-02
   0.300E+01 0.350E+01 0.148E+02   -.473E+01 -.484E+01 -.158E+02   0.905E+00 0.124E+01 0.230E+00   0.346E-02 0.261E-02 -.522E-02
   0.166E+02 0.425E+01 -.176E+02   -.158E+02 -.313E+01 0.175E+02   -.130E+01 -.315E+01 0.804E+00   -.568E-02 -.335E-02 0.172E-02
   -.227E+01 -.380E+02 0.990E+01   0.854E+00 0.373E+02 -.783E+01   0.271E+01 0.307E+01 -.364E+01   -.138E-01 -.105E-01 0.579E-02
   -.316E+02 0.159E+02 0.506E+01   0.310E+02 -.154E+02 -.308E+01   0.200E+01 -.291E+01 -.365E+01   -.836E-03 -.632E-03 0.405E-02
   -.295E+02 0.327E+02 0.159E+02   0.279E+02 -.319E+02 -.133E+02   0.187E+01 -.103E+01 -.388E+01   0.943E-03 -.148E-02 -.385E-02
   -.313E+02 0.237E+02 0.725E+01   0.319E+02 -.247E+02 -.860E+01   -.128E+01 0.543E+00 0.100E+01   0.182E-01 -.288E-02 -.712E-02
   -.416E+02 0.703E+01 0.238E+00   0.417E+02 -.596E+01 -.331E+00   0.882E-01 -.179E+01 -.298E+00   0.127E-01 -.816E-02 0.231E-02
   0.390E+02 -.294E+02 0.272E+02   -.379E+02 0.284E+02 -.261E+02   -.159E+01 0.537E+00 -.181E+01   0.102E-01 0.195E-02 -.257E-02
   0.643E+01 -.241E+01 0.184E+02   -.714E+01 0.210E+01 -.156E+02   0.192E+01 0.908E+00 -.411E+01   0.173E-02 0.616E-02 0.322E-02
   0.117E+02 -.387E+02 0.287E+02   -.108E+02 0.387E+02 -.283E+02   -.828E+00 -.194E+00 -.714E+00   -.227E-01 -.121E-01 -.366E-02
   -.146E+02 -.888E+01 -.906E+01   0.119E+02 0.814E+01 0.888E+01   0.471E+01 0.127E+01 -.886E+00   -.243E-01 -.214E-01 0.367E-02
   -.664E+01 0.375E+02 -.698E+01   0.727E+01 -.375E+02 0.733E+01   -.389E+00 -.297E+00 0.660E-01   -.882E-02 0.875E-02 -.148E-02
   -.442E+01 -.278E+00 0.899E+01   0.414E+01 0.599E+00 -.940E+01   -.107E+00 -.726E+00 0.112E+01   -.676E-02 0.164E-01 0.172E-02
   0.257E+02 0.781E+01 -.214E+02   -.255E+02 -.954E+01 0.203E+02   -.155E+01 0.207E+01 0.167E+01   0.756E-02 -.114E-02 0.223E-02
   -.394E+00 0.171E+02 0.188E+01   0.438E+00 -.171E+02 -.236E+01   0.612E+00 0.243E+00 0.417E+00   0.965E-02 0.141E-02 -.261E-02
   -.337E+00 -.330E+02 -.406E+02   -.602E+00 0.341E+02 0.411E+02   0.474E+00 -.797E+00 0.435E-01   0.165E-01 0.154E-01 0.284E-02
   -.138E+02 -.190E+01 0.138E+02   0.122E+02 0.276E+01 -.127E+02   0.305E+01 -.129E+01 -.102E+01   0.146E-01 -.211E-02 0.405E-02
   -.101E+02 0.144E+02 -.170E+02   0.836E+01 -.129E+02 0.186E+02   0.364E+01 -.136E+01 -.214E+01   -.753E-02 0.185E-02 0.562E-02
   0.104E+02 0.123E+02 0.177E+02   -.965E+01 -.114E+02 -.174E+02   -.522E+00 -.176E+01 -.724E+00   -.112E-01 -.588E-02 -.292E-02
   -.127E+02 -.209E+02 0.613E+01   0.132E+02 0.204E+02 -.551E+01   -.103E+01 0.776E+00 -.521E+00   -.230E-01 0.636E-02 -.399E-02
   0.723E+00 0.554E+01 0.368E+01   -.285E+01 -.505E+01 -.332E+01   0.266E+01 -.560E+00 -.505E+00   -.217E-01 -.528E-02 0.580E-02
   0.995E+01 0.595E+01 -.259E+02   -.870E+01 -.576E+01 0.269E+02   -.326E+01 0.521E+00 -.348E+00   0.306E-02 -.226E-01 0.531E-03
   0.154E+02 -.460E+02 0.197E+02   -.147E+02 0.456E+02 -.187E+02   -.992E+00 0.875E+00 -.109E+01   0.210E-01 -.385E-02 0.275E-04
   -.125E+02 -.215E+02 -.266E+02   0.140E+02 0.194E+02 0.273E+02   -.381E+01 0.527E+01 0.319E+00   0.103E-01 0.848E-02 0.482E-02
   -.345E+02 0.482E+01 0.192E+01   0.339E+02 -.810E+01 -.232E+01   0.474E+00 0.414E+01 0.858E+00   0.608E-02 0.768E-02 -.180E-02
   0.449E+02 0.125E+02 -.206E+02   -.453E+02 -.134E+02 0.210E+02   0.887E+00 0.469E+00 0.356E+00   -.145E-01 -.430E-02 -.686E-02
   0.229E+02 -.236E+02 0.227E+01   -.219E+02 0.218E+02 -.332E+01   -.163E+01 0.281E+01 0.176E+01   -.245E-01 -.532E-02 0.794E-02
   0.495E+01 -.429E+01 -.335E+02   -.322E+01 0.271E+01 0.321E+02   -.174E+01 0.176E+01 0.223E+01   -.407E-02 0.522E-02 -.175E-03
   0.323E+02 0.114E+02 0.275E+02   -.321E+02 -.114E+02 -.264E+02   0.409E+00 0.164E+01 -.149E+01   -.667E-02 0.455E-02 -.143E-02
   -.362E+02 0.295E+02 -.456E+01   0.341E+02 -.290E+02 0.505E+01   0.344E+01 -.193E+01 0.114E+01   0.835E-02 -.618E-02 -.260E-02
   -.170E+02 0.408E+02 0.175E+02   0.168E+02 -.422E+02 -.199E+02   0.839E+00 0.786E+00 0.341E+01   0.106E-01 0.786E-03 0.153E-02
   -.133E+02 -.326E+02 0.204E+01   0.110E+02 0.296E+02 -.282E+01   0.505E+01 0.606E+01 0.262E+01   0.962E-02 0.111E-01 -.604E-02
   -.204E+01 -.128E+02 -.114E+02   0.202E+01 0.130E+02 0.112E+02   -.200E+01 -.175E+01 0.239E+01   0.147E-01 0.108E-01 0.290E-02
   0.359E+02 -.420E+01 0.536E+00   -.324E+02 0.430E+01 0.774E-01   -.438E+01 -.926E-01 -.605E+00   -.430E-02 0.493E-02 -.212E-02
   0.757E+01 0.260E+02 0.423E+01   -.686E+01 -.221E+02 -.559E+01   0.640E+00 -.556E+01 0.285E+01   -.109E-01 -.136E-02 -.999E-03
   -.146E+02 0.785E+01 0.502E+02   0.135E+02 -.719E+01 -.498E+02   0.215E+01 -.303E-01 -.152E+01   -.692E-02 -.878E-02 -.321E-02
   -.992E+01 0.383E+01 -.443E+01   0.949E+01 -.303E+01 0.497E+01   0.307E+00 -.128E+01 -.108E+01   -.943E-02 0.904E-03 -.285E-03
 -----------------------------------------------------------------------------------------------
   -.405E+01 -.753E+01 0.190E+00   -.604E-13 0.204E-13 0.284E-13   0.415E+01 0.747E+01 -.171E+00   -.340E-02 0.245E-01 0.197E-01
 
 
 POSITION                                       TOTAL-FORCE (eV/Angst)
 -----------------------------------------------------------------------------------
      2.64848      3.20905     10.83018         0.762579     -1.429011     -0.381900
      2.36409      2.29781      4.70996         0.295126     -0.241131      0.259792
      2.58366      7.47011      9.53682        -3.317626      0.277176      1.538753
      2.52398      7.88949      5.21061        -1.427717     -0.706246      1.640142
      8.99008      2.82288      0.57196        -1.377553      1.914539      0.804439
      8.39595      2.82257      4.96579        -0.310798     -0.272116      0.707192
      7.55530      8.86621      0.28522         0.155543      0.409569     -0.541350
      8.42994      8.35021      5.18466        -1.392765     -1.532511      0.530531
      5.30941     10.30216      2.73179         0.888263     -0.377994     -0.257716
      2.31445     10.26315      8.54519         0.187902      0.482436     -0.050069
      2.53384      5.76022      2.85110        -1.096840      0.987986     -0.404341
      2.40887      4.91390      7.28100        -1.282178     -0.279764     -0.533473
      6.60478      9.55496      6.13499        -0.133695     -0.067531     -1.562788
      9.67313      1.35105     10.02282         0.190202     -1.768122     -1.900235
      8.32499      6.14798      2.16358         0.685681      0.554509      1.069167
      8.17096      5.50757      8.23644        -2.493693      0.747254     -0.992196
     10.89920      3.12669      2.30576         0.034958      0.643655     -0.320206
     10.50358      2.06068      7.83335         0.178007      0.537785      0.269448
      1.39249      8.69124      0.99008        -0.144353     -0.165551     -0.049719
     10.10117      8.71213      7.84201        -1.213087     -0.787303      0.359894
      4.62827      1.64642      2.80578        -0.266966      0.393992      0.779402
      5.62146      2.41171      8.61519         0.447358      0.702533     -0.778660
      4.32362      7.81003      3.10681         0.462859     -0.919877     -2.261678
      4.61354      7.54328      8.90222         3.195847     -0.035361     -1.685412
      0.00237      0.25056      1.08143         0.792100     -0.337388     -0.061450
      0.54196      0.40917      6.06919        -0.039830      0.992503     -0.730407
     10.66343      5.85268     10.03156         0.359989     -1.614618      2.058101
      0.39608      5.73375      5.36467        -0.819451     -0.085583     -0.839770
      5.63543      0.05097      0.23195        -0.472396     -2.034220      0.756066
      5.92013      0.30748      7.57717         1.279418      2.308651     -1.561853
      4.98145      5.05860      0.02345         1.342425     -2.420284     -1.665934
      5.29677      5.15770      5.42024         0.278463     -0.251912     -1.355659
      0.79467      1.07766      3.37561        -0.652881     -0.409340     -0.355218
      1.20134      1.44245      9.91491         0.176340     -0.721597     -0.388935
      1.07162      7.49294      3.54881        -0.499343     -0.431518     -0.687510
      0.71515      6.61674      8.24616         1.206180      0.608523     -1.351607
      6.39687      1.00296      5.02851        -0.002080     -0.139773     -0.386936
      6.83826      1.81794     10.56093         2.025362      0.514271     -1.069385
      6.53299      6.91896      3.81216         0.239242     -0.246486      0.412406
      6.95398      7.18404      9.49639        -0.398209     -0.388473      0.719334
      1.30191      4.75467      0.84966        -1.305248      0.338396      0.536007
      0.72225      3.47144      6.19127         0.665535      0.280671     -0.062357
      3.94219      9.03310      0.07726        -0.449037      0.322028      0.544214
      1.04798      9.22966      6.74669         1.442307     -0.426411      0.022761
      7.10131      5.05965      0.55952         1.897356      0.075345     -0.592270
      6.77792      4.02557      6.92628         0.265086     -0.771587     -0.384688
      7.67259      8.87849      2.76187        -0.637181      0.242741      0.092754
      8.08332     10.74456      8.62077         0.518548     -0.080024     -0.139221
      5.05917      2.70661      0.69371        -2.002665      0.685149      0.595081
      3.70992      0.16475      6.28427        -0.232910      0.500968     -0.020536
      3.48390      6.28451      0.81059        -2.315525      3.133566      0.996429
      3.91617      6.50566      6.61009        -0.069704      0.869984      0.452853
      9.17233      1.29750      2.54833         0.476778     -0.426908      0.672708
      9.03294      0.53224      5.97554        -0.616355      1.004851      0.713461
      9.95586      7.49438      0.51903        -0.013181      0.188225      0.820412
      9.46772      6.49039      6.65273         0.560243      1.610856     -0.456164
      3.70049      4.10068      3.73224         1.255338     -1.496765      1.629042
      2.89363      5.05920      9.45042         0.681956     -0.545778      0.969938
      4.32618      9.03335      4.93050         2.745991      3.074003      1.838497
      4.64561      9.90729      8.62881        -2.000524     -1.523952      2.216960
      9.93972      4.73030      3.70824        -0.856369      0.006801      0.006847
      9.45629      4.08212      9.20198         1.344629     -1.665731      1.484043
     10.02932      9.83384      4.65643         1.036833      0.620144     -1.096110
      9.70211      9.73506     10.47842        -0.131267     -0.469178     -0.531576
 -----------------------------------------------------------------------------------
    total drift:                                0.103014     -0.040934      0.039346


--------------------------------------------------------------------------------------------------------



  FREE ENERGIE OF THE ION-ELECTRON SYSTEM (eV)
  ---------------------------------------------------
  free  energy   TOTEN  =      -300.37757574 eV

  energy  without entropy=     -300.17689498  energy(sigma->0) =     -300.27723536
 
 d Force = 0.3809577E+00[ 0.125E+00, 0.637E+00]  d Energy = 0.3822191E+00-0.126E-02
 d Force = 0.3222114E+01[ 0.121E+01, 0.524E+01]  d Ewald  = 0.3226496E+01-0.438E-02


--------------------------------------------------------------------------------------------------------


    POTLOK:  cpu time    0.0218: real time    0.0218


--------------------------------------------------------------------------------------------------------


           RANDOM_SEED =         443600552                0                0
   IONSTEP:  cpu time    0.0004: real time    0.0243

  ENERGY OF THE ELECTRON-ION-THERMOSTAT SYSTEM (eV)
  ---------------------------------------------------
% ion-electron   TOTEN  =      -300.377576  see above
  kinetic energy EKIN   =        12.454091
  kin. lattice  EKIN_LAT=         0.000000  (temperature 1529.34 K)
  nose potential ES     =       -32.713936
  nose kinetic   EPS    =         0.023731
  ---------------------------------------------------
  total energy   ETOTAL =      -320.613689 eV

  maximum distance moved by ions :      0.80E-02


 mean value of Nose-termostat <S>:    -1.019 mean value of <T> :  1581.595
 mean temperature <T/S>/<1/S>  :  1580.350

    WAVPRE:  cpu time    0.0502: real time    0.1571
    FEWALD:  cpu time    0.0052: real time    0.0053
    ORTHCH:  cpu time    0.0279: real time    0.0281
 Prediction of Wavefunctions ALPHA= 1.935 BETA=-0.950
    POTLOK:  cpu time    0.0213: real time    0.0214
    EDDIAG:  cpu time    0.0478: real time    0.0480
 writing wavefunctions
     LOOP+:  cpu time    1.4832: real time    1.8403
    4ORBIT:  cpu time    0.0000: real time    0.0000

 total amount of memory used by VASP MPI-rank0    44342. kBytes
=======================================================================

   base      :      30000. kBytes
   nonlr-proj:       1900. kBytes
   fftplans  :       1264. kBytes
   grid      :       3250. kBytes
   one-center:         98. kBytes
   wavefun   :       7830. kBytes
 
  
  
 General timing and accounting informations for this job:
 ========================================================
  
                  Total CPU time used (sec):       14.695
                            User time (sec):       14.360
                          System time (sec):        0.335
                         Elapsed time (sec):       19.058
  
                   Maximum memory used (kb):      209516.
                   Average memory used (kb):           0.
  
                          Minor page faults:        44398
                          Major page faults:          144
                 Voluntary context switches:         4141
