 vasp.5.4.4.18Apr17-6-g9f103f2a35 (build Oct 01 2024 10:11:53) complex          
  
 executed on              Shaheen date 2025.02.19  15:18:42
 running on  192 total cores
 distrk:  each k-point on  192 cores,    1 groups
 distr:  one band on NCORES_PER_BAND=  24 cores,    8 groups


--------------------------------------------------------------------------------------------------------


 INCAR:
 POTCAR:    PAW_PBE Mo 08Apr2002                  
 POTCAR:    PAW_PBE S 06Sep2000                   
 POTCAR:    PAW_PBE Te 08Apr2002                  
 POTCAR:    PAW_PBE Mo 08Apr2002                  
   VRHFIN =Mo: 4p5s4d                                                           
   LEXCH  = PE                                                                  
   EATOM  =   217.5176 eV,   15.9871 Ry                                         
                                                                                
   TITEL  = PAW_PBE Mo 08Apr2002                                                
   LULTRA =        F    use ultrasoft PP ?                                      
   IUNSCR =        1    unscreen: 0-lin 1-nonlin 2-no                           
   RPACOR =    2.200    partial core radius                                     
   POMASS =   95.940; ZVAL   =    6.000    mass and valenz                      
   RCORE  =    2.750    outmost cutoff radius                                   
   RWIGS  =    2.750; RWIGS  =    1.455    wigner-seitz radius (au A)           
   ENMAX  =  224.584; ENMIN  =  168.438 eV                                      
   RCLOC  =    2.111    cutoff for local pot                                    
   LCOR   =        T    correct aug charges                                     
   LPAW   =        T    paw PP                                                  
   EAUG   =  345.278                                                            
   DEXC   =    0.000                                                            
   RMAX   =    2.821    core radius for proj-oper                               
   RAUG   =    1.300    factor for augmentation sphere                          
   RDEP   =    2.815    radius for radial grids                                 
   RDEPT  =    2.211    core radius for aug-charge                              
                                                                                
   Atomic configuration                                                         
   12 entries                                                                   
     n  l   j            E        occ.                                          
     1  0  0.50    -19819.0341   2.0000                                         
     2  0  0.50     -2799.0127   2.0000                                         
     2  1  1.50     -2502.0276   6.0000                                         
     3  0  0.50      -476.4448   2.0000                                         
     3  1  1.50      -379.1496   6.0000                                         
     3  2  2.50      -220.9367  10.0000                                         
     4  0  0.50       -64.3378   2.0000                                         
     4  1  1.50       -38.4773   6.0000                                         
     4  2  2.50        -3.7535   5.0000                                         
     5  0  0.50        -4.0862   1.0000                                         
     5  1  0.50        -2.7701   0.0000                                         
     4  3  2.50        -1.3606   0.0000                                         
   Description                                                                  
     l       E           TYP  RCUT    TYP  RCUT                                 
     2     -3.7534765     23  2.500                                             
     2     -5.1140591     23  2.500                                             
     0     -4.0861560     23  2.600                                             
     0     13.6058260     23  2.600                                             
     1      5.4423304     23  2.750                                             
     1     27.2116520     23  2.750                                             
  local pseudopotential read in
  partial core-charges read in
  partial kinetic energy density read in
  atomic valenz-charges read in
  non local Contribution for L=           2  read in
    real space projection operators read in
  non local Contribution for L=           2  read in
    real space projection operators read in
  non local Contribution for L=           0  read in
    real space projection operators read in
  non local Contribution for L=           0  read in
    real space projection operators read in
  non local Contribution for L=           1  read in
    real space projection operators read in
  non local Contribution for L=           1  read in
    real space projection operators read in
    PAW grid and wavefunctions read in
 
   number of l-projection  operators is LMAX  =           6
   number of lm-projection operators is LMMAX =          18
 
 POTCAR:    PAW_PBE S 06Sep2000                   
   VRHFIN =S : s2p4                                                             
   LEXCH  = PE                                                                  
   EATOM  =   276.8230 eV,   20.3459 Ry                                         
                                                                                
   TITEL  = PAW_PBE S 06Sep2000                                                 
   LULTRA =        F    use ultrasoft PP ?                                      
   IUNSCR =        1    unscreen: 0-lin 1-nonlin 2-no                           
   RPACOR =    1.500    partial core radius                                     
   POMASS =   32.066; ZVAL   =    6.000    mass and valenz                      
   RCORE  =    1.900    outmost cutoff radius                                   
   RWIGS  =    2.200; RWIGS  =    1.164    wigner-seitz radius (au A)           
   ENMAX  =  258.689; ENMIN  =  194.016 eV                                      
   ICORE  =        2    local potential                                         
   LCOR   =        T    correct aug charges                                     
   LPAW   =        T    paw PP                                                  
   EAUG   =  335.092                                                            
   DEXC   =    0.000                                                            
   RMAX   =    1.942    core radius for proj-oper                               
   RAUG   =    1.300    factor for augmentation sphere                          
   RDEP   =    1.954    radius for radial grids                                 
   RDEPT  =    1.744    core radius for aug-charge                              
                                                                                
   Atomic configuration                                                         
    6 entries                                                                   
     n  l   j            E        occ.                                          
     1  0  0.50     -2405.8406   2.0000                                         
     2  0  0.50      -211.7007   2.0000                                         
     2  1  1.50      -156.4958   6.0000                                         
     3  0  0.50       -17.2562   2.0000                                         
     3  1  0.50        -7.0085   4.0000                                         
     3  2  1.50        -6.8029   0.0000                                         
   Description                                                                  
     l       E           TYP  RCUT    TYP  RCUT                                 
     0    -17.2561641     23  1.900                                             
     0    -15.8743224     23  1.900                                             
     1     -7.0085400     23  1.900                                             
     1     -2.7779785     23  1.900                                             
     2     -6.8029130     23  1.900                                             
  local pseudopotential read in
  partial core-charges read in
  partial kinetic energy density read in
  atomic valenz-charges read in
  non local Contribution for L=           0  read in
    real space projection operators read in
  non local Contribution for L=           0  read in
    real space projection operators read in
  non local Contribution for L=           1  read in
    real space projection operators read in
  non local Contribution for L=           1  read in
    real space projection operators read in
    PAW grid and wavefunctions read in
 
   number of l-projection  operators is LMAX  =           4
   number of lm-projection operators is LMMAX =           8
 
 POTCAR:    PAW_PBE Te 08Apr2002                  
   VRHFIN =Te: s2p4                                                             
   LEXCH  = PE                                                                  
   EATOM  =   223.2721 eV,   16.4100 Ry                                         
                                                                                
   TITEL  = PAW_PBE Te 08Apr2002                                                
   LULTRA =        F    use ultrasoft PP ?                                      
   IUNSCR =        1    unscreen: 0-lin 1-nonlin 2-no                           
   RPACOR =    2.200    partial core radius                                     
   POMASS =  127.600; ZVAL   =    6.000    mass and valenz                      
   RCORE  =    2.300    outmost cutoff radius                                   
   RWIGS  =    2.900; RWIGS  =    1.535    wigner-seitz radius (au A)           
   ENMAX  =  174.982; ENMIN  =  131.236 eV                                      
   ICORE  =        3    local potential                                         
   LCOR   =        T    correct aug charges                                     
   LPAW   =        T    paw PP                                                  
   EAUG   =  368.792                                                            
   DEXC   =    0.000                                                            
   RMAX   =    2.345    core radius for proj-oper                               
   RAUG   =    1.300    factor for augmentation sphere                          
   RDEP   =    2.397    radius for radial grids                                 
   RDEPT  =    2.174    core radius for aug-charge                              
                                                                                
   Atomic configuration                                                         
   13 entries                                                                   
     n  l   j            E        occ.                                          
     1  0  0.50    -31621.2075   2.0000                                         
     2  0  0.50     -4848.7941   2.0000                                         
     2  1  1.50     -4352.1960   6.0000                                         
     3  0  0.50      -964.9612   2.0000                                         
     3  1  1.50      -803.6179   6.0000                                         
     3  2  2.50      -559.8710  10.0000                                         
     4  0  0.50      -164.3522   2.0000                                         
     4  1  1.50      -114.3756   6.0000                                         
     4  2  2.50       -41.6483  10.0000                                         
     5  0  0.50       -15.1072   2.0000                                         
     5  1  0.50        -5.9526   4.0000                                         
     5  2  1.50        -5.4423   0.0000                                         
     4  3  2.50        -5.4423   0.0000                                         
   Description                                                                  
     l       E           TYP  RCUT    TYP  RCUT                                 
     0    -15.1072389     23  2.300                                             
     0    -16.4678215     23  2.300                                             
     1     -5.9526306     23  2.300                                             
     1     -2.4873968     23  2.300                                             
     2     -5.4423304     23  2.300                                             
     3     -1.3605826     23  2.300                                             
  local pseudopotential read in
  partial core-charges read in
  partial kinetic energy density read in
  atomic valenz-charges read in
  non local Contribution for L=           0  read in
    real space projection operators read in
  non local Contribution for L=           0  read in
    real space projection operators read in
  non local Contribution for L=           1  read in
    real space projection operators read in
  non local Contribution for L=           1  read in
    real space projection operators read in
  non local Contribution for L=           2  read in
    real space projection operators read in
    PAW grid and wavefunctions read in
 
   number of l-projection  operators is LMAX  =           5
   number of lm-projection operators is LMMAX =          13
 
  PAW_PBE Mo 08Apr2002                  :
 energy of atom  1       EATOM= -217.5176
 kinetic energy error for atom=    0.0005 (will be added to EATOM!!)
  PAW_PBE S 06Sep2000                   :
 energy of atom  2       EATOM= -276.8230
 kinetic energy error for atom=    0.0009 (will be added to EATOM!!)
  PAW_PBE Te 08Apr2002                  :
 energy of atom  3       EATOM= -223.2721
 kinetic energy error for atom=    0.0004 (will be added to EATOM!!)
 
 
 POSCAR: Generated by VASPKIT code               
  positions in direct lattice
  velocities in cartesian coordinates
 exchange correlation table for  LEXCH =        8
   RHO(1)=    0.500       N(1)  =     2000
   RHO(2)=  100.500       N(2)  =     4000
 


--------------------------------------------------------------------------------------------------------


 ion  position               nearest neighbor table
   1  0.500  0.167  0.507-   3 2.44   4 2.44   4 2.44   5 2.72   6 2.72   6 2.72   2 3.36   2 3.36
                             2 3.36   2 3.36
   2  0.000  0.667  0.507-   4 2.44   3 2.44   3 2.44   6 2.72   5 2.72   5 2.72   1 3.36   1 3.36
                             1 3.36   1 3.36
   3  0.500  0.833  0.580-   1 2.44   2 2.44   2 2.44
   4  0.000  0.333  0.580-   2 2.44   1 2.44   1 2.44
   5  0.500  0.833  0.413-   1 2.72   2 2.72   2 2.72   6 3.36   6 3.36   6 3.36   6 3.36
   6  0.000  0.333  0.413-   2 2.72   1 2.72   1 2.72   5 3.36   5 3.36   5 3.36   5 3.36
 

IMPORTANT INFORMATION: All symmetrisations will be switched off!
NOSYMM: (Re-)initialisation of all symmetry stuff for point group C_1.

 
 
 KPOINTS: K-Spacing Value to Generate K-Mesh: 0.01

Automatic generation of k-mesh.
Space group operators:
 irot       det(A)        alpha          n_x          n_y          n_z        tau_x        tau_y        tau_z
    1     1.000000     0.000000     1.000000     0.000000     0.000000     0.000000     0.000000     0.000000
 
 Subroutine IBZKPT returns following result:
 ===========================================
 
 Found    105 irreducible k-points:
 
 Following reciprocal coordinates:
            Coordinates               Weight
  0.000000  0.000000  0.000000      1.000000
  0.052632  0.000000  0.000000      2.000000
  0.105263  0.000000  0.000000      2.000000
  0.157895  0.000000  0.000000      2.000000
  0.210526  0.000000  0.000000      2.000000
  0.263158  0.000000  0.000000      2.000000
  0.315789  0.000000  0.000000      2.000000
  0.368421  0.000000  0.000000      2.000000
  0.421053  0.000000  0.000000      2.000000
  0.473684  0.000000  0.000000      2.000000
  0.000000  0.090909  0.000000      2.000000
  0.052632  0.090909  0.000000      2.000000
  0.105263  0.090909  0.000000      2.000000
  0.157895  0.090909  0.000000      2.000000
  0.210526  0.090909  0.000000      2.000000
  0.263158  0.090909  0.000000      2.000000
  0.315789  0.090909  0.000000      2.000000
  0.368421  0.090909  0.000000      2.000000
  0.421053  0.090909  0.000000      2.000000
  0.473684  0.090909  0.000000      2.000000
 -0.473684  0.090909  0.000000      2.000000
 -0.421053  0.090909  0.000000      2.000000
 -0.368421  0.090909  0.000000      2.000000
 -0.315789  0.090909  0.000000      2.000000
 -0.263158  0.090909  0.000000      2.000000
 -0.210526  0.090909  0.000000      2.000000
 -0.157895  0.090909  0.000000      2.000000
 -0.105263  0.090909  0.000000      2.000000
 -0.052632  0.090909  0.000000      2.000000
  0.000000  0.181818  0.000000      2.000000
  0.052632  0.181818  0.000000      2.000000
  0.105263  0.181818  0.000000      2.000000
  0.157895  0.181818  0.000000      2.000000
  0.210526  0.181818  0.000000      2.000000
  0.263158  0.181818  0.000000      2.000000
  0.315789  0.181818  0.000000      2.000000
  0.368421  0.181818  0.000000      2.000000
  0.421053  0.181818  0.000000      2.000000
  0.473684  0.181818  0.000000      2.000000
 -0.473684  0.181818  0.000000      2.000000
 -0.421053  0.181818  0.000000      2.000000
 -0.368421  0.181818  0.000000      2.000000
 -0.315789  0.181818  0.000000      2.000000
 -0.263158  0.181818  0.000000      2.000000
 -0.210526  0.181818  0.000000      2.000000
 -0.157895  0.181818  0.000000      2.000000
 -0.105263  0.181818  0.000000      2.000000
 -0.052632  0.181818  0.000000      2.000000
  0.000000  0.272727  0.000000      2.000000
  0.052632  0.272727  0.000000      2.000000
  0.105263  0.272727  0.000000      2.000000
  0.157895  0.272727  0.000000      2.000000
  0.210526  0.272727  0.000000      2.000000
  0.263158  0.272727  0.000000      2.000000
  0.315789  0.272727  0.000000      2.000000
  0.368421  0.272727  0.000000      2.000000
  0.421053  0.272727  0.000000      2.000000
  0.473684  0.272727  0.000000      2.000000
 -0.473684  0.272727  0.000000      2.000000
 -0.421053  0.272727  0.000000      2.000000
 -0.368421  0.272727  0.000000      2.000000
 -0.315789  0.272727  0.000000      2.000000
 -0.263158  0.272727  0.000000      2.000000
 -0.210526  0.272727  0.000000      2.000000
 -0.157895  0.272727  0.000000      2.000000
 -0.105263  0.272727  0.000000      2.000000
 -0.052632  0.272727  0.000000      2.000000
  0.000000  0.363636  0.000000      2.000000
  0.052632  0.363636  0.000000      2.000000
  0.105263  0.363636  0.000000      2.000000
  0.157895  0.363636  0.000000      2.000000
  0.210526  0.363636  0.000000      2.000000
  0.263158  0.363636  0.000000      2.000000
  0.315789  0.363636  0.000000      2.000000
  0.368421  0.363636  0.000000      2.000000
  0.421053  0.363636  0.000000      2.000000
  0.473684  0.363636  0.000000      2.000000
 -0.473684  0.363636  0.000000      2.000000
 -0.421053  0.363636  0.000000      2.000000
 -0.368421  0.363636  0.000000      2.000000
 -0.315789  0.363636  0.000000      2.000000
 -0.263158  0.363636  0.000000      2.000000
 -0.210526  0.363636  0.000000      2.000000
 -0.157895  0.363636  0.000000      2.000000
 -0.105263  0.363636  0.000000      2.000000
 -0.052632  0.363636  0.000000      2.000000
  0.000000  0.454545  0.000000      2.000000
  0.052632  0.454545  0.000000      2.000000
  0.105263  0.454545  0.000000      2.000000
  0.157895  0.454545  0.000000      2.000000
  0.210526  0.454545  0.000000      2.000000
  0.263158  0.454545  0.000000      2.000000
  0.315789  0.454545  0.000000      2.000000
  0.368421  0.454545  0.000000      2.000000
  0.421053  0.454545  0.000000      2.000000
  0.473684  0.454545  0.000000      2.000000
 -0.473684  0.454545  0.000000      2.000000
 -0.421053  0.454545  0.000000      2.000000
 -0.368421  0.454545  0.000000      2.000000
 -0.315789  0.454545  0.000000      2.000000
 -0.263158  0.454545  0.000000      2.000000
 -0.210526  0.454545  0.000000      2.000000
 -0.157895  0.454545  0.000000      2.000000
 -0.105263  0.454545  0.000000      2.000000
 -0.052632  0.454545  0.000000      2.000000
 
 Following cartesian coordinates:
            Coordinates               Weight
  0.000000  0.000000  0.000000      1.000000
  0.015647  0.000000  0.000000      2.000000
  0.031295  0.000000  0.000000      2.000000
  0.046942  0.000000  0.000000      2.000000
  0.062590  0.000000  0.000000      2.000000
  0.078237  0.000000  0.000000      2.000000
  0.093884  0.000000  0.000000      2.000000
  0.109532  0.000000  0.000000      2.000000
  0.125179  0.000000  0.000000      2.000000
  0.140827  0.000000  0.000000      2.000000
  0.000000  0.015604  0.000000      2.000000
  0.015647  0.015604  0.000000      2.000000
  0.031295  0.015604  0.000000      2.000000
  0.046942  0.015604  0.000000      2.000000
  0.062590  0.015604  0.000000      2.000000
  0.078237  0.015604  0.000000      2.000000
  0.093884  0.015604  0.000000      2.000000
  0.109532  0.015604  0.000000      2.000000
  0.125179  0.015604  0.000000      2.000000
  0.140827  0.015604  0.000000      2.000000
 -0.140827  0.015604  0.000000      2.000000
 -0.125179  0.015604  0.000000      2.000000
 -0.109532  0.015604  0.000000      2.000000
 -0.093884  0.015604  0.000000      2.000000
 -0.078237  0.015604  0.000000      2.000000
 -0.062590  0.015604  0.000000      2.000000
 -0.046942  0.015604  0.000000      2.000000
 -0.031295  0.015604  0.000000      2.000000
 -0.015647  0.015604  0.000000      2.000000
  0.000000  0.031208  0.000000      2.000000
  0.015647  0.031208  0.000000      2.000000
  0.031295  0.031208  0.000000      2.000000
  0.046942  0.031208  0.000000      2.000000
  0.062590  0.031208  0.000000      2.000000
  0.078237  0.031208  0.000000      2.000000
  0.093884  0.031208  0.000000      2.000000
  0.109532  0.031208  0.000000      2.000000
  0.125179  0.031208  0.000000      2.000000
  0.140827  0.031208  0.000000      2.000000
 -0.140827  0.031208  0.000000      2.000000
 -0.125179  0.031208  0.000000      2.000000
 -0.109532  0.031208  0.000000      2.000000
 -0.093884  0.031208  0.000000      2.000000
 -0.078237  0.031208  0.000000      2.000000
 -0.062590  0.031208  0.000000      2.000000
 -0.046942  0.031208  0.000000      2.000000
 -0.031295  0.031208  0.000000      2.000000
 -0.015647  0.031208  0.000000      2.000000
  0.000000  0.046813  0.000000      2.000000
  0.015647  0.046813  0.000000      2.000000
  0.031295  0.046813  0.000000      2.000000
  0.046942  0.046813  0.000000      2.000000
  0.062590  0.046813  0.000000      2.000000
  0.078237  0.046813  0.000000      2.000000
  0.093884  0.046813  0.000000      2.000000
  0.109532  0.046813  0.000000      2.000000
  0.125179  0.046813  0.000000      2.000000
  0.140827  0.046813  0.000000      2.000000
 -0.140827  0.046813  0.000000      2.000000
 -0.125179  0.046813  0.000000      2.000000
 -0.109532  0.046813  0.000000      2.000000
 -0.093884  0.046813  0.000000      2.000000
 -0.078237  0.046813  0.000000      2.000000
 -0.062590  0.046813  0.000000      2.000000
 -0.046942  0.046813  0.000000      2.000000
 -0.031295  0.046813  0.000000      2.000000
 -0.015647  0.046813  0.000000      2.000000
  0.000000  0.062417  0.000000      2.000000
  0.015647  0.062417  0.000000      2.000000
  0.031295  0.062417  0.000000      2.000000
  0.046942  0.062417  0.000000      2.000000
  0.062590  0.062417  0.000000      2.000000
  0.078237  0.062417  0.000000      2.000000
  0.093884  0.062417  0.000000      2.000000
  0.109532  0.062417  0.000000      2.000000
  0.125179  0.062417  0.000000      2.000000
  0.140827  0.062417  0.000000      2.000000
 -0.140827  0.062417  0.000000      2.000000
 -0.125179  0.062417  0.000000      2.000000
 -0.109532  0.062417  0.000000      2.000000
 -0.093884  0.062417  0.000000      2.000000
 -0.078237  0.062417  0.000000      2.000000
 -0.062590  0.062417  0.000000      2.000000
 -0.046942  0.062417  0.000000      2.000000
 -0.031295  0.062417  0.000000      2.000000
 -0.015647  0.062417  0.000000      2.000000
  0.000000  0.078021  0.000000      2.000000
  0.015647  0.078021  0.000000      2.000000
  0.031295  0.078021  0.000000      2.000000
  0.046942  0.078021  0.000000      2.000000
  0.062590  0.078021  0.000000      2.000000
  0.078237  0.078021  0.000000      2.000000
  0.093884  0.078021  0.000000      2.000000
  0.109532  0.078021  0.000000      2.000000
  0.125179  0.078021  0.000000      2.000000
  0.140827  0.078021  0.000000      2.000000
 -0.140827  0.078021  0.000000      2.000000
 -0.125179  0.078021  0.000000      2.000000
 -0.109532  0.078021  0.000000      2.000000
 -0.093884  0.078021  0.000000      2.000000
 -0.078237  0.078021  0.000000      2.000000
 -0.062590  0.078021  0.000000      2.000000
 -0.046942  0.078021  0.000000      2.000000
 -0.031295  0.078021  0.000000      2.000000
 -0.015647  0.078021  0.000000      2.000000
 


--------------------------------------------------------------------------------------------------------




 Dimension of arrays:
   k-points           NKPTS =    105   k-points in BZ     NKDIM =    105   number of bands    NBANDS=     24
   number of dos      NEDOS =    301   number of ions     NIONS =      6
   non local maximal  LDIM  =      6   non local SUM 2l+1 LMDIM =     18
   total plane-waves  NPLWV = 217728
   max r-space proj   IRMAX =      1   max aug-charges    IRDMAX=  35419
   dimension x,y,z NGX =    28 NGY =   48 NGZ =  162
   dimension x,y,z NGXF=    56 NGYF=   96 NGZF=  324
   support grid    NGXF=    56 NGYF=   96 NGZF=  324
   ions per type =               2   2   2
   NGX,Y,Z   is equivalent  to a cutoff of  13.84, 13.70, 13.30 a.u.
   NGXF,Y,Z  is equivalent  to a cutoff of  27.68, 27.39, 26.60 a.u.

 SYSTEM =  unknown system                          
 POSCAR =  Generated by VASPKIT code               

 Startparameter for this run:
   NWRITE =      2    write-flag & timer
   PREC   = accura    normal or accurate (medium, high low for compatibility)
   ISTART =      0    job   : 0-new  1-cont  2-samecut
   ICHARG =      2    charge: 1-file 2-atom 10-const
   ISPIN  =      1    spin polarized calculation?
   LNONCOLLINEAR =      F non collinear calculations
   LSORBIT =      F    spin-orbit coupling
   INIWAV =      1    electr: 0-lowe 1-rand  2-diag
   LASPH  =      F    aspherical Exc in radial PAW
   METAGGA=      F    non-selfconsistent MetaGGA calc.

 Electronic Relaxation 1
   ENCUT  =  600.0 eV  44.10 Ry    6.64 a.u.   6.72 11.64 40.45*2*pi/ulx,y,z
   ENINI  =  600.0     initial cutoff
   ENAUG  =  368.8 eV  augmentation charge cutoff
   NELM   =     60;   NELMIN=  2; NELMDL= -5     # of ELM steps 
   EDIFF  = 0.1E-06   stopping-criterion for ELM
   LREAL  =      F    real-space projection
   NLSPLINE    = F    spline interpolate recip. space projectors
   LCOMPAT=      F    compatible to vasp.4.4
   GGA_COMPAT  = T    GGA compatible to vasp.4.4-vasp.4.6
   LMAXPAW     = -100 max onsite density
   LMAXMIX     =    2 max onsite mixed and CHGCAR
   VOSKOWN=      0    Vosko Wilk Nusair interpolation
   ROPT   =    0.00000   0.00000   0.00000
 Ionic relaxation
   EDIFFG = -.1E-02   stopping-criterion for IOM
   NSW    =    100    number of steps for IOM
   NBLOCK =      1;   KBLOCK =    100    inner block; outer block 
   IBRION =      2    ionic relax: 0-MD 1-quasi-New 2-CG
   NFREE  =      1    steps in history (QN), initial steepest desc. (CG)
   ISIF   =      2    stress and relaxation
   IWAVPR =     11    prediction:  0-non 1-charg 2-wave 3-comb
   ISYM   =      0    0-nonsym 1-usesym 2-fastsym
   LCORR  =      T    Harris-Foulkes like correction to forces

   POTIM  = 0.5000    time-step for ionic-motion
   TEIN   =    0.0    initial temperature
   TEBEG  =    0.0;   TEEND  =   0.0 temperature during run
   SMASS  =  -3.00    Nose mass-parameter (am)
   estimated Nose-frequenzy (Omega)   =  0.10E-29 period in steps =****** mass=  -0.259E-27a.u.
   SCALEE = 1.0000    scale energy and forces
   NPACO  =    256;   APACO  = 16.0  distance and # of slots for P.C.
   PSTRESS=    0.0 pullay stress

  Mass of Ions in am
   POMASS =  95.94 32.07127.60
  Ionic Valenz
   ZVAL   =   6.00  6.00  6.00
  Atomic Wigner-Seitz radii
   RWIGS  =  -1.00 -1.00 -1.00
  virtual crystal weights 
   VCA    =   1.00  1.00  1.00
   NELECT =      36.0000    total number of electrons
   NUPDOWN=      -1.0000    fix difference up-down

 DOS related values:
   EMIN   =  10.00;   EMAX   =-10.00  energy-range for DOS
   EFERMI =   0.00
   ISMEAR =     0;   SIGMA  =   0.10  broadening in eV -4-tet -1-fermi 0-gaus

 Electronic relaxation 2 (details)
   IALGO  =     38    algorithm
   LDIAG  =      T    sub-space diagonalisation (order eigenvalues)
   LSUBROT=      F    optimize rotation matrix (better conditioning)
   TURBO    =      0    0=normal 1=particle mesh
   IRESTART =      0    0=no restart 2=restart with 2 vectors
   NREBOOT  =      0    no. of reboots
   NMIN     =      0    reboot dimension
   EREF     =   0.00    reference energy to select bands
   IMIX   =      4    mixing-type and parameters
     AMIX     =   0.40;   BMIX     =  1.00
     AMIX_MAG =   1.60;   BMIX_MAG =  1.00
     AMIN     =   0.10
     WC   =   100.;   INIMIX=   1;  MIXPRE=   1;  MAXMIX= -45

 Intra band minimization:
   WEIMIN = 0.0010     energy-eigenvalue tresh-hold
   EBREAK =  0.10E-08  absolut break condition
   DEPER  =   0.30     relativ break condition  

   TIME   =   0.40     timestep for ELM

  volume/ion in A,a.u.               =      66.15       446.37
  Fermi-wavevector in a.u.,A,eV,Ry     =   0.735573  1.390031  7.361671  0.541068
  Thomas-Fermi vector in A             =   1.828802
 
 Write flags
   LWAVE        =      F    write WAVECAR
   LDOWNSAMPLE  =      F    k-point downsampling of WAVECAR
   LCHARG       =      T    write CHGCAR
   LVTOT        =      F    write LOCPOT, total local potential
   LVHAR        =      F    write LOCPOT, Hartree potential only
   LELF         =      F    write electronic localiz. function (ELF)
   LORBIT       =      0    0 simple, 1 ext, 2 COOP (PROOUT), +10 PAW based schemes


 Dipole corrections
   LMONO  =      F    monopole corrections only (constant potential shift)
   LDIPOL =      T    correct potential (dipole corrections)
   IDIPOL =      3    1-x, 2-y, 3-z, 4-all directions 
   EPSILON=  1.0000000 bulk dielectric constant

 Exchange correlation treatment:
   GGA     =    PE    GGA type
   LEXCH   =     8    internal setting for exchange type
   VOSKOWN=      0    Vosko Wilk Nusair interpolation
   LHFCALC =     F    Hartree Fock is set to
   LHFONE  =     F    Hartree Fock one center treatment
   AEXX    =    0.0000 exact exchange contribution

 Linear response parameters
   LEPSILON=     F    determine dielectric tensor
   LRPA    =     F    only Hartree local field effects (RPA)
   LNABLA  =     F    use nabla operator in PAW spheres
   LVEL    =     F    velocity operator in full k-point grid
   LINTERFAST=   F  fast interpolation
   KINTER  =     0    interpolate to denser k-point grid
   CSHIFT  =0.1000    complex shift for real part using Kramers Kronig
   OMEGAMAX=  -1.0    maximum frequency
   DEG_THRESHOLD= 0.2000000E-02 threshold for treating states as degnerate
   RTIME   =   -0.100 relaxation time in fs
  (WPLASMAI=    0.000 imaginary part of plasma frequency in eV, 0.658/RTIME)
   DFIELD  = 0.0000000 0.0000000 0.0000000 field for delta impulse in time
 
 Orbital magnetization related:
   ORBITALMAG=     F  switch on orbital magnetization
   LCHIMAG   =     F  perturbation theory with respect to B field
   DQ        =  0.001000  dq finite difference perturbation B field
   LLRAUG    =     F  two centre corrections for induced B field



--------------------------------------------------------------------------------------------------------


 conjugate gradient relaxation of ions
 charge density and potential will be updated during run
 non-spin polarized calculation
 Variant of blocked Davidson
 Davidson routine will perform the subspace rotation
 perform sub-space diagonalisation
    after iterative eigenvector-optimisation
 modified Broyden-mixing scheme, WC =      100.0
 initial mixing is a Kerker type mixing with AMIX =  0.4000 and BMIX =      1.0000
 Hartree-type preconditioning will be used
 using additional bands            6
 reciprocal scheme for non local part
 use partial core corrections
 calculate Harris-corrections to forces 
   (improved forces if not selfconsistent)
 use gradient corrections 
 use of overlap-Matrix (Vanderbilt PP)
 Gauss-broadening in eV      SIGMA  =   0.10


--------------------------------------------------------------------------------------------------------


  energy-cutoff  :      600.00
  volume of cell :      396.87
      direct lattice vectors                 reciprocal lattice vectors
     3.363599539  0.000000000  0.000000000     0.297300552  0.000000000  0.000000000
     0.000000000  5.825925827  0.000000000     0.000000000  0.171646538  0.000000000
     0.000000000  0.000000000 20.252588272     0.000000000  0.000000000  0.049376405

  length of vectors
     3.363599539  5.825925827 20.252588272     0.297300552  0.171646538  0.049376405


 
 k-points in units of 2pi/SCALE and weight: K-Spacing Value to Generate K-Mesh: 0.01
   0.00000000  0.00000000  0.00000000       0.005
   0.01564740  0.00000000  0.00000000       0.010
   0.03129479  0.00000000  0.00000000       0.010
   0.04694219  0.00000000  0.00000000       0.010
   0.06258959  0.00000000  0.00000000       0.010
   0.07823699  0.00000000  0.00000000       0.010
   0.09388438  0.00000000  0.00000000       0.010
   0.10953178  0.00000000  0.00000000       0.010
   0.12517918  0.00000000  0.00000000       0.010
   0.14082658  0.00000000  0.00000000       0.010
   0.00000000  0.01560423  0.00000000       0.010
   0.01564740  0.01560423  0.00000000       0.010
   0.03129479  0.01560423  0.00000000       0.010
   0.04694219  0.01560423  0.00000000       0.010
   0.06258959  0.01560423  0.00000000       0.010
   0.07823699  0.01560423  0.00000000       0.010
   0.09388438  0.01560423  0.00000000       0.010
   0.10953178  0.01560423  0.00000000       0.010
   0.12517918  0.01560423  0.00000000       0.010
   0.14082658  0.01560423  0.00000000       0.010
  -0.14082658  0.01560423  0.00000000       0.010
  -0.12517918  0.01560423  0.00000000       0.010
  -0.10953178  0.01560423  0.00000000       0.010
  -0.09388438  0.01560423  0.00000000       0.010
  -0.07823699  0.01560423  0.00000000       0.010
  -0.06258959  0.01560423  0.00000000       0.010
  -0.04694219  0.01560423  0.00000000       0.010
  -0.03129479  0.01560423  0.00000000       0.010
  -0.01564740  0.01560423  0.00000000       0.010
   0.00000000  0.03120846  0.00000000       0.010
   0.01564740  0.03120846  0.00000000       0.010
   0.03129479  0.03120846  0.00000000       0.010
   0.04694219  0.03120846  0.00000000       0.010
   0.06258959  0.03120846  0.00000000       0.010
   0.07823699  0.03120846  0.00000000       0.010
   0.09388438  0.03120846  0.00000000       0.010
   0.10953178  0.03120846  0.00000000       0.010
   0.12517918  0.03120846  0.00000000       0.010
   0.14082658  0.03120846  0.00000000       0.010
  -0.14082658  0.03120846  0.00000000       0.010
  -0.12517918  0.03120846  0.00000000       0.010
  -0.10953178  0.03120846  0.00000000       0.010
  -0.09388438  0.03120846  0.00000000       0.010
  -0.07823699  0.03120846  0.00000000       0.010
  -0.06258959  0.03120846  0.00000000       0.010
  -0.04694219  0.03120846  0.00000000       0.010
  -0.03129479  0.03120846  0.00000000       0.010
  -0.01564740  0.03120846  0.00000000       0.010
   0.00000000  0.04681269  0.00000000       0.010
   0.01564740  0.04681269  0.00000000       0.010
   0.03129479  0.04681269  0.00000000       0.010
   0.04694219  0.04681269  0.00000000       0.010
   0.06258959  0.04681269  0.00000000       0.010
   0.07823699  0.04681269  0.00000000       0.010
   0.09388438  0.04681269  0.00000000       0.010
   0.10953178  0.04681269  0.00000000       0.010
   0.12517918  0.04681269  0.00000000       0.010
   0.14082658  0.04681269  0.00000000       0.010
  -0.14082658  0.04681269  0.00000000       0.010
  -0.12517918  0.04681269  0.00000000       0.010
  -0.10953178  0.04681269  0.00000000       0.010
  -0.09388438  0.04681269  0.00000000       0.010
  -0.07823699  0.04681269  0.00000000       0.010
  -0.06258959  0.04681269  0.00000000       0.010
  -0.04694219  0.04681269  0.00000000       0.010
  -0.03129479  0.04681269  0.00000000       0.010
  -0.01564740  0.04681269  0.00000000       0.010
   0.00000000  0.06241692  0.00000000       0.010
   0.01564740  0.06241692  0.00000000       0.010
   0.03129479  0.06241692  0.00000000       0.010
   0.04694219  0.06241692  0.00000000       0.010
   0.06258959  0.06241692  0.00000000       0.010
   0.07823699  0.06241692  0.00000000       0.010
   0.09388438  0.06241692  0.00000000       0.010
   0.10953178  0.06241692  0.00000000       0.010
   0.12517918  0.06241692  0.00000000       0.010
   0.14082658  0.06241692  0.00000000       0.010
  -0.14082658  0.06241692  0.00000000       0.010
  -0.12517918  0.06241692  0.00000000       0.010
  -0.10953178  0.06241692  0.00000000       0.010
  -0.09388438  0.06241692  0.00000000       0.010
  -0.07823699  0.06241692  0.00000000       0.010
  -0.06258959  0.06241692  0.00000000       0.010
  -0.04694219  0.06241692  0.00000000       0.010
  -0.03129479  0.06241692  0.00000000       0.010
  -0.01564740  0.06241692  0.00000000       0.010
   0.00000000  0.07802115  0.00000000       0.010
   0.01564740  0.07802115  0.00000000       0.010
   0.03129479  0.07802115  0.00000000       0.010
   0.04694219  0.07802115  0.00000000       0.010
   0.06258959  0.07802115  0.00000000       0.010
   0.07823699  0.07802115  0.00000000       0.010
   0.09388438  0.07802115  0.00000000       0.010
   0.10953178  0.07802115  0.00000000       0.010
   0.12517918  0.07802115  0.00000000       0.010
   0.14082658  0.07802115  0.00000000       0.010
  -0.14082658  0.07802115  0.00000000       0.010
  -0.12517918  0.07802115  0.00000000       0.010
  -0.10953178  0.07802115  0.00000000       0.010
  -0.09388438  0.07802115  0.00000000       0.010
  -0.07823699  0.07802115  0.00000000       0.010
  -0.06258959  0.07802115  0.00000000       0.010
  -0.04694219  0.07802115  0.00000000       0.010
  -0.03129479  0.07802115  0.00000000       0.010
  -0.01564740  0.07802115  0.00000000       0.010
 
 k-points in reciprocal lattice and weights: K-Spacing Value to Generate K-Mesh: 0.01
   0.00000000  0.00000000  0.00000000       0.005
   0.05263158  0.00000000  0.00000000       0.010
   0.10526316  0.00000000  0.00000000       0.010
   0.15789474  0.00000000  0.00000000       0.010
   0.21052632  0.00000000  0.00000000       0.010
   0.26315789  0.00000000  0.00000000       0.010
   0.31578947  0.00000000  0.00000000       0.010
   0.36842105  0.00000000  0.00000000       0.010
   0.42105263  0.00000000  0.00000000       0.010
   0.47368421  0.00000000  0.00000000       0.010
   0.00000000  0.09090909  0.00000000       0.010
   0.05263158  0.09090909  0.00000000       0.010
   0.10526316  0.09090909  0.00000000       0.010
   0.15789474  0.09090909  0.00000000       0.010
   0.21052632  0.09090909  0.00000000       0.010
   0.26315789  0.09090909  0.00000000       0.010
   0.31578947  0.09090909  0.00000000       0.010
   0.36842105  0.09090909  0.00000000       0.010
   0.42105263  0.09090909  0.00000000       0.010
   0.47368421  0.09090909  0.00000000       0.010
  -0.47368421  0.09090909  0.00000000       0.010
  -0.42105263  0.09090909  0.00000000       0.010
  -0.36842105  0.09090909  0.00000000       0.010
  -0.31578947  0.09090909  0.00000000       0.010
  -0.26315789  0.09090909  0.00000000       0.010
  -0.21052632  0.09090909  0.00000000       0.010
  -0.15789474  0.09090909  0.00000000       0.010
  -0.10526316  0.09090909  0.00000000       0.010
  -0.05263158  0.09090909  0.00000000       0.010
   0.00000000  0.18181818  0.00000000       0.010
   0.05263158  0.18181818  0.00000000       0.010
   0.10526316  0.18181818  0.00000000       0.010
   0.15789474  0.18181818  0.00000000       0.010
   0.21052632  0.18181818  0.00000000       0.010
   0.26315789  0.18181818  0.00000000       0.010
   0.31578947  0.18181818  0.00000000       0.010
   0.36842105  0.18181818  0.00000000       0.010
   0.42105263  0.18181818  0.00000000       0.010
   0.47368421  0.18181818  0.00000000       0.010
  -0.47368421  0.18181818  0.00000000       0.010
  -0.42105263  0.18181818  0.00000000       0.010
  -0.36842105  0.18181818  0.00000000       0.010
  -0.31578947  0.18181818  0.00000000       0.010
  -0.26315789  0.18181818  0.00000000       0.010
  -0.21052632  0.18181818  0.00000000       0.010
  -0.15789474  0.18181818  0.00000000       0.010
  -0.10526316  0.18181818  0.00000000       0.010
  -0.05263158  0.18181818  0.00000000       0.010
   0.00000000  0.27272727  0.00000000       0.010
   0.05263158  0.27272727  0.00000000       0.010
   0.10526316  0.27272727  0.00000000       0.010
   0.15789474  0.27272727  0.00000000       0.010
   0.21052632  0.27272727  0.00000000       0.010
   0.26315789  0.27272727  0.00000000       0.010
   0.31578947  0.27272727  0.00000000       0.010
   0.36842105  0.27272727  0.00000000       0.010
   0.42105263  0.27272727  0.00000000       0.010
   0.47368421  0.27272727  0.00000000       0.010
  -0.47368421  0.27272727  0.00000000       0.010
  -0.42105263  0.27272727  0.00000000       0.010
  -0.36842105  0.27272727  0.00000000       0.010
  -0.31578947  0.27272727  0.00000000       0.010
  -0.26315789  0.27272727  0.00000000       0.010
  -0.21052632  0.27272727  0.00000000       0.010
  -0.15789474  0.27272727  0.00000000       0.010
  -0.10526316  0.27272727  0.00000000       0.010
  -0.05263158  0.27272727  0.00000000       0.010
   0.00000000  0.36363636  0.00000000       0.010
   0.05263158  0.36363636  0.00000000       0.010
   0.10526316  0.36363636  0.00000000       0.010
   0.15789474  0.36363636  0.00000000       0.010
   0.21052632  0.36363636  0.00000000       0.010
   0.26315789  0.36363636  0.00000000       0.010
   0.31578947  0.36363636  0.00000000       0.010
   0.36842105  0.36363636  0.00000000       0.010
   0.42105263  0.36363636  0.00000000       0.010
   0.47368421  0.36363636  0.00000000       0.010
  -0.47368421  0.36363636  0.00000000       0.010
  -0.42105263  0.36363636  0.00000000       0.010
  -0.36842105  0.36363636  0.00000000       0.010
  -0.31578947  0.36363636  0.00000000       0.010
  -0.26315789  0.36363636  0.00000000       0.010
  -0.21052632  0.36363636  0.00000000       0.010
  -0.15789474  0.36363636  0.00000000       0.010
  -0.10526316  0.36363636  0.00000000       0.010
  -0.05263158  0.36363636  0.00000000       0.010
   0.00000000  0.45454545  0.00000000       0.010
   0.05263158  0.45454545  0.00000000       0.010
   0.10526316  0.45454545  0.00000000       0.010
   0.15789474  0.45454545  0.00000000       0.010
   0.21052632  0.45454545  0.00000000       0.010
   0.26315789  0.45454545  0.00000000       0.010
   0.31578947  0.45454545  0.00000000       0.010
   0.36842105  0.45454545  0.00000000       0.010
   0.42105263  0.45454545  0.00000000       0.010
   0.47368421  0.45454545  0.00000000       0.010
  -0.47368421  0.45454545  0.00000000       0.010
  -0.42105263  0.45454545  0.00000000       0.010
  -0.36842105  0.45454545  0.00000000       0.010
  -0.31578947  0.45454545  0.00000000       0.010
  -0.26315789  0.45454545  0.00000000       0.010
  -0.21052632  0.45454545  0.00000000       0.010
  -0.15789474  0.45454545  0.00000000       0.010
  -0.10526316  0.45454545  0.00000000       0.010
  -0.05263158  0.45454545  0.00000000       0.010
 
 position of ions in fractional coordinates (direct lattice) 
   0.49999997  0.16666654  0.50703967
   0.00000000  0.66666651  0.50703967
   0.49999997  0.83333325  0.57974952
   0.00000000  0.33333322  0.57974952
   0.50000000  0.83333325  0.41321075
   0.00000000  0.33333325  0.41321075
 
 position of ions in cartesian coordinates  (Angst):
   1.68179967  0.97098689 10.26886559
   0.00000000  3.88394963 10.26886559
   1.68179967  4.85493773 11.74142843
   0.00000000  1.94197464 11.74142843
   1.68179977  4.85493773  8.36858719
   0.00000000  1.94197481  8.36858719
 


--------------------------------------------------------------------------------------------------------


 k-point  1 :   0.0000 0.0000 0.0000  plane waves:   13271
 k-point  2 :   0.0526 0.0000 0.0000  plane waves:   13281
 k-point  3 :   0.1053 0.0000 0.0000  plane waves:   13273
 k-point  4 :   0.1579 0.0000 0.0000  plane waves:   13287
 k-point  5 :   0.2105 0.0000 0.0000  plane waves:   13253
 k-point  6 :   0.2632 0.0000 0.0000  plane waves:   13235
 k-point  7 :   0.3158 0.0000 0.0000  plane waves:   13254
 k-point  8 :   0.3684 0.0000 0.0000  plane waves:   13242
 k-point  9 :   0.4211 0.0000 0.0000  plane waves:   13240
 k-point 10 :   0.4737 0.0000 0.0000  plane waves:   13218
 k-point 11 :   0.0000 0.0909 0.0000  plane waves:   13295
 k-point 12 :   0.0526 0.0909 0.0000  plane waves:   13279
 k-point 13 :   0.1053 0.0909 0.0000  plane waves:   13287
 k-point 14 :   0.1579 0.0909 0.0000  plane waves:   13275
 k-point 15 :   0.2105 0.0909 0.0000  plane waves:   13259
 k-point 16 :   0.2632 0.0909 0.0000  plane waves:   13250
 k-point 17 :   0.3158 0.0909 0.0000  plane waves:   13231
 k-point 18 :   0.3684 0.0909 0.0000  plane waves:   13242
 k-point 19 :   0.4211 0.0909 0.0000  plane waves:   13233
 k-point 20 :   0.4737 0.0909 0.0000  plane waves:   13229
 k-point 21 :  -0.4737 0.0909 0.0000  plane waves:   13229
 k-point 22 :  -0.4211 0.0909 0.0000  plane waves:   13233
 k-point 23 :  -0.3684 0.0909 0.0000  plane waves:   13242
 k-point 24 :  -0.3158 0.0909 0.0000  plane waves:   13231
 k-point 25 :  -0.2632 0.0909 0.0000  plane waves:   13250
 k-point 26 :  -0.2105 0.0909 0.0000  plane waves:   13259
 k-point 27 :  -0.1579 0.0909 0.0000  plane waves:   13275
 k-point 28 :  -0.1053 0.0909 0.0000  plane waves:   13287
 k-point 29 :  -0.0526 0.0909 0.0000  plane waves:   13279
 k-point 30 :   0.0000 0.1818 0.0000  plane waves:   13273
 k-point 31 :   0.0526 0.1818 0.0000  plane waves:   13273
 k-point 32 :   0.1053 0.1818 0.0000  plane waves:   13255
 k-point 33 :   0.1579 0.1818 0.0000  plane waves:   13240
 k-point 34 :   0.2105 0.1818 0.0000  plane waves:   13243
 k-point 35 :   0.2632 0.1818 0.0000  plane waves:   13229
 k-point 36 :   0.3158 0.1818 0.0000  plane waves:   13226
 k-point 37 :   0.3684 0.1818 0.0000  plane waves:   13247
 k-point 38 :   0.4211 0.1818 0.0000  plane waves:   13248
 k-point 39 :   0.4737 0.1818 0.0000  plane waves:   13236
 k-point 40 :  -0.4737 0.1818 0.0000  plane waves:   13236
 k-point 41 :  -0.4211 0.1818 0.0000  plane waves:   13248
 k-point 42 :  -0.3684 0.1818 0.0000  plane waves:   13247
 k-point 43 :  -0.3158 0.1818 0.0000  plane waves:   13226
 k-point 44 :  -0.2632 0.1818 0.0000  plane waves:   13229
 k-point 45 :  -0.2105 0.1818 0.0000  plane waves:   13243
 k-point 46 :  -0.1579 0.1818 0.0000  plane waves:   13240
 k-point 47 :  -0.1053 0.1818 0.0000  plane waves:   13255
 k-point 48 :  -0.0526 0.1818 0.0000  plane waves:   13273
 k-point 49 :   0.0000 0.2727 0.0000  plane waves:   13247
 k-point 50 :   0.0526 0.2727 0.0000  plane waves:   13261
 k-point 51 :   0.1053 0.2727 0.0000  plane waves:   13256
 k-point 52 :   0.1579 0.2727 0.0000  plane waves:   13243
 k-point 53 :   0.2105 0.2727 0.0000  plane waves:   13227
 k-point 54 :   0.2632 0.2727 0.0000  plane waves:   13235
 k-point 55 :   0.3158 0.2727 0.0000  plane waves:   13217
 k-point 56 :   0.3684 0.2727 0.0000  plane waves:   13236
 k-point 57 :   0.4211 0.2727 0.0000  plane waves:   13258
 k-point 58 :   0.4737 0.2727 0.0000  plane waves:   13249
 k-point 59 :  -0.4737 0.2727 0.0000  plane waves:   13249
 k-point 60 :  -0.4211 0.2727 0.0000  plane waves:   13258
 k-point 61 :  -0.3684 0.2727 0.0000  plane waves:   13236
 k-point 62 :  -0.3158 0.2727 0.0000  plane waves:   13217
 k-point 63 :  -0.2632 0.2727 0.0000  plane waves:   13235
 k-point 64 :  -0.2105 0.2727 0.0000  plane waves:   13227
 k-point 65 :  -0.1579 0.2727 0.0000  plane waves:   13243
 k-point 66 :  -0.1053 0.2727 0.0000  plane waves:   13256
 k-point 67 :  -0.0526 0.2727 0.0000  plane waves:   13261
 k-point 68 :   0.0000 0.3636 0.0000  plane waves:   13235
 k-point 69 :   0.0526 0.3636 0.0000  plane waves:   13243
 k-point 70 :   0.1053 0.3636 0.0000  plane waves:   13249
 k-point 71 :   0.1579 0.3636 0.0000  plane waves:   13242
 k-point 72 :   0.2105 0.3636 0.0000  plane waves:   13228
 k-point 73 :   0.2632 0.3636 0.0000  plane waves:   13224
 k-point 74 :   0.3158 0.3636 0.0000  plane waves:   13223
 k-point 75 :   0.3684 0.3636 0.0000  plane waves:   13248
 k-point 76 :   0.4211 0.3636 0.0000  plane waves:   13256
 k-point 77 :   0.4737 0.3636 0.0000  plane waves:   13252
 k-point 78 :  -0.4737 0.3636 0.0000  plane waves:   13252
 k-point 79 :  -0.4211 0.3636 0.0000  plane waves:   13256
 k-point 80 :  -0.3684 0.3636 0.0000  plane waves:   13248
 k-point 81 :  -0.3158 0.3636 0.0000  plane waves:   13223
 k-point 82 :  -0.2632 0.3636 0.0000  plane waves:   13224
 k-point 83 :  -0.2105 0.3636 0.0000  plane waves:   13228
 k-point 84 :  -0.1579 0.3636 0.0000  plane waves:   13242
 k-point 85 :  -0.1053 0.3636 0.0000  plane waves:   13249
 k-point 86 :  -0.0526 0.3636 0.0000  plane waves:   13243
 k-point 87 :   0.0000 0.4545 0.0000  plane waves:   13264
 k-point 88 :   0.0526 0.4545 0.0000  plane waves:   13223
 k-point 89 :   0.1053 0.4545 0.0000  plane waves:   13212
 k-point 90 :   0.1579 0.4545 0.0000  plane waves:   13223
 k-point 91 :   0.2105 0.4545 0.0000  plane waves:   13224
 k-point 92 :   0.2632 0.4545 0.0000  plane waves:   13236
 k-point 93 :   0.3158 0.4545 0.0000  plane waves:   13228
 k-point 94 :   0.3684 0.4545 0.0000  plane waves:   13238
 k-point 95 :   0.4211 0.4545 0.0000  plane waves:   13254
 k-point 96 :   0.4737 0.4545 0.0000  plane waves:   13284
 k-point 97 :  -0.4737 0.4545 0.0000  plane waves:   13284
 k-point 98 :  -0.4211 0.4545 0.0000  plane waves:   13254
 k-point 99 :  -0.3684 0.4545 0.0000  plane waves:   13238
 k-point ** :  -0.3158 0.4545 0.0000  plane waves:   13228
 k-point ** :  -0.2632 0.4545 0.0000  plane waves:   13236
 k-point ** :  -0.2105 0.4545 0.0000  plane waves:   13224
 k-point ** :  -0.1579 0.4545 0.0000  plane waves:   13223
 k-point ** :  -0.1053 0.4545 0.0000  plane waves:   13212
 k-point ** :  -0.0526 0.4545 0.0000  plane waves:   13223

 maximum and minimum number of plane-waves per node :       571      535

 maximum number of plane-waves:     13295
 maximum index in each direction: 
   IXMAX=    7   IYMAX=   11   IZMAX=   40
   IXMIN=   -7   IYMIN=  -12   IZMIN=  -40


 parallel 3D FFT for wavefunctions:
    minimum data exchange during FFTs selected (reduces bandwidth)
 parallel 3D FFT for charge:
    minimum data exchange during FFTs selected (reduces bandwidth)


 total amount of memory used by VASP MPI-rank0    62433. kBytes
=======================================================================

   base      :      30000. kBytes
   nonl-proj :      25455. kBytes
   fftplans  :       1397. kBytes
   grid      :       2623. kBytes
   one-center:         15. kBytes
   wavefun   :       2943. kBytes
 
     INWAV:  cpu time    0.0000: real time    0.0000
 Broyden mixing: mesh for mixing (old mesh)
   NGX = 13   NGY = 23   NGZ = 81
  (NGX  = 56   NGY  = 96   NGZ  =324)
  gives a total of  24219 points

 initial charge density was supplied:
 charge density of overlapping atoms calculated
 number of electron      36.0000000 magnetization 
 keeping initial charge density in first step


--------------------------------------------------------------------------------------------------------


 Maximum index for augmentation-charges         1251 (set IRDMAX)


--------------------------------------------------------------------------------------------------------


 First call to EWALD:  gamma=   0.241
 Maximum number of real-space cells 5x 3x 1
 Maximum number of reciprocal cells 2x 2x 7

    FEWALD:  cpu time    0.0015: real time    0.0015


--------------------------------------- Iteration      1(   1)  ---------------------------------------


    POTLOK:  cpu time    0.0320: real time    0.0705
    SETDIJ:  cpu time    0.0056: real time    0.0056
     EDDAV:  cpu time    1.1902: real time    1.2009
       DOS:  cpu time    0.0016: real time    0.0016
    --------------------------------------------
      LOOP:  cpu time    1.2294: real time    1.2787

 eigenvalue-minimisations  :  5040
 total energy-change (2. order) : 0.2726308E+03  (-0.1303372E+04)
 number of electron      36.0000000 magnetization 
 augmentation part       36.0000000 magnetization 

 DIPCOR: dipole corrections for dipol
 direction  3 min pos     1,
 dipolmoment           0.000000      0.000000      0.000002 electrons x Angstroem
 Tr[quadrupol]      -124.578074

 energy correction for charged system         0.000000 eV
 dipol+quadrupol energy correction           -0.000000 eV
 added-field ion interaction          0.000000 eV  (added to PSCEN)


 Free energy of the ion-electron system (eV)
  ---------------------------------------------------
  alpha Z        PSCENC =        26.10427626
  Ewald energy   TEWEN  =      4180.52616337
  -Hartree energ DENC   =     -5501.54657241
  -exchange      EXHF   =         0.00000000
  -V(xc)+E(xc)   XCENC  =      -153.08514696
  PAW double counting   =      1381.62273368    -1155.94054365
  entropy T*S    EENTRO =        -0.01707655
  eigenvalues    EBANDS =        59.74521861
  atomic energy  EATOM  =      1435.22174307
  Solvation  Ediel_sol  =         0.00000000
  ---------------------------------------------------
  free energy    TOTEN  =       272.63079542 eV

  energy without entropy =      272.64787197  energy(sigma->0) =      272.63933369


--------------------------------------------------------------------------------------------------------




--------------------------------------- Iteration      1(   2)  ---------------------------------------


     EDDAV:  cpu time    1.3979: real time    1.3983
       DOS:  cpu time    0.0013: real time    0.0013
    --------------------------------------------
      LOOP:  cpu time    1.3993: real time    1.3996

 eigenvalue-minimisations  :  7840
 total energy-change (2. order) :-0.2793576E+03  (-0.2714912E+03)
 number of electron      36.0000000 magnetization 
 augmentation part       36.0000000 magnetization 

 DIPCOR: dipole corrections for dipol
 direction  3 min pos     1,
 dipolmoment           0.000000      0.000000      0.000002 electrons x Angstroem
 Tr[quadrupol]      -124.578074

 energy correction for charged system         0.000000 eV
 dipol+quadrupol energy correction           -0.000000 eV
 added-field ion interaction          0.000000 eV  (added to PSCEN)


 Free energy of the ion-electron system (eV)
  ---------------------------------------------------
  alpha Z        PSCENC =        26.10427626
  Ewald energy   TEWEN  =      4180.52616337
  -Hartree energ DENC   =     -5501.54657241
  -exchange      EXHF   =         0.00000000
  -V(xc)+E(xc)   XCENC  =      -153.08514696
  PAW double counting   =      1381.62273368    -1155.94054365
  entropy T*S    EENTRO =        -0.00004194
  eigenvalues    EBANDS =      -219.62941226
  atomic energy  EATOM  =      1435.22174307
  Solvation  Ediel_sol  =         0.00000000
  ---------------------------------------------------
  free energy    TOTEN  =        -6.72680084 eV

  energy without entropy =       -6.72675890  energy(sigma->0) =       -6.72677987


--------------------------------------------------------------------------------------------------------




--------------------------------------- Iteration      1(   3)  ---------------------------------------


     EDDAV:  cpu time    1.2820: real time    1.2823
       DOS:  cpu time    0.0011: real time    0.0011
    --------------------------------------------
      LOOP:  cpu time    1.2830: real time    1.2833

 eigenvalue-minimisations  :  6656
 total energy-change (2. order) :-0.3402164E+02  (-0.3373404E+02)
 number of electron      36.0000000 magnetization 
 augmentation part       36.0000000 magnetization 

 DIPCOR: dipole corrections for dipol
 direction  3 min pos     1,
 dipolmoment           0.000000      0.000000      0.000002 electrons x Angstroem
 Tr[quadrupol]      -124.578074

 energy correction for charged system         0.000000 eV
 dipol+quadrupol energy correction           -0.000000 eV
 added-field ion interaction          0.000000 eV  (added to PSCEN)


 Free energy of the ion-electron system (eV)
  ---------------------------------------------------
  alpha Z        PSCENC =        26.10427626
  Ewald energy   TEWEN  =      4180.52616337
  -Hartree energ DENC   =     -5501.54657241
  -exchange      EXHF   =         0.00000000
  -V(xc)+E(xc)   XCENC  =      -153.08514696
  PAW double counting   =      1381.62273368    -1155.94054365
  entropy T*S    EENTRO =        -0.00000000
  eigenvalues    EBANDS =      -253.65109339
  atomic energy  EATOM  =      1435.22174307
  Solvation  Ediel_sol  =         0.00000000
  ---------------------------------------------------
  free energy    TOTEN  =       -40.74844003 eV

  energy without entropy =      -40.74844003  energy(sigma->0) =      -40.74844003


--------------------------------------------------------------------------------------------------------




--------------------------------------- Iteration      1(   4)  ---------------------------------------


     EDDAV:  cpu time    1.3459: real time    1.3465
       DOS:  cpu time    0.0011: real time    0.0011
    --------------------------------------------
      LOOP:  cpu time    1.3470: real time    1.3476

 eigenvalue-minimisations  :  7408
 total energy-change (2. order) :-0.1140586E+01  (-0.1135161E+01)
 number of electron      36.0000000 magnetization 
 augmentation part       36.0000000 magnetization 

 DIPCOR: dipole corrections for dipol
 direction  3 min pos     1,
 dipolmoment           0.000000      0.000000      0.000002 electrons x Angstroem
 Tr[quadrupol]      -124.578074

 energy correction for charged system         0.000000 eV
 dipol+quadrupol energy correction           -0.000000 eV
 added-field ion interaction          0.000000 eV  (added to PSCEN)


 Free energy of the ion-electron system (eV)
  ---------------------------------------------------
  alpha Z        PSCENC =        26.10427626
  Ewald energy   TEWEN  =      4180.52616337
  -Hartree energ DENC   =     -5501.54657241
  -exchange      EXHF   =         0.00000000
  -V(xc)+E(xc)   XCENC  =      -153.08514696
  PAW double counting   =      1381.62273368    -1155.94054365
  entropy T*S    EENTRO =        -0.00000000
  eigenvalues    EBANDS =      -254.79167952
  atomic energy  EATOM  =      1435.22174307
  Solvation  Ediel_sol  =         0.00000000
  ---------------------------------------------------
  free energy    TOTEN  =       -41.88902616 eV

  energy without entropy =      -41.88902616  energy(sigma->0) =      -41.88902616


--------------------------------------------------------------------------------------------------------




--------------------------------------- Iteration      1(   5)  ---------------------------------------


     EDDAV:  cpu time    1.3490: real time    1.3496
       DOS:  cpu time    0.0012: real time    0.0012
    CHARGE:  cpu time    0.0440: real time    0.0440
    MIXING:  cpu time    0.0005: real time    0.0005
    --------------------------------------------
      LOOP:  cpu time    1.3946: real time    1.3953

 eigenvalue-minimisations  :  7504
 total energy-change (2. order) :-0.3357349E-01  (-0.3355490E-01)
 number of electron      36.0000000 magnetization 
 augmentation part       -2.3396814 magnetization 

 DIPCOR: dipole corrections for dipol
 direction  3 min pos     1,
 dipolmoment           0.000000      0.000000      0.000002 electrons x Angstroem
 Tr[quadrupol]      -124.578074

 energy correction for charged system         0.000000 eV
 dipol+quadrupol energy correction           -0.000000 eV
 added-field ion interaction          0.000000 eV  (added to PSCEN)


 Broyden mixing:
  rms(total) = 0.26969E+01    rms(broyden)= 0.26969E+01
  rms(prec ) = 0.27376E+01
  weight for this iteration     100.00

 Free energy of the ion-electron system (eV)
  ---------------------------------------------------
  alpha Z        PSCENC =        26.10427626
  Ewald energy   TEWEN  =      4180.52616337
  -Hartree energ DENC   =     -5501.54657241
  -exchange      EXHF   =         0.00000000
  -V(xc)+E(xc)   XCENC  =      -153.08514696
  PAW double counting   =      1381.62273368    -1155.94054365
  entropy T*S    EENTRO =        -0.00000000
  eigenvalues    EBANDS =      -254.82525301
  atomic energy  EATOM  =      1435.22174307
  Solvation  Ediel_sol  =         0.00000000
  ---------------------------------------------------
  free energy    TOTEN  =       -41.92259965 eV

  energy without entropy =      -41.92259965  energy(sigma->0) =      -41.92259965


--------------------------------------------------------------------------------------------------------




--------------------------------------- Iteration      1(   6)  ---------------------------------------


    POTLOK:  cpu time    0.0126: real time    0.0126
    SETDIJ:  cpu time    0.0020: real time    0.0020
     EDDAV:  cpu time    1.3061: real time    1.3063
       DOS:  cpu time    0.0014: real time    0.0014
    CHARGE:  cpu time    0.0427: real time    0.0427
    MIXING:  cpu time    0.0003: real time    0.0003
    --------------------------------------------
      LOOP:  cpu time    1.3652: real time    1.3654

 eigenvalue-minimisations  :  7120
 total energy-change (2. order) : 0.1944964E+01  (-0.1196189E+01)
 number of electron      36.0000000 magnetization 
 augmentation part       -1.4123017 magnetization 

 DIPCOR: dipole corrections for dipol
 direction  3 min pos     1,
 dipolmoment           0.000000      0.000000      0.188450 electrons x Angstroem
 Tr[quadrupol]      -124.617112

 energy correction for charged system         0.000000 eV
 dipol+quadrupol energy correction           -0.008096 eV
 added-field ion interaction          0.000001 eV  (added to PSCEN)


 Broyden mixing:
  rms(total) = 0.11692E+01    rms(broyden)= 0.11692E+01
  rms(prec ) = 0.12025E+01
  weight for this iteration     100.00

 eigenvalues of (default mixing * dielectric matrix)
  average eigenvalue GAMMA=   1.2112
  1.2112

 Free energy of the ion-electron system (eV)
  ---------------------------------------------------
  alpha Z        PSCENC =        26.09618135
  Ewald energy   TEWEN  =      4180.52616337
  -Hartree energ DENC   =     -5500.98872281
  -exchange      EXHF   =         0.00000000
  -V(xc)+E(xc)   XCENC  =      -151.81799819
  PAW double counting   =      1936.23191610    -1712.04774564
  entropy T*S    EENTRO =        -0.00000023
  eigenvalues    EBANDS =      -253.19917270
  atomic energy  EATOM  =      1435.22174307
  Solvation  Ediel_sol  =         0.00000000
  ---------------------------------------------------
  free energy    TOTEN  =       -39.97763568 eV

  energy without entropy =      -39.97763545  energy(sigma->0) =      -39.97763556


--------------------------------------------------------------------------------------------------------




--------------------------------------- Iteration      1(   7)  ---------------------------------------


    POTLOK:  cpu time    0.0126: real time    0.0126
    SETDIJ:  cpu time    0.0020: real time    0.0020
     EDDAV:  cpu time    1.3005: real time    1.3010
       DOS:  cpu time    0.0012: real time    0.0012
    CHARGE:  cpu time    0.0429: real time    0.0429
    MIXING:  cpu time    0.0004: real time    0.0004
    --------------------------------------------
      LOOP:  cpu time    1.3596: real time    1.3601

 eigenvalue-minimisations  :  6864
 total energy-change (2. order) : 0.1897635E+00  (-0.6837975E+00)
 number of electron      36.0000000 magnetization 
 augmentation part       -2.0190685 magnetization 

 DIPCOR: dipole corrections for dipol
 direction  3 min pos     1,
 dipolmoment           0.000000      0.000000      0.185833 electrons x Angstroem
 Tr[quadrupol]      -125.385453

 energy correction for charged system         0.000000 eV
 dipol+quadrupol energy correction           -0.007873 eV
 added-field ion interaction          0.000001 eV  (added to PSCEN)


 Broyden mixing:
  rms(total) = 0.72590E+00    rms(broyden)= 0.72590E+00
  rms(prec ) = 0.75917E+00
  weight for this iteration     100.00

 eigenvalues of (default mixing * dielectric matrix)
  average eigenvalue GAMMA=   1.2033
  1.7943  0.6123

 Free energy of the ion-electron system (eV)
  ---------------------------------------------------
  alpha Z        PSCENC =        26.09640466
  Ewald energy   TEWEN  =      4180.52616337
  -Hartree energ DENC   =     -5516.26078091
  -exchange      EXHF   =         0.00000000
  -V(xc)+E(xc)   XCENC  =      -151.99293763
  PAW double counting   =      2475.88912259    -2252.30920347
  entropy T*S    EENTRO =        -0.00000000
  eigenvalues    EBANDS =      -236.95838385
  atomic energy  EATOM  =      1435.22174307
  Solvation  Ediel_sol  =         0.00000000
  ---------------------------------------------------
  free energy    TOTEN  =       -39.78787218 eV

  energy without entropy =      -39.78787218  energy(sigma->0) =      -39.78787218


--------------------------------------------------------------------------------------------------------




--------------------------------------- Iteration      1(   8)  ---------------------------------------


    POTLOK:  cpu time    0.0126: real time    0.0126
    SETDIJ:  cpu time    0.0021: real time    0.0021
     EDDAV:  cpu time    1.2838: real time    1.2843
       DOS:  cpu time    0.0011: real time    0.0011
    CHARGE:  cpu time    0.0429: real time    0.0429
    MIXING:  cpu time    0.0004: real time    0.0004
    --------------------------------------------
      LOOP:  cpu time    1.3429: real time    1.3433

 eigenvalue-minimisations  :  6880
 total energy-change (2. order) : 0.3460242E+00  (-0.1536700E+00)
 number of electron      36.0000000 magnetization 
 augmentation part       -1.7200811 magnetization 

 DIPCOR: dipole corrections for dipol
 direction  3 min pos     1,
 dipolmoment           0.000000      0.000000      0.136676 electrons x Angstroem
 Tr[quadrupol]      -125.352386

 energy correction for charged system         0.000000 eV
 dipol+quadrupol energy correction           -0.004259 eV
 added-field ion interaction          0.000001 eV  (added to PSCEN)


 Broyden mixing:
  rms(total) = 0.26552E+00    rms(broyden)= 0.26552E+00
  rms(prec ) = 0.27135E+00
  weight for this iteration     100.00

 eigenvalues of (default mixing * dielectric matrix)
  average eigenvalue GAMMA=   1.1001
  2.0532  0.6576  0.5894

 Free energy of the ion-electron system (eV)
  ---------------------------------------------------
  alpha Z        PSCENC =        26.10001850
  Ewald energy   TEWEN  =      4180.52616337
  -Hartree energ DENC   =     -5514.02949730
  -exchange      EXHF   =         0.00000000
  -V(xc)+E(xc)   XCENC  =      -151.51960133
  PAW double counting   =      2823.22112299    -2600.19412939
  entropy T*S    EENTRO =        -0.00000000
  eigenvalues    EBANDS =      -238.76766786
  atomic energy  EATOM  =      1435.22174307
  Solvation  Ediel_sol  =         0.00000000
  ---------------------------------------------------
  free energy    TOTEN  =       -39.44184795 eV

  energy without entropy =      -39.44184795  energy(sigma->0) =      -39.44184795


--------------------------------------------------------------------------------------------------------




--------------------------------------- Iteration      1(   9)  ---------------------------------------


    POTLOK:  cpu time    0.0126: real time    0.0126
    SETDIJ:  cpu time    0.0020: real time    0.0020
     EDDAV:  cpu time    1.2722: real time    1.2725
       DOS:  cpu time    0.0011: real time    0.0011
    CHARGE:  cpu time    0.0431: real time    0.0431
    MIXING:  cpu time    0.0004: real time    0.0004
    --------------------------------------------
      LOOP:  cpu time    1.3315: real time    1.3317

 eigenvalue-minimisations  :  6640
 total energy-change (2. order) : 0.1524098E-01  (-0.1054449E-01)
 number of electron      36.0000000 magnetization 
 augmentation part       -1.7113924 magnetization 

 DIPCOR: dipole corrections for dipol
 direction  3 min pos     1,
 dipolmoment           0.000000      0.000000      0.164440 electrons x Angstroem
 Tr[quadrupol]      -125.460657

 energy correction for charged system         0.000000 eV
 dipol+quadrupol energy correction           -0.006165 eV
 added-field ion interaction          0.000001 eV  (added to PSCEN)


 Broyden mixing:
  rms(total) = 0.97665E-01    rms(broyden)= 0.97665E-01
  rms(prec ) = 0.10022E+00
  weight for this iteration     100.00

 eigenvalues of (default mixing * dielectric matrix)
  average eigenvalue GAMMA=   1.1527
  2.0147  0.9960  0.9960  0.6041

 Free energy of the ion-electron system (eV)
  ---------------------------------------------------
  alpha Z        PSCENC =        26.09811279
  Ewald energy   TEWEN  =      4180.52616337
  -Hartree energ DENC   =     -5516.34152154
  -exchange      EXHF   =         0.00000000
  -V(xc)+E(xc)   XCENC  =      -151.40929590
  PAW double counting   =      2950.77707157    -2727.92661076
  entropy T*S    EENTRO =        -0.00000000
  eigenvalues    EBANDS =      -236.37226957
  atomic energy  EATOM  =      1435.22174307
  Solvation  Ediel_sol  =         0.00000000
  ---------------------------------------------------
  free energy    TOTEN  =       -39.42660697 eV

  energy without entropy =      -39.42660697  energy(sigma->0) =      -39.42660697


--------------------------------------------------------------------------------------------------------




--------------------------------------- Iteration      1(  10)  ---------------------------------------


    POTLOK:  cpu time    0.0122: real time    0.0122
    SETDIJ:  cpu time    0.0020: real time    0.0023
     EDDAV:  cpu time    1.3519: real time    1.3521
       DOS:  cpu time    0.0011: real time    0.0011
    CHARGE:  cpu time    0.0447: real time    0.0447
    MIXING:  cpu time    0.0005: real time    0.0005
    --------------------------------------------
      LOOP:  cpu time    1.4124: real time    1.4129

 eigenvalue-minimisations  :  7376
 total energy-change (2. order) : 0.2600025E-02  (-0.2189439E-02)
 number of electron      36.0000000 magnetization 
 augmentation part       -1.7315497 magnetization 

 DIPCOR: dipole corrections for dipol
 direction  3 min pos     1,
 dipolmoment           0.000000      0.000000      0.167849 electrons x Angstroem
 Tr[quadrupol]      -125.539638

 energy correction for charged system         0.000000 eV
 dipol+quadrupol energy correction           -0.006423 eV
 added-field ion interaction          0.000001 eV  (added to PSCEN)


 Broyden mixing:
  rms(total) = 0.82925E-01    rms(broyden)= 0.82925E-01
  rms(prec ) = 0.83998E-01
  weight for this iteration     100.00

 eigenvalues of (default mixing * dielectric matrix)
  average eigenvalue GAMMA=   1.3256
  2.1733  2.1733  1.0402  0.6205  0.6205

 Free energy of the ion-electron system (eV)
  ---------------------------------------------------
  alpha Z        PSCENC =        26.09785460
  Ewald energy   TEWEN  =      4180.52616337
  -Hartree energ DENC   =     -5518.20597965
  -exchange      EXHF   =         0.00000000
  -V(xc)+E(xc)   XCENC  =      -151.36769779
  PAW double counting   =      2971.98035001    -2749.18856949
  entropy T*S    EENTRO =        -0.00000000
  eigenvalues    EBANDS =      -234.48787107
  atomic energy  EATOM  =      1435.22174307
  Solvation  Ediel_sol  =         0.00000000
  ---------------------------------------------------
  free energy    TOTEN  =       -39.42400694 eV

  energy without entropy =      -39.42400694  energy(sigma->0) =      -39.42400694


--------------------------------------------------------------------------------------------------------




--------------------------------------- Iteration      1(  11)  ---------------------------------------


    POTLOK:  cpu time    0.0133: real time    0.0133
    SETDIJ:  cpu time    0.0021: real time    0.0021
     EDDAV:  cpu time    1.3549: real time    1.3553
       DOS:  cpu time    0.0012: real time    0.0012
    CHARGE:  cpu time    0.0430: real time    0.0430
    MIXING:  cpu time    0.0004: real time    0.0004
    --------------------------------------------
      LOOP:  cpu time    1.4149: real time    1.4153

 eigenvalue-minimisations  :  7400
 total energy-change (2. order) : 0.1343591E-02  (-0.3859961E-03)
 number of electron      36.0000000 magnetization 
 augmentation part       -1.7249048 magnetization 

 DIPCOR: dipole corrections for dipol
 direction  3 min pos     1,
 dipolmoment           0.000000      0.000000      0.159938 electrons x Angstroem
 Tr[quadrupol]      -125.610418

 energy correction for charged system         0.000000 eV
 dipol+quadrupol energy correction           -0.005832 eV
 added-field ion interaction          0.000001 eV  (added to PSCEN)


 Broyden mixing:
  rms(total) = 0.47635E-01    rms(broyden)= 0.47635E-01
  rms(prec ) = 0.49215E-01
  weight for this iteration     100.00

 eigenvalues of (default mixing * dielectric matrix)
  average eigenvalue GAMMA=   1.3109
  2.3636  2.3636  1.0446  0.6113  0.7413  0.7413

 Free energy of the ion-electron system (eV)
  ---------------------------------------------------
  alpha Z        PSCENC =        26.09844566
  Ewald energy   TEWEN  =      4180.52616337
  -Hartree energ DENC   =     -5519.70262999
  -exchange      EXHF   =         0.00000000
  -V(xc)+E(xc)   XCENC  =      -151.32677516
  PAW double counting   =      2989.64360331    -2766.89671850
  entropy T*S    EENTRO =        -0.00000000
  eigenvalues    EBANDS =      -232.98649511
  atomic energy  EATOM  =      1435.22174307
  Solvation  Ediel_sol  =         0.00000000
  ---------------------------------------------------
  free energy    TOTEN  =       -39.42266335 eV

  energy without entropy =      -39.42266335  energy(sigma->0) =      -39.42266335


--------------------------------------------------------------------------------------------------------




--------------------------------------- Iteration      1(  12)  ---------------------------------------


    POTLOK:  cpu time    0.0128: real time    0.0128
    SETDIJ:  cpu time    0.0020: real time    0.0020
     EDDAV:  cpu time    1.3256: real time    1.3263
       DOS:  cpu time    0.0011: real time    0.0011
    CHARGE:  cpu time    0.0429: real time    0.0429
    MIXING:  cpu time    0.0005: real time    0.0005
    --------------------------------------------
      LOOP:  cpu time    1.3848: real time    1.3855

 eigenvalue-minimisations  :  7176
 total energy-change (2. order) : 0.8073881E-03  (-0.4134889E-03)
 number of electron      36.0000000 magnetization 
 augmentation part       -1.7286377 magnetization 

 DIPCOR: dipole corrections for dipol
 direction  3 min pos     1,
 dipolmoment           0.000000      0.000000      0.164752 electrons x Angstroem
 Tr[quadrupol]      -125.675141

 energy correction for charged system         0.000000 eV
 dipol+quadrupol energy correction           -0.006188 eV
 added-field ion interaction          0.000001 eV  (added to PSCEN)


 Broyden mixing:
  rms(total) = 0.15799E-01    rms(broyden)= 0.15799E-01
  rms(prec ) = 0.17877E-01
  weight for this iteration     100.00

 eigenvalues of (default mixing * dielectric matrix)
  average eigenvalue GAMMA=   1.2212
  2.3300  2.3300  1.0800  0.8373  0.8373  0.5671  0.5671

 Free energy of the ion-electron system (eV)
  ---------------------------------------------------
  alpha Z        PSCENC =        26.09808937
  Ewald energy   TEWEN  =      4180.52616337
  -Hartree energ DENC   =     -5521.14899651
  -exchange      EXHF   =         0.00000000
  -V(xc)+E(xc)   XCENC  =      -151.30462401
  PAW double counting   =      2988.82831075    -2766.09364208
  entropy T*S    EENTRO =        -0.00000000
  eigenvalues    EBANDS =      -231.54889991
  atomic energy  EATOM  =      1435.22174307
  Solvation  Ediel_sol  =         0.00000000
  ---------------------------------------------------
  free energy    TOTEN  =       -39.42185596 eV

  energy without entropy =      -39.42185596  energy(sigma->0) =      -39.42185596


--------------------------------------------------------------------------------------------------------




--------------------------------------- Iteration      1(  13)  ---------------------------------------


    POTLOK:  cpu time    0.0122: real time    0.0122
    SETDIJ:  cpu time    0.0020: real time    0.0020
     EDDAV:  cpu time    1.3234: real time    1.3254
       DOS:  cpu time    0.0011: real time    0.0011
    CHARGE:  cpu time    0.0430: real time    0.0430
    MIXING:  cpu time    0.0005: real time    0.0005
    --------------------------------------------
      LOOP:  cpu time    1.3823: real time    1.3843

 eigenvalue-minimisations  :  7208
 total energy-change (2. order) : 0.1539668E-03  (-0.2332315E-03)
 number of electron      36.0000000 magnetization 
 augmentation part       -1.7242153 magnetization 

 DIPCOR: dipole corrections for dipol
 direction  3 min pos     1,
 dipolmoment           0.000000      0.000000      0.164432 electrons x Angstroem
 Tr[quadrupol]      -125.693987

 energy correction for charged system         0.000000 eV
 dipol+quadrupol energy correction           -0.006164 eV
 added-field ion interaction          0.000001 eV  (added to PSCEN)


 Broyden mixing:
  rms(total) = 0.12059E-01    rms(broyden)= 0.12059E-01
  rms(prec ) = 0.13912E-01
  weight for this iteration     100.00

 eigenvalues of (default mixing * dielectric matrix)
  average eigenvalue GAMMA=   1.2160
  2.3441  2.3441  1.5489  1.1001  0.7207  0.6596  0.6596  0.3510

 Free energy of the ion-electron system (eV)
  ---------------------------------------------------
  alpha Z        PSCENC =        26.09811338
  Ewald energy   TEWEN  =      4180.52616337
  -Hartree energ DENC   =     -5521.52628922
  -exchange      EXHF   =         0.00000000
  -V(xc)+E(xc)   XCENC  =      -151.29578208
  PAW double counting   =      2989.16476980    -2766.43079973
  entropy T*S    EENTRO =        -0.00000000
  eigenvalues    EBANDS =      -231.17962059
  atomic energy  EATOM  =      1435.22174307
  Solvation  Ediel_sol  =         0.00000000
  ---------------------------------------------------
  free energy    TOTEN  =       -39.42170200 eV

  energy without entropy =      -39.42170200  energy(sigma->0) =      -39.42170200


--------------------------------------------------------------------------------------------------------




--------------------------------------- Iteration      1(  14)  ---------------------------------------


    POTLOK:  cpu time    0.0124: real time    0.0124
    SETDIJ:  cpu time    0.0020: real time    0.0020
     EDDAV:  cpu time    1.3103: real time    1.3107
       DOS:  cpu time    0.0011: real time    0.0011
    CHARGE:  cpu time    0.0426: real time    0.0426
[...]
     12      -4.4671      2.00000
     13      -3.4820      2.00000
     14      -3.4645      2.00000
     15      -2.6748      2.00000
     16      -2.3572      2.00000
     17      -2.1306      2.00000
     18      -1.9568      2.00000
     19       0.0656      0.00000
     20       0.1138      0.00000
     21       0.1670      0.00000
     22       0.2856      0.00000
     23       1.6725      0.00000
     24       1.6894      0.00000

 k-point    96 :       0.4737    0.4545    0.0000
  band No.  band energies     occupation 
      1     -13.7252      2.00000
      2     -13.7109      2.00000
      3     -12.2759      2.00000
      4     -12.2340      2.00000
      5      -7.4505      2.00000
      6      -7.4145      2.00000
      7      -6.2668      2.00000
      8      -6.2521      2.00000
      9      -5.2449      2.00000
     10      -5.2443      2.00000
     11      -4.5154      2.00000
     12      -4.4977      2.00000
     13      -3.4844      2.00000
     14      -3.4804      2.00000
     15      -2.4223      2.00000
     16      -2.2642      2.00000
     17      -2.1027      2.00000
     18      -1.9935      2.00000
     19       0.0867      0.00000
     20       0.1041      0.00000
     21       0.2416      0.00000
     22       0.2923      0.00000
     23       1.6595      0.00000
     24       1.6655      0.00000

 k-point    97 :      -0.4737    0.4545    0.0000
  band No.  band energies     occupation 
      1     -13.7252      2.00000
      2     -13.7109      2.00000
      3     -12.2759      2.00000
      4     -12.2340      2.00000
      5      -7.4505      2.00000
      6      -7.4145      2.00000
      7      -6.2668      2.00000
      8      -6.2521      2.00000
      9      -5.2449      2.00000
     10      -5.2443      2.00000
     11      -4.5154      2.00000
     12      -4.4977      2.00000
     13      -3.4844      2.00000
     14      -3.4804      2.00000
     15      -2.4223      2.00000
     16      -2.2642      2.00000
     17      -2.1027      2.00000
     18      -1.9935      2.00000
     19       0.0867      0.00000
     20       0.1041      0.00000
     21       0.2416      0.00000
     22       0.2923      0.00000
     23       1.6595      0.00000
     24       1.6655      0.00000

 k-point    98 :      -0.4211    0.4545    0.0000
  band No.  band energies     occupation 
      1     -13.7733      2.00000
      2     -13.7305      2.00000
      3     -12.4159      2.00000
      4     -12.2993      2.00000
      5      -7.2978      2.00000
      6      -7.2009      2.00000
      7      -6.2191      2.00000
      8      -6.1733      2.00000
      9      -5.2397      2.00000
     10      -5.2372      2.00000
     11      -4.5254      2.00000
     12      -4.4671      2.00000
     13      -3.4820      2.00000
     14      -3.4645      2.00000
     15      -2.6748      2.00000
     16      -2.3572      2.00000
     17      -2.1306      2.00000
     18      -1.9568      2.00000
     19       0.0656      0.00000
     20       0.1138      0.00000
     21       0.1670      0.00000
     22       0.2856      0.00000
     23       1.6725      0.00000
     24       1.6894      0.00000

 k-point    99 :      -0.3684    0.4545    0.0000
  band No.  band energies     occupation 
      1     -13.8517      2.00000
      2     -13.7809      2.00000
      3     -12.6182      2.00000
      4     -12.4470      2.00000
      5      -7.0001      2.00000
      6      -6.8710      2.00000
      7      -6.1050      2.00000
      8      -6.0213      2.00000
      9      -5.2403      2.00000
     10      -5.2251      2.00000
     11      -4.5494      2.00000
     12      -4.4435      2.00000
     13      -3.4479      2.00000
     14      -3.4111      2.00000
     15      -2.9619      2.00000
     16      -2.5942      2.00000
     17      -2.1189      2.00000
     18      -1.9824      2.00000
     19       0.0041      0.00000
     20       0.0099      0.00000
     21       0.2022      0.00000
     22       0.2640      0.00000
     23       1.5694      0.00000
     24       1.6084      0.00000

 k-point   100 :      -0.3158    0.4545    0.0000
  band No.  band energies     occupation 
      1     -13.9543      2.00000
      2     -13.8560      2.00000
      3     -12.8419      2.00000
      4     -12.6371      2.00000
      5      -6.6473      2.00000
      6      -6.5245      2.00000
      7      -5.9131      2.00000
      8      -5.7837      2.00000
      9      -5.2451      2.00000
     10      -5.2219      2.00000
     11      -4.5894      2.00000
     12      -4.4456      2.00000
     13      -3.3555      2.00000
     14      -3.3408      2.00000
     15      -3.1939      2.00000
     16      -2.8336      2.00000
     17      -2.1122      2.00000
     18      -2.0262      2.00000
     19      -0.1182      0.00000
     20      -0.1180      0.00000
     21       0.2682      0.00000
     22       0.2762      0.00000
     23       1.3573      0.00000
     24       1.4263      0.00000

 k-point   101 :      -0.2632    0.4545    0.0000
  band No.  band energies     occupation 
      1     -14.0720      2.00000
      2     -13.9472      2.00000
      3     -13.0555      2.00000
      4     -12.8334      2.00000
      5      -6.3520      2.00000
      6      -6.2613      2.00000
      7      -5.6479      2.00000
      8      -5.5428      2.00000
      9      -5.2350      2.00000
     10      -5.1626      2.00000
     11      -4.6066      2.00000
     12      -4.4576      2.00000
     13      -3.4547      2.00000
     14      -3.2240      2.00000
     15      -3.1413      2.00000
     16      -3.0273      2.00000
     17      -2.0718      2.00000
     18      -2.0443      2.00000
     19      -0.2471      0.00000
     20      -0.2215      0.00000
     21       0.3024      0.00000
     22       0.3329      0.00000
     23       1.1521      0.00000
     24       1.1938      0.00000

 k-point   102 :      -0.2105    0.4545    0.0000
  band No.  band energies     occupation 
      1     -14.1934      2.00000
      2     -14.0442      2.00000
      3     -13.2398      2.00000
      4     -13.0113      2.00000
      5      -6.1762      2.00000
      6      -6.1272      2.00000
      7      -5.4750      2.00000
      8      -5.4668      2.00000
      9      -5.1628      2.00000
     10      -4.8557      2.00000
     11      -4.5753      2.00000
     12      -4.4480      2.00000
     13      -3.4886      2.00000
     14      -3.1792      2.00000
     15      -3.0647      2.00000
     16      -3.0595      2.00000
     17      -2.0180      2.00000
     18      -1.9889      2.00000
     19      -0.3245      0.00000
     20      -0.2621      0.00000
     21       0.3262      0.00000
     22       0.3945      0.00000
     23       0.9885      0.00000
     24       1.0039      0.00000

 k-point   103 :      -0.1579    0.4545    0.0000
  band No.  band energies     occupation 
      1     -14.3054      2.00000
      2     -14.1355      2.00000
      3     -13.3856      2.00000
      4     -13.1566      2.00000
      5      -6.1241      2.00000
      6      -6.1182      2.00000
      7      -5.4674      2.00000
      8      -5.4251      2.00000
      9      -4.9623      2.00000
     10      -4.5562      2.00000
     11      -4.5181      2.00000
     12      -4.3943      2.00000
     13      -3.3341      2.00000
     14      -3.2027      2.00000
     15      -3.0550      2.00000
     16      -2.9717      2.00000
     17      -1.9834      2.00000
     18      -1.9083      2.00000
     19      -0.3142      0.00000
     20      -0.2162      0.00000
     21       0.3557      0.00000
     22       0.4712      0.00000
     23       0.8717      0.00000
     24       0.9563      0.00000

 k-point   104 :      -0.1053    0.4545    0.0000
  band No.  band energies     occupation 
      1     -14.3955      2.00000
      2     -14.2100      2.00000
      3     -13.4899      2.00000
      4     -13.2626      2.00000
      5      -6.1884      2.00000
      6      -6.1410      2.00000
      7      -5.4775      2.00000
      8      -5.3616      2.00000
      9      -4.8431      2.00000
     10      -4.4142      2.00000
     11      -4.4063      2.00000
     12      -4.2708      2.00000
     13      -3.1826      2.00000
     14      -3.1680      2.00000
     15      -3.0159      2.00000
     16      -2.8716      2.00000
     17      -2.0082      2.00000
     18      -1.8920      2.00000
     19      -0.2351      0.00000
     20      -0.1164      0.00000
     21       0.4145      0.00000
     22       0.5807      0.00000
     23       0.8842      0.00000
     24       1.0253      0.00000

 k-point   105 :      -0.0526    0.4545    0.0000
  band No.  band energies     occupation 
      1     -14.4538      2.00000
      2     -14.2587      2.00000
      3     -13.5522      2.00000
      4     -13.3266      2.00000
      5      -6.2496      2.00000
      6      -6.1831      2.00000
      7      -5.4775      2.00000
      8      -5.3183      2.00000
      9      -4.8183      2.00000
     10      -4.3703      2.00000
     11      -4.2472      2.00000
     12      -4.1472      2.00000
     13      -3.2643      2.00000
     14      -3.1861      2.00000
     15      -2.7524      2.00000
     16      -2.7477      2.00000
     17      -2.1093      2.00000
     18      -1.9384      2.00000
     19      -0.1615      0.00000
     20      -0.0403      0.00000
     21       0.4998      0.00000
     22       0.6977      0.00000
     23       0.9846      0.00000
     24       1.1505      0.00000


--------------------------------------------------------------------------------------------------------


 soft charge-density along one line, spin component           1
         0         1         2         3         4         5         6         7         8         9
 total charge-density along one line
 
 pseudopotential strength for first ion, spin component:           1
 -9.502   0.000  -0.000  -0.002  -0.000  -9.692   0.000  -0.000
  0.000  -9.510  -0.000   0.000  -0.002   0.000  -9.700  -0.000
 -0.000  -0.000  -9.499   0.000   0.000  -0.000  -0.000  -9.689
 -0.002   0.000   0.000  -9.510   0.000  -0.002   0.000   0.000
 -0.000  -0.002   0.000   0.000  -9.502  -0.000  -0.002   0.000
 -9.692   0.000  -0.000  -0.002  -0.000  -9.873   0.000  -0.000
  0.000  -9.700  -0.000   0.000  -0.002   0.000  -9.881  -0.000
 -0.000  -0.000  -9.689   0.000   0.000  -0.000  -0.000  -9.869
 -0.002   0.000   0.000  -9.700   0.000  -0.002   0.000   0.000
 -0.000  -0.002   0.000   0.000  -9.692  -0.000  -0.002   0.000
  0.000   0.000   0.001  -0.000  -0.000   0.000   0.000   0.001
  0.000   0.000   0.001  -0.000  -0.000   0.000   0.000   0.001
  0.000  -0.029   0.000   0.000   0.007   0.000  -0.029   0.000
  0.000  -0.000  -0.030   0.000  -0.000   0.000  -0.000  -0.030
  0.007   0.000  -0.000  -0.029   0.000   0.007   0.000  -0.000
  0.000  -0.035   0.000   0.000   0.008   0.000  -0.036   0.000
  0.000  -0.000  -0.037   0.000  -0.000   0.000  -0.000  -0.038
  0.008   0.000  -0.000  -0.035   0.000   0.008   0.000  -0.000
 total augmentation occupancy for first ion, spin component:           1
  2.100   0.000  -0.000   0.432  -0.000  -2.479  -0.000   0.000  -0.615   0.000  -0.000   0.000  -0.000  -0.000  -0.322   0.000
  0.000   3.179   0.000   0.000   0.432  -0.000  -4.140  -0.000  -0.000  -0.615  -0.000   0.000  -0.147   0.000  -0.000   0.029
 -0.000   0.000   1.541   0.000   0.000   0.000  -0.000  -1.732  -0.000   0.000  -0.102   0.017  -0.000   0.166  -0.000   0.000
  0.432   0.000   0.000   3.179   0.000  -0.615  -0.000  -0.000  -4.140  -0.000  -0.000   0.000  -0.000  -0.000  -0.147   0.000
 -0.000   0.432   0.000   0.000   2.100   0.000  -0.615   0.000  -0.000  -2.479  -0.000   0.000  -0.322  -0.000  -0.000   0.048
 -2.479  -0.000   0.000  -0.615   0.000   3.772   0.000  -0.000   0.766  -0.000   0.000  -0.000   0.000   0.000   0.392  -0.000
 -0.000  -4.140  -0.000  -0.000  -0.615   0.000   5.960   0.000   0.000   0.766   0.000  -0.000   0.166  -0.000   0.000  -0.039
  0.000  -0.000  -1.732  -0.000   0.000  -0.000   0.000   2.859   0.000  -0.000   0.230  -0.019   0.000  -0.139   0.000  -0.000
 -0.615  -0.000  -0.000  -4.140  -0.000   0.766   0.000   0.000   5.960   0.000   0.000  -0.000   0.000   0.000   0.166  -0.000
  0.000  -0.615   0.000  -0.000  -2.479  -0.000   0.766  -0.000   0.000   3.772   0.000  -0.000   0.392   0.000   0.000  -0.053
 -0.000  -0.000  -0.102  -0.000  -0.000   0.000   0.000   0.230   0.000   0.000   1.552  -0.100   0.000   0.045   0.000  -0.000
  0.000   0.000   0.017   0.000   0.000  -0.000  -0.000  -0.019  -0.000  -0.000  -0.100   0.008  -0.000  -0.001  -0.000   0.000
 -0.000  -0.147  -0.000  -0.000  -0.322   0.000   0.166   0.000   0.000   0.392   0.000  -0.000   0.289   0.000   0.000  -0.036
 -0.000   0.000   0.166  -0.000  -0.000   0.000  -0.000  -0.139   0.000   0.000   0.045  -0.001   0.000   0.355   0.000  -0.000
 -0.322  -0.000  -0.000  -0.147  -0.000   0.392   0.000   0.000   0.166   0.000   0.000  -0.000   0.000   0.000   0.289  -0.000
  0.000   0.029   0.000   0.000   0.048  -0.000  -0.039  -0.000  -0.000  -0.053  -0.000   0.000  -0.036  -0.000  -0.000   0.005
  0.000  -0.000  -0.018   0.000   0.000  -0.000   0.000   0.007  -0.000  -0.000  -0.010   0.000  -0.000  -0.043  -0.000   0.000
  0.048   0.000   0.000   0.029   0.000  -0.053  -0.000  -0.000  -0.039  -0.000  -0.000   0.000  -0.000  -0.000  -0.036   0.000


------------------------ aborting loop because EDIFF is reached ----------------------------------------


    CHARGE:  cpu time    0.0438: real time    0.0438
    FORLOC:  cpu time    0.0003: real time    0.0003
    FORNL :  cpu time    0.0683: real time    0.0683
    STRESS:  cpu time    0.3285: real time    0.3286
    FORCOR:  cpu time    0.0143: real time    0.0143
    FORHAR:  cpu time    0.0024: real time    0.0024
    MIXING:  cpu time    0.0003: real time    0.0003
    OFIELD:  cpu time    0.0000: real time    0.0000

  FORCE on cell =-STRESS in cart. coord.  units (eV):
  Direction    XX          YY          ZZ          XY          YZ          ZX
  --------------------------------------------------------------------------------------
  Alpha Z    26.10428    26.10428    26.10428
  Ewald    5254.34696  5254.34697 -6329.07507     0.00000     0.00003     0.00000
  Hartree  5462.65005  5462.65005 -5401.50789     0.00000     0.00000     0.00000
  E(xc)    -145.40698  -145.40698  -147.20138    -0.00000    -0.00000    -0.00000
  Local  -11273.14556-11273.14559 11162.17253    -0.00000    -0.00003    -0.00000
  n-local   323.85832   323.85828   338.94793     0.00000     0.00000     0.00000
  augment   -67.62146   -67.62153   -71.25472     0.00000     0.00000    -0.00000
  Kinetic   419.23762   419.23761   421.80689    -0.00000     0.00000     0.00000
  Fock        0.00000     0.00000     0.00000     0.00000     0.00000     0.00000
  -------------------------------------------------------------------------------------
  Total       0.02321     0.02308    -0.00744     0.00000     0.00001     0.00000
  in kB       0.09370     0.09319    -0.03005     0.00000     0.00004     0.00000
  external pressure =        0.05 kB  Pullay stress =        0.00 kB


 VOLUME and BASIS-vectors are now :
 -----------------------------------------------------------------------------
  energy-cutoff  :      600.00
  volume of cell :      396.87
      direct lattice vectors                 reciprocal lattice vectors
     3.363599539  0.000000000  0.000000000     0.297300552  0.000000000  0.000000000
     0.000000000  5.825925827  0.000000000     0.000000000  0.171646538  0.000000000
     0.000000000  0.000000000 20.252588272     0.000000000  0.000000000  0.049376405

  length of vectors
     3.363599539  5.825925827 20.252588272     0.297300552  0.171646538  0.049376405


 FORCES acting on ions
    electron-ion (+dipol)            ewald-force                    non-local-force                 convergence-correction
 -----------------------------------------------------------------------------------------------
   0.259E-05 -.104E-04 -.392E+01   -.274E-05 0.635E-05 0.626E+01   -.579E-06 -.457E-05 -.234E+01   0.985E-08 0.102E-04 -.505E-04
   -.133E-05 0.206E-04 -.392E+01   0.141E-05 -.137E-04 0.626E+01   0.303E-06 -.210E-05 -.234E+01   0.919E-09 -.113E-04 -.510E-04
   0.722E-06 0.173E-04 -.466E+03   -.683E-06 0.271E-04 0.472E+03   0.503E-07 0.197E-04 -.556E+01   0.573E-08 -.866E-04 0.275E-03
   -.230E-05 -.342E-04 -.466E+03   0.215E-05 -.146E-04 0.472E+03   0.440E-06 -.179E-04 -.556E+01   0.880E-08 0.863E-04 0.325E-03
   0.152E-05 0.935E-04 0.473E+03   -.147E-05 -.333E-04 -.478E+03   -.384E-06 -.633E-05 0.458E+01   0.248E-08 -.554E-04 -.290E-03
   -.135E-05 -.907E-04 0.473E+03   0.133E-05 0.282E-04 -.478E+03   0.287E-06 0.110E-04 0.458E+01   -.845E-08 0.556E-04 -.328E-03
 -----------------------------------------------------------------------------------------------
   -.142E-06 -.400E-05 0.662E+01   -.209E-14 -.909E-15 0.114E-12   0.116E-06 -.174E-06 -.662E+01   0.193E-07 -.116E-05 -.120E-03
 
 
 POSITION                                       TOTAL-FORCE (eV/Angst)
 -----------------------------------------------------------------------------------
      1.68180      0.97099     10.26888        -0.000001      0.000002      0.000941
     -0.00000      3.88395     10.26888         0.000000     -0.000006      0.000967
      1.68180      4.85494     11.74190         0.000000     -0.000022     -0.000372
     -0.00000      1.94197     11.74190         0.000000      0.000021     -0.000367
      1.68180      4.85494      8.36810        -0.000000     -0.000001     -0.000584
     -0.00000      1.94197      8.36810         0.000000      0.000005     -0.000584
 -----------------------------------------------------------------------------------
    total drift:                               -0.000000     -0.000005     -0.000514


--------------------------------------------------------------------------------------------------------



  FREE ENERGIE OF THE ION-ELECTRON SYSTEM (eV)
  ---------------------------------------------------
  free  energy   TOTEN  =       -39.42246156 eV

  energy  without entropy=      -39.42246156  energy(sigma->0) =      -39.42246156
 
 d Force =-0.8312057E-10[-0.362E-08, 0.345E-08]  d Energy =-0.1791695E-06 0.179E-06
 d Force =-0.1389948E-01[-0.139E-01,-0.139E-01]  d Ewald  =-0.1389948E-01-0.728E-11


--------------------------------------------------------------------------------------------------------


    POTLOK:  cpu time    0.0143: real time    0.0143


--------------------------------------------------------------------------------------------------------




--------------------------------------------------------------------------------------------------------


  
 reached required accuracy - stopping structural energy minimisation
     LOOP+:  cpu time    5.0186: real time    5.1170
    4ORBIT:  cpu time    0.0000: real time    0.0000

 total amount of memory used by VASP MPI-rank0    62433. kBytes
=======================================================================

   base      :      30000. kBytes
   nonl-proj :      25455. kBytes
   fftplans  :       1397. kBytes
   grid      :       2623. kBytes
   one-center:         15. kBytes
   wavefun   :       2943. kBytes
 
  
  
 General timing and accounting informations for this job:
 ========================================================
  
                  Total CPU time used (sec):       59.700
                            User time (sec):       56.733
                          System time (sec):        2.967
                         Elapsed time (sec):       60.089
  
                   Maximum memory used (kb):      174012.
                   Average memory used (kb):           0.
  
                          Minor page faults:        24905
                          Major page faults:          913
                 Voluntary context switches:         1414
