
     Program PWSCF v.6.6 starts on  8May2023 at  6:23:51 

     This program is part of the open-source Quantum ESPRESSO suite
     for quantum simulation of materials; please cite
         "P. Giannozzi et al., J. Phys.:Condens. Matter 21 395502 (2009);
         "P. Giannozzi et al., J. Phys.:Condens. Matter 29 465901 (2017);
          URL http://www.quantum-espresso.org", 
     in publications or presentations arising from this work. More details at
     http://www.quantum-espresso.org/quote

     Parallel version (MPI), running on    24 processors

     MPI processes distributed on     1 nodes
     R & G space division:  proc/nbgrp/npool/nimage =      24
     Fft bands division:     nmany     =       1
     Reading input from INCAR-relax.pw
Warning: card &CELL ignored
Warning: card     CELL_DYNAMICS  = "BFGS" ignored
Warning: card     ! CELL_DOFREE = "XY" ignored
Warning: card / ignored

     Current dimensions of program PWSCF are:
     Max number of different atomic species (ntypx) = 10
     Max number of k-points (npk) =  40000
     Max angular momentum in pseudopotentials (lmaxx) =  3

     Subspace diagonalization in iterative solution of the eigenvalue problem:
     a serial algorithm will be used

     Message from routine setup:
     using ibrav=0 with symmetry is DISCOURAGED, use correct ibrav instead
 
     Parallelization info
     --------------------
     sticks:   dense  smooth     PW     G-vecs:    dense   smooth      PW
     Min         134      71     20                26420    10283    1516
     Max         135      72     21                26435    10294    1531
     Sum        3235    1717    485               634297   246879   36461
 


     bravais-lattice index     =            0
     lattice parameter (alat)  =       8.3435  a.u.
     unit-cell volume          =    2555.0296 (a.u.)^3
     number of atoms/cell      =            4
     number of atomic types    =            2
     number of electrons       =        40.00
     number of Kohn-Sham states=           24
     kinetic-energy cutoff     =      80.0000  Ry
     charge density cutoff     =     600.0000  Ry
     convergence threshold     =      1.0E-10
     mixing beta               =       0.7000
     number of iterations used =            8  plain     mixing
     Exchange-correlation= SLA  PW   PBE  PBE
                           (   1   4   3   4   0   0   0)
     nstep                     =          100


     celldm(1)=   8.343499  celldm(2)=   0.000000  celldm(3)=   0.000000
     celldm(4)=   0.000000  celldm(5)=   0.000000  celldm(6)=   0.000000

     crystal axes: (cart. coord. in units of alat)
               a(1) = (   1.000000   0.000000   0.000000 )  
               a(2) = (   0.000000   0.971115   0.000000 )  
               a(3) = (   0.000000   0.000000   4.529817 )  

     reciprocal axes: (cart. coord. in units 2 pi/alat)
               b(1) = (  1.000000  0.000000  0.000000 )  
               b(2) = (  0.000000  1.029744  0.000000 )  
               b(3) = (  0.000000  0.000000  0.220759 )  


     PseudoPot. # 1 for Sn read from file:
     ./Sn_pbe_v1.uspp.F.UPF
     MD5 check sum: 4cf58ce39ec5d5d420df3dd08604eb00
     Pseudo is Ultrasoft + core correction, Zval = 14.0
     Generated by new atomic code, or converted to UPF format
     Using radial grid of  891 points,  6 beta functions with: 
                l(1) =   0
                l(2) =   0
                l(3) =   1
                l(4) =   1
                l(5) =   2
                l(6) =   2
     Q(r) pseudized with  6 coefficients,  rinner =    1.200   1.200   1.200
                                                       1.200   1.200

     PseudoPot. # 2 for Se read from file:
     ./Se_pbe_v1.uspp.F.UPF
     MD5 check sum: 1b3568f3a8ae88f9a2a0ad0698632c85
     Pseudo is Ultrasoft + core correction, Zval =  6.0
     Generated by new atomic code, or converted to UPF format
     Using radial grid of  877 points,  6 beta functions with: 
                l(1) =   0
                l(2) =   0
                l(3) =   1
                l(4) =   1
                l(5) =   2
                l(6) =   2
     Q(r) pseudized with  8 coefficients,  rinner =    1.300   1.300   1.300
                                                       1.300   1.300

     atomic species   valence    mass     pseudopotential
        Sn            14.00   118.71000     Sn( 1.00)
        Se             6.00    78.96000     Se( 1.00)

      2 Sym. Ops. (no inversion) found ( 1 have fractional translation)



   Cartesian axes

     site n.     atom                  positions (alat units)
         1           Sn  tau(   1) = (   0.5839905   0.7283361   0.6548134  )
         2           Sn  tau(   2) = (   0.0839891   0.2427787   0.0298497  )
         3           Se  tau(   3) = (   0.0301155   0.2427787   0.6446801  )
         4           Se  tau(   4) = (   0.5301129   0.7283361   0.0399754  )

     number of k points=    64  Marzari-Vanderbilt smearing, width (Ry)=  0.0100
                       cart. coord. in units 2pi/alat
        k(    1) = (   0.0000000   0.0000000   0.0000000), wk =   0.0088889
        k(    2) = (   0.0000000   0.0686496   0.0000000), wk =   0.0177778
        k(    3) = (   0.0000000   0.1372992   0.0000000), wk =   0.0177778
        k(    4) = (   0.0000000   0.2059489   0.0000000), wk =   0.0177778
        k(    5) = (   0.0000000   0.2745985   0.0000000), wk =   0.0177778
        k(    6) = (   0.0000000   0.3432481   0.0000000), wk =   0.0177778
        k(    7) = (   0.0000000   0.4118977   0.0000000), wk =   0.0177778
        k(    8) = (   0.0000000   0.4805473   0.0000000), wk =   0.0177778
        k(    9) = (   0.0666667   0.0000000   0.0000000), wk =   0.0177778
        k(   10) = (   0.0666667   0.0686496   0.0000000), wk =   0.0355556
        k(   11) = (   0.0666667   0.1372992   0.0000000), wk =   0.0355556
        k(   12) = (   0.0666667   0.2059489   0.0000000), wk =   0.0355556
        k(   13) = (   0.0666667   0.2745985   0.0000000), wk =   0.0355556
        k(   14) = (   0.0666667   0.3432481   0.0000000), wk =   0.0355556
        k(   15) = (   0.0666667   0.4118977   0.0000000), wk =   0.0355556
        k(   16) = (   0.0666667   0.4805473   0.0000000), wk =   0.0355556
        k(   17) = (   0.1333333   0.0000000   0.0000000), wk =   0.0177778
        k(   18) = (   0.1333333   0.0686496   0.0000000), wk =   0.0355556
        k(   19) = (   0.1333333   0.1372992   0.0000000), wk =   0.0355556
        k(   20) = (   0.1333333   0.2059489   0.0000000), wk =   0.0355556
        k(   21) = (   0.1333333   0.2745985   0.0000000), wk =   0.0355556
        k(   22) = (   0.1333333   0.3432481   0.0000000), wk =   0.0355556
        k(   23) = (   0.1333333   0.4118977   0.0000000), wk =   0.0355556
        k(   24) = (   0.1333333   0.4805473   0.0000000), wk =   0.0355556
        k(   25) = (   0.2000000   0.0000000   0.0000000), wk =   0.0177778
        k(   26) = (   0.2000000   0.0686496   0.0000000), wk =   0.0355556
        k(   27) = (   0.2000000   0.1372992   0.0000000), wk =   0.0355556
        k(   28) = (   0.2000000   0.2059489   0.0000000), wk =   0.0355556
        k(   29) = (   0.2000000   0.2745985   0.0000000), wk =   0.0355556
        k(   30) = (   0.2000000   0.3432481   0.0000000), wk =   0.0355556
        k(   31) = (   0.2000000   0.4118977   0.0000000), wk =   0.0355556
        k(   32) = (   0.2000000   0.4805473   0.0000000), wk =   0.0355556
        k(   33) = (   0.2666667   0.0000000   0.0000000), wk =   0.0177778
        k(   34) = (   0.2666667   0.0686496   0.0000000), wk =   0.0355556
        k(   35) = (   0.2666667   0.1372992   0.0000000), wk =   0.0355556
        k(   36) = (   0.2666667   0.2059489   0.0000000), wk =   0.0355556
        k(   37) = (   0.2666667   0.2745985   0.0000000), wk =   0.0355556
        k(   38) = (   0.2666667   0.3432481   0.0000000), wk =   0.0355556
        k(   39) = (   0.2666667   0.4118977   0.0000000), wk =   0.0355556
        k(   40) = (   0.2666667   0.4805473   0.0000000), wk =   0.0355556
        k(   41) = (   0.3333333   0.0000000   0.0000000), wk =   0.0177778
        k(   42) = (   0.3333333   0.0686496   0.0000000), wk =   0.0355556
        k(   43) = (   0.3333333   0.1372992   0.0000000), wk =   0.0355556
        k(   44) = (   0.3333333   0.2059489   0.0000000), wk =   0.0355556
        k(   45) = (   0.3333333   0.2745985   0.0000000), wk =   0.0355556
        k(   46) = (   0.3333333   0.3432481   0.0000000), wk =   0.0355556
        k(   47) = (   0.3333333   0.4118977   0.0000000), wk =   0.0355556
        k(   48) = (   0.3333333   0.4805473   0.0000000), wk =   0.0355556
        k(   49) = (   0.4000000   0.0000000   0.0000000), wk =   0.0177778
        k(   50) = (   0.4000000   0.0686496   0.0000000), wk =   0.0355556
        k(   51) = (   0.4000000   0.1372992   0.0000000), wk =   0.0355556
        k(   52) = (   0.4000000   0.2059489   0.0000000), wk =   0.0355556
        k(   53) = (   0.4000000   0.2745985   0.0000000), wk =   0.0355556
        k(   54) = (   0.4000000   0.3432481   0.0000000), wk =   0.0355556
        k(   55) = (   0.4000000   0.4118977   0.0000000), wk =   0.0355556
        k(   56) = (   0.4000000   0.4805473   0.0000000), wk =   0.0355556
        k(   57) = (   0.4666667   0.0000000   0.0000000), wk =   0.0177778
        k(   58) = (   0.4666667   0.0686496   0.0000000), wk =   0.0355556
        k(   59) = (   0.4666667   0.1372992   0.0000000), wk =   0.0355556
        k(   60) = (   0.4666667   0.2059489   0.0000000), wk =   0.0355556
        k(   61) = (   0.4666667   0.2745985   0.0000000), wk =   0.0355556
        k(   62) = (   0.4666667   0.3432481   0.0000000), wk =   0.0355556
        k(   63) = (   0.4666667   0.4118977   0.0000000), wk =   0.0355556
        k(   64) = (   0.4666667   0.4805473   0.0000000), wk =   0.0355556

     Dense  grid:   634297 G-vectors     FFT dimensions: (  72,  64, 300)

     Smooth grid:   246879 G-vectors     FFT dimensions: (  48,  48, 216)

     Estimated max dynamical RAM per process >     128.57 MB

     Estimated total dynamical RAM >       3.01 GB

     Initial potential from superposition of free atoms

     starting charge   37.99977, renormalised to   40.00000

     negative rho (up, down):  2.848E-03 0.000E+00
     Starting wfcs are   26 randomized atomic wfcs

     total cpu time spent up to now is        2.7 secs

     Self-consistent Calculation

     iteration #  1     ecut=    80.00 Ry     beta= 0.70
     Davidson diagonalization with overlap
     ethr =  1.00E-02,  avg # of iterations =  3.8

     negative rho (up, down):  5.720E-04 0.000E+00

     total cpu time spent up to now is        8.1 secs

     total energy              =    -413.24033773 Ry
     estimated scf accuracy    <       1.34954681 Ry

     iteration #  2     ecut=    80.00 Ry     beta= 0.70
     Davidson diagonalization with overlap
     ethr =  3.37E-03,  avg # of iterations =  2.2

     negative rho (up, down):  1.146E-04 0.000E+00

     total cpu time spent up to now is       13.1 secs

     total energy              =    -413.63581350 Ry
     estimated scf accuracy    <       0.67532767 Ry

     iteration #  3     ecut=    80.00 Ry     beta= 0.70
     Davidson diagonalization with overlap
     ethr =  1.69E-03,  avg # of iterations =  2.0

     negative rho (up, down):  2.639E-05 0.000E+00

     total cpu time spent up to now is       17.3 secs

     total energy              =    -413.79963915 Ry
     estimated scf accuracy    <       0.02393499 Ry

     iteration #  4     ecut=    80.00 Ry     beta= 0.70
     Davidson diagonalization with overlap
     ethr =  5.98E-05,  avg # of iterations =  3.0

     negative rho (up, down):  2.701E-05 0.000E+00

     total cpu time spent up to now is       21.8 secs

     total energy              =    -413.80360466 Ry
     estimated scf accuracy    <       0.00094373 Ry

     iteration #  5     ecut=    80.00 Ry     beta= 0.70
     Davidson diagonalization with overlap
     ethr =  2.36E-06,  avg # of iterations =  6.6

     negative rho (up, down):  2.829E-05 0.000E+00

     total cpu time spent up to now is       27.6 secs

     total energy              =    -413.80368367 Ry
     estimated scf accuracy    <       0.00113112 Ry

     iteration #  6     ecut=    80.00 Ry     beta= 0.70
     Davidson diagonalization with overlap
     ethr =  2.36E-06,  avg # of iterations =  5.0

     negative rho (up, down):  2.857E-05 0.000E+00

     total cpu time spent up to now is       32.8 secs

     total energy              =    -413.80383648 Ry
     estimated scf accuracy    <       0.00058541 Ry

     iteration #  7     ecut=    80.00 Ry     beta= 0.70
     Davidson diagonalization with overlap
     ethr =  1.46E-06,  avg # of iterations =  2.7

     negative rho (up, down):  2.822E-05 0.000E+00

     total cpu time spent up to now is       37.0 secs

     total energy              =    -413.80389314 Ry
     estimated scf accuracy    <       0.00003612 Ry

     iteration #  8     ecut=    80.00 Ry     beta= 0.70
     Davidson diagonalization with overlap
     ethr =  9.03E-08,  avg # of iterations =  3.4

     negative rho (up, down):  2.845E-05 0.000E+00

     total cpu time spent up to now is       41.7 secs

     total energy              =    -413.80390322 Ry
     estimated scf accuracy    <       0.00000035 Ry

     iteration #  9     ecut=    80.00 Ry     beta= 0.70
     Davidson diagonalization with overlap
     ethr =  8.75E-10,  avg # of iterations =  7.0

     negative rho (up, down):  2.862E-05 0.000E+00

     total cpu time spent up to now is       49.5 secs

     total energy              =    -413.80390456 Ry
     estimated scf accuracy    <       0.00000027 Ry

     iteration # 10     ecut=    80.00 Ry     beta= 0.70
     Davidson diagonalization with overlap
     ethr =  6.82E-10,  avg # of iterations =  2.0

     negative rho (up, down):  2.866E-05 0.000E+00

     total cpu time spent up to now is       53.7 secs

     total energy              =    -413.80390459 Ry
     estimated scf accuracy    <       0.00000002 Ry

     iteration # 11     ecut=    80.00 Ry     beta= 0.70
     Davidson diagonalization with overlap
     ethr =  4.34E-11,  avg # of iterations =  3.5

     negative rho (up, down):  2.866E-05 0.000E+00

     total cpu time spent up to now is       58.3 secs

     total energy              =    -413.80390459 Ry
     estimated scf accuracy    <          1.2E-09 Ry

     iteration # 12     ecut=    80.00 Ry     beta= 0.70
     Davidson diagonalization with overlap
     ethr =  2.91E-12,  avg # of iterations =  4.2

     negative rho (up, down):  2.865E-05 0.000E+00

     total cpu time spent up to now is       63.5 secs

     End of self-consistent calculation

          k = 0.0000 0.0000 0.0000 ( 30919 PWs)   bands (ev):

   -22.2182 -22.2108 -22.2103 -22.2038 -22.2030 -22.1787 -22.1753 -22.1725
   -22.1634 -22.1596 -14.2169 -13.2016  -7.1996  -6.1917  -4.3516  -3.9918
    -3.9085  -2.7487  -2.7287  -1.5180   0.6070   2.3791   2.8427   2.9854

          k = 0.0000 0.0686 0.0000 ( 30901 PWs)   bands (ev):

   -22.2176 -22.2107 -22.2104 -22.2047 -22.2020 -22.1788 -22.1753 -22.1722
   -22.1637 -22.1596 -14.1973 -13.1977  -7.2625  -6.2679  -4.3514  -3.9761
    -3.8466  -2.7654  -2.6017  -1.5318   0.6200   2.4573   2.7926   2.8539

          k = 0.0000 0.1373 0.0000 ( 30903 PWs)   bands (ev):

   -22.2162 -22.2115 -22.2094 -22.2062 -22.2005 -22.1791 -22.1753 -22.1715
   -22.1645 -22.1597 -14.1394 -13.1882  -7.4299  -6.4806  -4.3271  -3.9046
    -3.6972  -2.7207  -2.3526  -1.5780   0.6645   2.2903   2.5693   2.6158

          k = 0.0000 0.2059 0.0000 ( 30895 PWs)   bands (ev):

   -22.2143 -22.2127 -22.2079 -22.2078 -22.1986 -22.1797 -22.1752 -22.1704
   -22.1657 -22.1599 -14.0467 -13.1796  -7.6513  -6.7870  -4.2477  -3.7706
    -3.4958  -2.6388  -2.0291  -1.6626   0.7538   1.6456   2.1075   2.5896

          k = 0.0000 0.2746 0.0000 ( 30869 PWs)   bands (ev):

   -22.2140 -22.2130 -22.2086 -22.2064 -22.1962 -22.1806 -22.1750 -22.1689
   -22.1671 -22.1602 -13.9249 -13.1823  -7.8708  -7.1331  -4.1071  -3.5838
    -3.2733  -2.5485  -1.7735  -1.6694   0.9008   1.0009   1.6286   2.2299

          k = 0.0000 0.3432 0.0000 ( 30809 PWs)   bands (ev):

   -22.2152 -22.2136 -22.2076 -22.2051 -22.1935 -22.1819 -22.1745 -22.1686
   -22.1673 -22.1607 -13.7827 -13.2078  -8.0404  -7.4715  -3.9145  -3.3631
    -3.0818  -2.4872  -1.8521  -1.3138   0.4255   1.1059   1.2414   1.7139

          k = 0.0000 0.4119 0.0000 ( 30783 PWs)   bands (ev):

   -22.2160 -22.2149 -22.2061 -22.2043 -22.1907 -22.1836 -22.1737 -22.1701
   -22.1656 -22.1615 -13.6317 -13.2659  -8.1257  -7.7647  -3.6859  -3.1766
    -2.9720  -2.4984  -1.7870  -1.0836   0.0609   1.0234   1.0961   1.4305

          k = 0.0000 0.4805 0.0000 ( 30744 PWs)   bands (ev):

   -22.2162 -22.2158 -22.2049 -22.2043 -22.1881 -22.1857 -22.1727 -22.1715
   -22.1640 -22.1626 -13.4860 -13.3602  -8.1077  -7.9837  -3.4446  -3.2347
    -2.7960  -2.6078  -1.5369  -1.2153   0.1636   0.5867   1.0166   1.2128

          k = 0.0667 0.0000 0.0000 ( 30877 PWs)   bands (ev):

   -22.2179 -22.2107 -22.2105 -22.2041 -22.2024 -22.1787 -22.1751 -22.1724
   -22.1635 -22.1598 -14.1992 -13.2005  -7.2666  -6.2739  -4.3485  -3.9207
    -3.8786  -2.7089  -2.6411  -1.5379   0.6201   2.4249   2.6933   2.9558

          k = 0.0667 0.0686 0.0000 ( 30906 PWs)   bands (ev):

   -22.2174 -22.2108 -22.2103 -22.2050 -22.2015 -22.1788 -22.1752 -22.1722
   -22.1638 -22.1598 -14.1797 -13.1965  -7.3192  -6.3410  -4.3421  -4.0582
    -3.6743  -2.8292  -2.4290  -1.5488   0.6348   2.4272   2.4929   2.9374

          k = 0.0667 0.1373 0.0000 ( 30923 PWs)   bands (ev):

   -22.2160 -22.2117 -22.2092 -22.2065 -22.2000 -22.1792 -22.1753 -22.1714
   -22.1646 -22.1599 -14.1222 -13.1867  -7.4628  -6.5317  -4.3091  -4.1225
    -3.4169  -2.8752  -2.1336  -1.5851   0.6832   1.8724   2.5840   2.8435

          k = 0.0667 0.2059 0.0000 ( 30887 PWs)   bands (ev):

   -22.2142 -22.2129 -22.2081 -22.2077 -22.1980 -22.1798 -22.1753 -22.1702
   -22.1658 -22.1600 -14.0301 -13.1777  -7.6599  -6.8133  -4.2276  -4.0867
    -3.1574  -2.8359  -1.8304  -1.6488   0.7754   1.2822   2.3171   2.4643

          k = 0.0667 0.2746 0.0000 ( 30851 PWs)   bands (ev):

   -22.2143 -22.2132 -22.2086 -22.2062 -22.1957 -22.1807 -22.1750 -22.1687
   -22.1673 -22.1603 -13.9092 -13.1794  -7.8611  -7.1392  -4.0897  -3.9587
    -2.9362  -2.7484  -1.7181  -1.5698   0.7779   0.9174   1.7807   1.9865

          k = 0.0667 0.3432 0.0000 ( 30825 PWs)   bands (ev):

   -22.2156 -22.2141 -22.2074 -22.2049 -22.1931 -22.1819 -22.1746 -22.1688
   -22.1671 -22.1607 -13.7683 -13.2035  -8.0198  -7.4632  -3.9023  -3.7583
    -2.8220  -2.6697  -1.7260  -1.4057   0.4476   1.0284   1.3286   1.5511

          k = 0.0667 0.4119 0.0000 ( 30787 PWs)   bands (ev):

   -22.2164 -22.2154 -22.2058 -22.2041 -22.1905 -22.1836 -22.1738 -22.1702
   -22.1654 -22.1615 -13.6190 -13.2598  -8.0999  -7.7467  -3.6815  -3.5204
    -2.8605  -2.6771  -1.6169  -1.3499   0.3016   0.6881   1.3004   1.4711

          k = 0.0667 0.4805 0.0000 ( 30752 PWs)   bands (ev):

   -22.2167 -22.2163 -22.2046 -22.2040 -22.1879 -22.1856 -22.1728 -22.1716
   -22.1639 -22.1625 -13.4754 -13.3519  -8.0811  -7.9598  -3.4607  -3.3559
    -2.9283  -2.8066  -1.4585  -1.3622   0.2610   0.3759   1.3572   1.6567

          k = 0.1333 0.0000 0.0000 ( 30880 PWs)   bands (ev):

   -22.2173 -22.2109 -22.2103 -22.2050 -22.2007 -22.1788 -22.1746 -22.1722
   -22.1638 -22.1604 -14.1470 -13.1993  -7.4403  -6.4976  -4.3175  -3.7900
    -3.7308  -2.6530  -2.3613  -1.5995   0.6656   2.2194   2.5087   2.7019

          k = 0.1333 0.0686 0.0000 ( 30869 PWs)   bands (ev):

   -22.2168 -22.2113 -22.2099 -22.2058 -22.2000 -22.1790 -22.1748 -22.1718
   -22.1641 -22.1604 -14.1278 -13.1950  -7.4698  -6.5433  -4.3019  -4.0851
    -3.3962  -2.8464  -2.1197  -1.6002   0.6842   1.8676   2.5155   2.8923

          k = 0.1333 0.1373 0.0000 ( 30898 PWs)   bands (ev):

   -22.2155 -22.2123 -22.2088 -22.2073 -22.1984 -22.1793 -22.1751 -22.1709
   -22.1650 -22.1603 -14.0714 -13.1843  -7.5562  -6.6790  -4.3183  -4.2537
    -3.0491  -3.0405  -1.8013  -1.6006   0.7411   1.3356   2.3063   3.0038

          k = 0.1333 0.2059 0.0000 ( 30870 PWs)   bands (ev):

   -22.2141 -22.2137 -22.2087 -22.2073 -22.1965 -22.1799 -22.1753 -22.1696
   -22.1663 -22.1602 -13.9812 -13.1735  -7.6876  -6.8941  -4.4286  -4.1685
    -3.1206  -2.7763  -1.5955  -1.5877   0.8337   0.9092   1.7828   2.8561

          k = 0.1333 0.2746 0.0000 ( 30849 PWs)   bands (ev):

   -22.2152 -22.2140 -22.2084 -22.2056 -22.1943 -22.1808 -22.1752 -22.1682
   -22.1677 -22.1604 -13.8632 -13.1723  -7.8356  -7.1612  -4.4077  -4.0407
    -3.1000  -2.6428  -1.6039  -1.5345   0.7337   0.8935   1.3184   2.4930

          k = 0.1333 0.3432 0.0000 ( 30836 PWs)   bands (ev):

   -22.2166 -22.2154 -22.2067 -22.2042 -22.1920 -22.1820 -22.1747 -22.1691
   -22.1666 -22.1607 -13.7264 -13.1922  -7.9601  -7.4412  -4.2692  -3.8713
    -3.0439  -2.6762  -1.7788  -1.4551   0.6434   0.7994   1.3380   2.0902

          k = 0.1333 0.4119 0.0000 ( 30811 PWs)   bands (ev):

   -22.2177 -22.2168 -22.2050 -22.2034 -22.1897 -22.1835 -22.1740 -22.1705
   -22.1650 -22.1613 -13.5824 -13.2429  -8.0237  -7.6949  -4.0401  -3.6805
    -3.0682  -2.8305  -1.8935  -1.4545   0.4470   0.8809   1.5862   1.8462

          k = 0.1333 0.4805 0.0000 ( 30792 PWs)   bands (ev):

   -22.2181 -22.2178 -22.2038 -22.2032 -22.1874 -22.1854 -22.1730 -22.1718
   -22.1635 -22.1623 -13.4451 -13.3284  -8.0024  -7.8895  -3.7651  -3.5772
    -3.1574  -3.0330  -1.8013  -1.6008   0.5079   0.7296   1.8840   1.9507

          k = 0.2000 0.0000 0.0000 ( 30872 PWs)   bands (ev):

   -22.2164 -22.2116 -22.2099 -22.2064 -22.1981 -22.1791 -22.1738 -22.1719
   -22.1642 -22.1614 -14.0631 -13.2032  -7.6619  -6.8086  -4.2326  -3.6464
    -3.4726  -2.5719  -1.9848  -1.7016   0.7572   1.6258   2.2066   2.4639

          k = 0.2000 0.0686 0.0000 ( 30889 PWs)   bands (ev):

   -22.2159 -22.2120 -22.2094 -22.2070 -22.1975 -22.1792 -22.1742 -22.1713
   -22.1646 -22.1612 -14.0445 -13.1984  -7.6683  -6.8311  -4.2131  -4.0176
    -3.1018  -2.7959  -1.7738  -1.6789   0.7796   1.2943   2.2678   2.5172

          k = 0.2000 0.1373 0.0000 ( 30890 PWs)   bands (ev):

   -22.2149 -22.2131 -22.2084 -22.2082 -22.1961 -22.1795 -22.1747 -22.1702
   -22.1657 -22.1609 -13.9900 -13.1859  -7.6911  -6.9026  -4.3953  -4.1574
    -3.1108  -2.7457  -1.5963  -1.5503   0.8389   0.9205   1.7800   2.8818

          k = 0.2000 0.2059 0.0000 ( 30871 PWs)   bands (ev):

   -22.2147 -22.2143 -22.2090 -22.2066 -22.1943 -22.1801 -22.1751 -22.1688
   -22.1669 -22.1606 -13.9032 -13.1719  -7.7368  -7.0293  -4.6553  -4.0742
    -3.3243  -2.5623  -1.6118  -1.4449   0.8494   0.8625   1.3319   3.0174

          k = 0.2000 0.2746 0.0000 ( 30873 PWs)   bands (ev):

   -22.2165 -22.2155 -22.2078 -22.2049 -22.1924 -22.1810 -22.1752 -22.1683
   -22.1674 -22.1606 -13.7903 -13.1657  -7.8030  -7.2073  -4.7647  -3.9705
    -3.4060  -2.5583  -1.9342  -1.3201   0.6488   1.0765   1.3132   2.8123

          k = 0.2000 0.3432 0.0000 ( 30856 PWs)   bands (ev):

   -22.2182 -22.2173 -22.2057 -22.2034 -22.1904 -22.1821 -22.1748 -22.1696
   -22.1659 -22.1607 -13.6604 -13.1783  -7.8690  -7.4142  -4.7200  -3.8438
    -3.4186  -2.6782  -2.2880  -1.3873   0.5469   1.4121   1.5211   2.4920

          k = 0.2000 0.4119 0.0000 ( 30833 PWs)   bands (ev):

   -22.2194 -22.2189 -22.2039 -22.2024 -22.1886 -22.1835 -22.1741 -22.1708
   -22.1644 -22.1612 -13.5255 -13.2194  -7.9024  -7.6156  -4.5419  -3.7448
    -3.4697  -2.8752  -2.4295  -1.6584   0.7079   1.5967   1.7968   2.2902

          k = 0.2000 0.4805 0.0000 ( 30820 PWs)   bands (ev):

   -22.2200 -22.2198 -22.2027 -22.2022 -22.1868 -22.1851 -22.1731 -22.1720
   -22.1630 -22.1620 -13.3989 -13.2938  -7.8755  -7.7773  -4.2649  -3.9438
    -3.3459  -3.1118  -2.2884  -1.9960   1.0179   1.3708   2.0948   2.3106

          k = 0.2667 0.0000 0.0000 ( 30904 PWs)   bands (ev):

   -22.2152 -22.2123 -22.2095 -22.2080 -22.1950 -22.1796 -22.1727 -22.1713
   -22.1649 -22.1626 -13.9527 -13.2204  -7.8737  -7.1500  -4.0905  -3.4544
    -3.2048  -2.4868  -1.8192  -1.5681   0.9078   1.0158   1.7352   2.1681

          k = 0.2667 0.0686 0.0000 ( 30930 PWs)   bands (ev):

   -22.2148 -22.2128 -22.2090 -22.2085 -22.1945 -22.1797 -22.1734 -22.1706
   -22.1654 -22.1622 -13.9350 -13.2147  -7.8631  -7.1536  -4.0714  -3.8689
    -2.8586  -2.7133  -1.7442  -1.4524   0.8022   0.9292   1.7775   2.0647

          k = 0.2667 0.1373 0.0000 ( 30887 PWs)   bands (ev):

   -22.2143 -22.2141 -22.2094 -22.2077 -22.1933 -22.1800 -22.1742 -22.1693
   -22.1665 -22.1616 -13.8833 -13.1995  -7.8350  -7.1693  -4.3521  -4.0184
    -3.1046  -2.6057  -1.5183  -1.4926   0.7585   0.9242   1.3122   2.5368

          k = 0.2667 0.2059 0.0000 ( 30874 PWs)   bands (ev):

   -22.2159 -22.2152 -22.2088 -22.2060 -22.1918 -22.1805 -22.1748 -22.1679
   -22.1678 -22.1612 -13.8014 -13.1805  -7.8007  -7.2091  -4.7416  -3.9482
    -3.4326  -2.5499  -1.8695  -1.2951   0.6711   1.1005   1.3111   2.8232

          k = 0.2667 0.2746 0.0000 ( 30881 PWs)   bands (ev):

   -22.2180 -22.2172 -22.2068 -22.2041 -22.1902 -22.1813 -22.1750 -22.1690
   -22.1665 -22.1609 -13.6960 -13.1666  -7.7740  -7.2845  -4.9869  -3.8991
    -3.6164  -2.6187  -2.3542  -1.3408   0.6128   1.5244   1.6080   2.8067

          k = 0.2667 0.3432 0.0000 ( 30869 PWs)   bands (ev):

   -22.2200 -22.2194 -22.2046 -22.2025 -22.1887 -22.1823 -22.1747 -22.1701
   -22.1650 -22.1608 -13.5764 -13.1685  -7.7602  -7.3945  -5.0605  -3.8694
    -3.7302  -2.7777  -2.7146  -1.6450   0.8390   1.8128   2.1107   2.6181

          k = 0.2667 0.4119 0.0000 ( 30852 PWs)   bands (ev):

   -22.2215 -22.2211 -22.2028 -22.2014 -22.1874 -22.1835 -22.1741 -22.1712
   -22.1637 -22.1611 -13.4544 -13.1959  -7.7465  -7.5198  -4.9643  -4.0187
    -3.7458  -3.0100  -2.7730  -2.0113   1.1749   2.1416   2.2224   2.6268

          k = 0.2667 0.4805 0.0000 ( 30872 PWs)   bands (ev):

   -22.2223 -22.2221 -22.2015 -22.2011 -22.1861 -22.1848 -22.1732 -22.1722
   -22.1625 -22.1616 -13.3431 -13.2544  -7.7090  -7.6320  -4.7259  -4.3879
    -3.5465  -3.2834  -2.6091  -2.3423   1.5376   1.8998   2.4670   2.6981

          k = 0.3333 0.0000 0.0000 ( 30924 PWs)   bands (ev):

   -22.2139 -22.2128 -22.2096 -22.2094 -22.1916 -22.1804 -22.1716 -22.1705
   -22.1657 -22.1639 -13.8230 -13.2597  -8.0319  -7.4771  -3.8994  -3.2253
    -3.0155  -2.4306  -1.8706  -1.1600   0.4585   1.1219   1.3665   1.7074

          k = 0.3333 0.0686 0.0000 ( 30927 PWs)   bands (ev):

   -22.2137 -22.2134 -22.2099 -22.2089 -22.1912 -22.1804 -22.1724 -22.1696
   -22.1664 -22.1634 -13.8066 -13.2527  -8.0107  -7.4672  -3.8832  -3.6589
    -2.7663  -2.6499  -1.7024  -1.2213   0.4699   1.0911   1.3077   1.6636

          k = 0.3333 0.1373 0.0000 ( 30902 PWs)   bands (ev):

   -22.2149 -22.2143 -22.2097 -22.2075 -22.1903 -22.1807 -22.1734 -22.1682
   -22.1676 -22.1626 -13.7588 -13.2334  -7.9499  -7.4412  -4.2052  -3.8400
    -3.0844  -2.6595  -1.5980  -1.3830   0.7013   0.8387   1.3237   2.1601

          k = 0.3333 0.2059 0.0000 ( 30887 PWs)   bands (ev):

   -22.2171 -22.2163 -22.2081 -22.2056 -22.1891 -22.1811 -22.1742 -22.1688
   -22.1668 -22.1619 -13.6837 -13.2073  -7.8584  -7.4099  -4.6893  -3.7943
    -3.5034  -2.6720  -2.1527  -1.3275   0.5947   1.4713   1.5232   2.5045

          k = 0.3333 0.2746 0.0000 ( 30881 PWs)   bands (ev):

   -22.2194 -22.2189 -22.2058 -22.2036 -22.1880 -22.1817 -22.1745 -22.1698
   -22.1655 -22.1613 -13.5883 -13.1829  -7.7523  -7.3891  -5.0534  -3.8826
    -3.7391  -2.7703  -2.6522  -1.6222   0.8671   1.8253   2.1619   2.6151

          k = 0.3333 0.3432 0.0000 ( 30887 PWs)   bands (ev):

   -22.2217 -22.2213 -22.2035 -22.2018 -22.1870 -22.1826 -22.1743 -22.1707
   -22.1642 -22.1611 -13.4823 -13.1705  -7.6529  -7.3928  -5.2545  -4.0878
    -3.9041  -2.9696  -2.8934  -1.9886   1.2354   2.2119   2.5566   2.8159

          k = 0.3333 0.4119 0.0000 ( 30894 PWs)   bands (ev):

   -22.2234 -22.2232 -22.2017 -22.2006 -22.1862 -22.1836 -22.1737 -22.1715
   -22.1630 -22.1611 -13.3774 -13.1800  -7.5762  -7.4235  -5.2676  -4.4080
    -3.9744  -3.2631  -2.8609  -2.2856   1.5816   2.4055   2.6249   3.2488

          k = 0.3333 0.4805 0.0000 ( 30870 PWs)   bands (ev):

   -22.2243 -22.2243 -22.2005 -22.2002 -22.1854 -22.1846 -22.1730 -22.1722
   -22.1621 -22.1614 -13.2859 -13.2182  -7.5196  -7.4696  -5.1007  -4.7932
    -3.8389  -3.5803  -2.7119  -2.5174   1.8951   2.1745   2.9935   3.2481

          k = 0.4000 0.0000 0.0000 ( 30896 PWs)   bands (ev):

   -22.2130 -22.2125 -22.2111 -22.2097 -22.1884 -22.1816 -22.1703 -22.1695
   -22.1667 -22.1654 -13.6839 -13.3275  -8.1075  -7.7573  -3.6716  -3.0164
    -2.9775  -2.4429  -1.7339  -0.8951   0.1027   1.1621   1.1838   1.4051

          k = 0.4000 0.0686 0.0000 ( 30913 PWs)   bands (ev):

   -22.2137 -22.2131 -22.2107 -22.2091 -22.1881 -22.1816 -22.1713 -22.1684
   -22.1675 -22.1646 -13.6692 -13.3187  -8.0812  -7.7382  -3.6609  -3.4200
    -2.8528  -2.6688  -1.5181  -1.1244   0.3223   0.7681   1.4391   1.4448

          k = 0.4000 0.1373 0.0000 ( 30913 PWs)   bands (ev):

   -22.2155 -22.2148 -22.2093 -22.2075 -22.1875 -22.1817 -22.1724 -22.1687
   -22.1671 -22.1636 -13.6263 -13.2942  -8.0042  -7.6836  -3.9802  -3.6388
    -3.1386  -2.8346  -1.6717  -1.3269   0.5147   0.9313   1.5707   1.9330

          k = 0.4000 0.2059 0.0000 ( 30900 PWs)   bands (ev):

   -22.2179 -22.2174 -22.2072 -22.2056 -22.1867 -22.1819 -22.1733 -22.1698
   -22.1657 -22.1627 -13.5598 -13.2590  -7.8823  -7.6011  -4.5191  -3.7208
    -3.5405  -2.8686  -2.2617  -1.5708   0.7803   1.6888   1.8041   2.2950

          k = 0.4000 0.2746 0.0000 ( 30866 PWs)   bands (ev):

   -22.2205 -22.2202 -22.2049 -22.2034 -22.1861 -22.1824 -22.1737 -22.1707
   -22.1645 -22.1619 -13.4770 -13.2214  -7.7281  -7.5045  -4.9671  -4.1179
    -3.6561  -2.9850  -2.7026  -1.9769   1.2224   2.1792   2.2758   2.6823

          k = 0.4000 0.3432 0.0000 ( 30860 PWs)   bands (ev):

   -22.2230 -22.2228 -22.2026 -22.2015 -22.1856 -22.1831 -22.1736 -22.1713
   -22.1633 -22.1614 -13.3877 -13.1914  -7.5642  -7.4128  -5.2788  -4.4806
    -3.8905  -3.2375  -2.8522  -2.2822   1.5968   2.4112   2.6628   3.3733

          k = 0.4000 0.4119 0.0000 ( 30889 PWs)   bands (ev):

   -22.2249 -22.2248 -22.2009 -22.2002 -22.1853 -22.1838 -22.1732 -22.1717
   -22.1624 -22.1612 -13.3035 -13.1795  -7.4245  -7.3456  -5.4147  -4.8141
    -4.0898  -3.5806  -2.8102  -2.4602   1.8940   2.4034   3.1257   3.7285

          k = 0.4000 0.4805 0.0000 ( 30887 PWs)   bands (ev):

   -22.2260 -22.2259 -22.1998 -22.1996 -22.1849 -22.1844 -22.1727 -22.1722
   -22.1617 -22.1613 -13.2359 -13.1934  -7.3402  -7.3176  -5.3555  -5.1304
    -4.0856  -3.8934  -2.7070  -2.5889   2.1316   2.3053   3.4762   3.6920

          k = 0.4667 0.0000 0.0000 ( 30862 PWs)   bands (ev):

   -22.2128 -22.2122 -22.2113 -22.2103 -22.1856 -22.1833 -22.1690 -22.1682
   -22.1678 -22.1668 -13.5472 -13.4250  -8.0860  -7.9661  -3.4243  -3.1864
    -2.7393  -2.5490  -1.4200  -1.0549   0.2435   0.6786   1.1582   1.3489

          k = 0.4667 0.0686 0.0000 ( 30882 PWs)   bands (ev):

   -22.2137 -22.2133 -22.2103 -22.2096 -22.1854 -22.1832 -22.1700 -22.1688
   -22.1672 -22.1659 -13.5343 -13.4142  -8.0588  -7.9414  -3.4278  -3.2752
    -2.9404  -2.7990  -1.2960  -1.1501   0.3056   0.4479   1.4914   1.6919

          k = 0.4667 0.1373 0.0000 ( 30905 PWs)   bands (ev):

   -22.2157 -22.2154 -22.2086 -22.2079 -22.1851 -22.1831 -22.1712 -22.1700
   -22.1659 -22.1647 -13.4974 -13.3836  -7.9787  -7.8691  -3.7153  -3.5214
    -3.2202  -3.0561  -1.5936  -1.4293   0.5808   0.7962   1.8558   1.9854

          k = 0.4667 0.2059 0.0000 ( 30893 PWs)   bands (ev):

   -22.2182 -22.2181 -22.2064 -22.2058 -22.1847 -22.1831 -22.1722 -22.1710
   -22.1646 -22.1636 -13.4409 -13.3380  -7.8505  -7.7545  -4.2626  -3.9654
    -3.3404  -3.1016  -2.1440  -1.8821   1.1044   1.4623   2.1012   2.3086

          k = 0.4667 0.2746 0.0000 ( 30896 PWs)   bands (ev):

   -22.2211 -22.2210 -22.2041 -22.2036 -22.1845 -22.1833 -22.1727 -22.1717
   -22.1635 -22.1627 -13.3727 -13.2853  -7.6840  -7.6084  -4.7528  -4.4495
    -3.4694  -3.2317  -2.5569  -2.3014   1.5900   1.9485   2.5314   2.7828

          k = 0.4667 0.3432 0.0000 ( 30891 PWs)   bands (ev):

   -22.2237 -22.2236 -22.2020 -22.2016 -22.1845 -22.1837 -22.1728 -22.1720
   -22.1626 -22.1619 -13.3026 -13.2356  -7.4987  -7.4496  -5.1356  -4.8539
    -3.7555  -3.5220  -2.7089  -2.5165   1.9130   2.1880   3.0717   3.3632

          k = 0.4667 0.4119 0.0000 ( 30907 PWs)   bands (ev):

   -22.2257 -22.2257 -22.2003 -22.2001 -22.1846 -22.1841 -22.1726 -22.1721
   -22.1618 -22.1614 -13.2420 -13.1996  -7.3292  -7.3070  -5.3770  -5.1608
    -4.0479  -3.8648  -2.7097  -2.5920   2.1367   2.3096   3.5045   3.7276

          k = 0.4667 0.4805 0.0000 ( 30888 PWs)   bands (ev):

   -22.2268 -22.2268 -22.1994 -22.1993 -22.1846 -22.1844 -22.1724 -22.1722
   -22.1614 -22.1612 -13.2010 -13.1865  -7.2242  -7.2195  -5.4523  -5.3676
    -4.1866  -4.1153  -2.6711  -2.6312   2.2822   2.3412   3.7518   3.8671

     the Fermi energy is    -0.8236 ev

!    total energy              =    -413.80390459 Ry
     estimated scf accuracy    <          4.8E-11 Ry
     smearing contrib. (-TS)   =       0.00007966 Ry
     internal energy E=F+TS    =    -413.80398425 Ry

     The total energy is F=E-TS. E is the sum of the following terms:
     one-electron contribution =   -1182.20753593 Ry
     hartree contribution      =     603.26173169 Ry
     xc contribution           =    -154.40493023 Ry
     ewald contribution        =     319.54675021 Ry

     convergence has been achieved in  12 iterations

     negative rho (up, down):  2.865E-05 0.000E+00

     Forces acting on atoms (cartesian axes, Ry/au):

     atom    1 type  1   force =     0.00028888    0.00000000   -0.00020473
     atom    2 type  1   force =     0.00028687    0.00000000    0.00019330
     atom    3 type  2   force =    -0.00028868    0.00000000   -0.00011763
     atom    4 type  2   force =    -0.00028707    0.00000000    0.00012906

     Total force =     0.000664     Total SCF correction =     0.000014

     BFGS Geometry Optimization

     number of scf cycles    =   1
     number of bfgs steps    =   0

     energy   new            =    -413.8039045941 Ry

     new trust radius        =       0.0003540685 bohr
     new conv_thr            =            1.0E-10 Ry


ATOMIC_POSITIONS (crystal)
Sn            0.5840251123        0.7500000000        0.1445508413
Sn            0.0840234601        0.2500000000        0.0065947199
Se            0.0300809439        0.2500000000        0.1423161342
Se            0.5300784578        0.7500000000        0.0088283584



     Writing output data file ./wfc-out/pwscf.save/
     NEW-OLD atomic charge density approx. for the potential

     negative rho (up, down):  2.861E-05 0.000E+00

     total cpu time spent up to now is       69.1 secs

     Self-consistent Calculation

     iteration #  1     ecut=    80.00 Ry     beta= 0.70
     Davidson diagonalization with overlap
     ethr =  1.00E-06,  avg # of iterations =  2.0

     Threshold (ethr) on eigenvalues was too large:
     Diagonalizing with lowered threshold

     Davidson diagonalization with overlap
     ethr =  2.84E-11,  avg # of iterations =  6.8

     negative rho (up, down):  2.840E-05 0.000E+00

     total cpu time spent up to now is       80.4 secs

     total energy              =    -413.80390502 Ry
     estimated scf accuracy    <       0.00000002 Ry

     iteration #  2     ecut=    80.00 Ry     beta= 0.70
     Davidson diagonalization with overlap
     ethr =  4.24E-11,  avg # of iterations =  2.0

     negative rho (up, down):  2.856E-05 0.000E+00

     total cpu time spent up to now is       84.7 secs

     total energy              =    -413.80390502 Ry
     estimated scf accuracy    <       0.00000002 Ry

     iteration #  3     ecut=    80.00 Ry     beta= 0.70
     Davidson diagonalization with overlap
     ethr =  3.76E-11,  avg # of iterations =  2.2

     negative rho (up, down):  2.862E-05 0.000E+00

     total cpu time spent up to now is       89.1 secs

     total energy              =    -413.80390502 Ry
     estimated scf accuracy    <          9.7E-09 Ry

     iteration #  4     ecut=    80.00 Ry     beta= 0.70
     Davidson diagonalization with overlap
     ethr =  2.42E-11,  avg # of iterations =  2.1

     negative rho (up, down):  2.865E-05 0.000E+00

     total cpu time spent up to now is       93.2 secs

     total energy              =    -413.80390502 Ry
     estimated scf accuracy    <          2.6E-09 Ry

     iteration #  5     ecut=    80.00 Ry     beta= 0.70
     Davidson diagonalization with overlap
     ethr =  6.58E-12,  avg # of iterations =  2.0

     negative rho (up, down):  2.865E-05 0.000E+00

     total cpu time spent up to now is       97.4 secs

     End of self-consistent calculation

          k = 0.0000 0.0000 0.0000 ( 30919 PWs)   bands (ev):

   -22.2181 -22.2108 -22.2103 -22.2037 -22.2029 -22.1786 -22.1752 -22.1724
   -22.1633 -22.1595 -14.2175 -13.2019  -7.1999  -6.1918  -4.3518  -3.9919
    -3.9091  -2.7486  -2.7291  -1.5181   0.6073   2.3779   2.8424   2.9848

          k = 0.0000 0.0686 0.0000 ( 30901 PWs)   bands (ev):

   -22.2176 -22.2106 -22.2103 -22.2047 -22.2020 -22.1787 -22.1752 -22.1722
   -22.1636 -22.1596 -14.1979 -13.1980  -7.2629  -6.2679  -4.3516  -3.9763
    -3.8471  -2.7654  -2.6019  -1.5319   0.6203   2.4562   2.7919   2.8540

          k = 0.0000 0.1373 0.0000 ( 30903 PWs)   bands (ev):

   -22.2161 -22.2114 -22.2093 -22.2062 -22.2005 -22.1791 -22.1753 -22.1714
   -22.1644 -22.1596 -14.1400 -13.1885  -7.4302  -6.4807  -4.3274  -3.9049
    -3.6977  -2.7208  -2.3528  -1.5780   0.6647   2.2902   2.5690   2.6148

          k = 0.0000 0.2059 0.0000 ( 30895 PWs)   bands (ev):

   -22.2142 -22.2126 -22.2079 -22.2077 -22.1985 -22.1797 -22.1752 -22.1703
   -22.1656 -22.1598 -14.0473 -13.1800  -7.6517  -6.7871  -4.2481  -3.7710
    -3.4962  -2.6390  -2.0292  -1.6627   0.7540   1.6456   2.1074   2.5892

          k = 0.0000 0.2746 0.0000 ( 30869 PWs)   bands (ev):

   -22.2140 -22.2129 -22.2086 -22.2063 -22.1962 -22.1806 -22.1749 -22.1689
   -22.1670 -22.1602 -13.9254 -13.1826  -7.8711  -7.1333  -4.1075  -3.5843
    -3.2737  -2.5487  -1.7735  -1.6695   0.9010   1.0009   1.6287   2.2299

          k = 0.0000 0.3432 0.0000 ( 30809 PWs)   bands (ev):

   -22.2151 -22.2136 -22.2076 -22.2051 -22.1935 -22.1819 -22.1744 -22.1686
   -22.1672 -22.1607 -13.7832 -13.2082  -8.0408  -7.4717  -3.9149  -3.3636
    -3.0823  -2.4876  -1.8521  -1.3140   0.4256   1.1062   1.2417   1.7141

          k = 0.0000 0.4119 0.0000 ( 30783 PWs)   bands (ev):

   -22.2159 -22.2148 -22.2060 -22.2043 -22.1907 -22.1835 -22.1737 -22.1701
   -22.1655 -22.1615 -13.6322 -13.2663  -8.1261  -7.7649  -3.6863  -3.1772
    -2.9723  -2.4988  -1.7871  -1.0839   0.0612   1.0238   1.0963   1.4309

          k = 0.0000 0.4805 0.0000 ( 30744 PWs)   bands (ev):

   -22.2162 -22.2158 -22.2048 -22.2042 -22.1880 -22.1856 -22.1727 -22.1714
   -22.1639 -22.1625 -13.4865 -13.3606  -8.1081  -7.9840  -3.4450  -3.2353
    -2.7964  -2.6083  -1.5370  -1.2156   0.1640   0.5870   1.0171   1.2133

          k = 0.0667 0.0000 0.0000 ( 30877 PWs)   bands (ev):

   -22.2179 -22.2106 -22.2104 -22.2040 -22.2023 -22.1787 -22.1750 -22.1724
   -22.1634 -22.1598 -14.1998 -13.2009  -7.2669  -6.2740  -4.3487  -3.9209
    -3.8792  -2.7093  -2.6410  -1.5379   0.6204   2.4238   2.6927   2.9558

          k = 0.0667 0.0686 0.0000 ( 30906 PWs)   bands (ev):

   -22.2174 -22.2108 -22.2102 -22.2049 -22.2015 -22.1788 -22.1751 -22.1721
   -22.1637 -22.1598 -14.1803 -13.1969  -7.3195  -6.3411  -4.3423  -4.0585
    -3.6748  -2.8294  -2.4291  -1.5489   0.6351   2.4268   2.4917   2.9374

          k = 0.0667 0.1373 0.0000 ( 30923 PWs)   bands (ev):

   -22.2160 -22.2116 -22.2092 -22.2065 -22.1999 -22.1791 -22.1752 -22.1713
   -22.1645 -22.1598 -14.1228 -13.1871  -7.4632  -6.5318  -4.3094  -4.1229
    -3.4173  -2.8753  -2.1338  -1.5852   0.6834   1.8723   2.5832   2.8433

          k = 0.0667 0.2059 0.0000 ( 30887 PWs)   bands (ev):

   -22.2141 -22.2129 -22.2080 -22.2077 -22.1980 -22.1797 -22.1752 -22.1701
   -22.1657 -22.1599 -14.0306 -13.1780  -7.6602  -6.8134  -4.2279  -4.0870
    -3.1578  -2.8360  -1.8305  -1.6488   0.7756   1.2823   2.3170   2.4642

          k = 0.0667 0.2746 0.0000 ( 30851 PWs)   bands (ev):

   -22.2143 -22.2132 -22.2086 -22.2061 -22.1957 -22.1806 -22.1750 -22.1687
   -22.1672 -22.1602 -13.9097 -13.1798  -7.8615  -7.1394  -4.0901  -3.9591
    -2.9367  -2.7486  -1.7181  -1.5700   0.7780   0.9176   1.7810   1.9865

          k = 0.0667 0.3432 0.0000 ( 30825 PWs)   bands (ev):

   -22.2155 -22.2140 -22.2073 -22.2048 -22.1931 -22.1819 -22.1745 -22.1687
   -22.1670 -22.1607 -13.7688 -13.2039  -8.0201  -7.4634  -3.9027  -3.7587
    -2.8225  -2.6700  -1.7261  -1.4060   0.4479   1.0286   1.3290   1.5513

          k = 0.0667 0.4119 0.0000 ( 30787 PWs)   bands (ev):

   -22.2164 -22.2154 -22.2057 -22.2040 -22.1904 -22.1835 -22.1737 -22.1702
   -22.1654 -22.1614 -13.6195 -13.2602  -8.1002  -7.7469  -3.6820  -3.5209
    -2.8609  -2.6775  -1.6171  -1.3501   0.3019   0.6885   1.3007   1.4714

          k = 0.0667 0.4805 0.0000 ( 30752 PWs)   bands (ev):

   -22.2167 -22.2163 -22.2045 -22.2039 -22.1879 -22.1855 -22.1727 -22.1715
   -22.1638 -22.1624 -13.4759 -13.3524  -8.0814  -7.9601  -3.4612  -3.3564
    -2.9287  -2.8070  -1.4587  -1.3624   0.2613   0.3763   1.3576   1.6570

          k = 0.1333 0.0000 0.0000 ( 30880 PWs)   bands (ev):

   -22.2173 -22.2109 -22.2103 -22.2050 -22.2006 -22.1788 -22.1745 -22.1722
   -22.1637 -22.1604 -14.1476 -13.1996  -7.4406  -6.4976  -4.3177  -3.7907
    -3.7310  -2.6534  -2.3612  -1.5996   0.6658   2.2189   2.5076   2.7019

          k = 0.1333 0.0686 0.0000 ( 30869 PWs)   bands (ev):

   -22.2168 -22.2113 -22.2098 -22.2057 -22.1999 -22.1789 -22.1747 -22.1718
   -22.1640 -22.1603 -14.1284 -13.1953  -7.4701  -6.5433  -4.3021  -4.0855
    -3.3966  -2.8467  -2.1198  -1.6003   0.6845   1.8674   2.5144   2.8921

          k = 0.1333 0.1373 0.0000 ( 30898 PWs)   bands (ev):

   -22.2155 -22.2122 -22.2087 -22.2073 -22.1984 -22.1792 -22.1750 -22.1708
   -22.1649 -22.1602 -14.0719 -13.1846  -7.5565  -6.6790  -4.3187  -4.2540
    -3.0496  -3.0407  -1.8015  -1.6006   0.7414   1.3355   2.3059   3.0036

          k = 0.1333 0.2059 0.0000 ( 30870 PWs)   bands (ev):

   -22.2140 -22.2136 -22.2086 -22.2072 -22.1965 -22.1798 -22.1752 -22.1696
   -22.1662 -22.1602 -13.9817 -13.1738  -7.6880  -6.8942  -4.4290  -4.1689
    -3.1207  -2.7768  -1.5957  -1.5878   0.8339   0.9093   1.7829   2.8560

          k = 0.1333 0.2746 0.0000 ( 30849 PWs)   bands (ev):

   -22.2152 -22.2140 -22.2084 -22.2056 -22.1943 -22.1807 -22.1751 -22.1681
   -22.1676 -22.1603 -13.8638 -13.1727  -7.8359  -7.1613  -4.4080  -4.0411
    -3.1002  -2.6433  -1.6042  -1.5346   0.7340   0.8938   1.3187   2.4930

          k = 0.1333 0.3432 0.0000 ( 30836 PWs)   bands (ev):

   -22.2166 -22.2154 -22.2067 -22.2042 -22.1920 -22.1819 -22.1747 -22.1690
   -22.1665 -22.1606 -13.7269 -13.1926  -7.9604  -7.4414  -4.2696  -3.8717
    -3.0442  -2.6767  -1.7789  -1.4553   0.6438   0.7997   1.3383   2.0903

          k = 0.1333 0.4119 0.0000 ( 30811 PWs)   bands (ev):

   -22.2176 -22.2168 -22.2049 -22.2033 -22.1896 -22.1835 -22.1739 -22.1704
   -22.1649 -22.1613 -13.5829 -13.2433  -8.0241  -7.6951  -4.0405  -3.6810
    -3.0685  -2.8309  -1.8935  -1.4547   0.4474   0.8811   1.5865   1.8464

          k = 0.1333 0.4805 0.0000 ( 30792 PWs)   bands (ev):

   -22.2180 -22.2178 -22.2037 -22.2031 -22.1874 -22.1853 -22.1729 -22.1717
   -22.1634 -22.1622 -13.4456 -13.3289  -8.0027  -7.8898  -3.7655  -3.5777
    -3.1577  -3.0333  -1.8013  -1.6008   0.5081   0.7297   1.8843   1.9511

          k = 0.2000 0.0000 0.0000 ( 30872 PWs)   bands (ev):

   -22.2163 -22.2115 -22.2098 -22.2063 -22.1981 -22.1791 -22.1737 -22.1718
   -22.1641 -22.1613 -14.0637 -13.2036  -7.6621  -6.8086  -4.2328  -3.6471
    -3.4729  -2.5724  -1.9848  -1.7017   0.7575   1.6253   2.2066   2.4630

          k = 0.2000 0.0686 0.0000 ( 30889 PWs)   bands (ev):

   -22.2159 -22.2120 -22.2094 -22.2070 -22.1975 -22.1792 -22.1741 -22.1712
   -22.1646 -22.1611 -14.0451 -13.1988  -7.6685  -6.8311  -4.2133  -4.0181
    -3.1022  -2.7962  -1.7739  -1.6790   0.7799   1.2941   2.2673   2.5170

          k = 0.2000 0.1373 0.0000 ( 30890 PWs)   bands (ev):

   -22.2148 -22.2131 -22.2083 -22.2082 -22.1961 -22.1795 -22.1747 -22.1701
   -22.1656 -22.1608 -13.9906 -13.1863  -7.6914  -6.9026  -4.3958  -4.1577
    -3.1111  -2.7461  -1.5964  -1.5505   0.8392   0.9205   1.7800   2.8817

          k = 0.2000 0.2059 0.0000 ( 30871 PWs)   bands (ev):

   -22.2147 -22.2143 -22.2090 -22.2065 -22.1943 -22.1800 -22.1751 -22.1688
   -22.1669 -22.1606 -13.9037 -13.1723  -7.7371  -7.0294  -4.6557  -4.0745
    -3.3245  -2.5628  -1.6121  -1.4451   0.8496   0.8628   1.3321   3.0175

          k = 0.2000 0.2746 0.0000 ( 30873 PWs)   bands (ev):

   -22.2165 -22.2155 -22.2077 -22.2048 -22.1923 -22.1809 -22.1751 -22.1682
   -22.1673 -22.1605 -13.7908 -13.1661  -7.8033  -7.2075  -4.7650  -3.9709
    -3.4061  -2.5587  -1.9344  -1.3202   0.6491   1.0767   1.3135   2.8124

          k = 0.2000 0.3432 0.0000 ( 30856 PWs)   bands (ev):

   -22.2182 -22.2173 -22.2057 -22.2033 -22.1904 -22.1821 -22.1748 -22.1695
   -22.1658 -22.1607 -13.6610 -13.1788  -7.8693  -7.4145  -4.7203  -3.8443
    -3.4188  -2.6786  -2.2880  -1.3874   0.5472   1.4123   1.5213   2.4922

          k = 0.2000 0.4119 0.0000 ( 30833 PWs)   bands (ev):

   -22.2194 -22.2189 -22.2039 -22.2023 -22.1885 -22.1835 -22.1741 -22.1708
   -22.1643 -22.1611 -13.5260 -13.2199  -7.9028  -7.6158  -4.5422  -3.7453
    -3.4700  -2.8756  -2.4293  -1.6584   0.7080   1.5968   1.7970   2.2905

          k = 0.2000 0.4805 0.0000 ( 30820 PWs)   bands (ev):

   -22.2200 -22.2198 -22.2026 -22.2021 -22.1867 -22.1851 -22.1731 -22.1720
   -22.1630 -22.1619 -13.3994 -13.2943  -7.8759  -7.7776  -4.2652  -3.9441
    -3.3464  -3.1123  -2.2882  -1.9958   1.0180   1.3709   2.0951   2.3110

          k = 0.2667 0.0000 0.0000 ( 30904 PWs)   bands (ev):

   -22.2151 -22.2122 -22.2095 -22.2079 -22.1949 -22.1795 -22.1727 -22.1712
   -22.1648 -22.1625 -13.9532 -13.2209  -7.8739  -7.1500  -4.0907  -3.4551
    -3.2051  -2.4874  -1.8194  -1.5681   0.9082   1.0155   1.7353   2.1676

          k = 0.2667 0.0686 0.0000 ( 30930 PWs)   bands (ev):

   -22.2148 -22.2127 -22.2090 -22.2085 -22.1944 -22.1796 -22.1733 -22.1705
   -22.1653 -22.1622 -13.9356 -13.2151  -7.8632  -7.1536  -4.0717  -3.8694
    -2.8590  -2.7137  -1.7443  -1.4525   0.8020   0.9295   1.7773   2.0647

          k = 0.2667 0.1373 0.0000 ( 30887 PWs)   bands (ev):

   -22.2143 -22.2140 -22.2093 -22.2077 -22.1932 -22.1799 -22.1741 -22.1692
   -22.1665 -22.1616 -13.8839 -13.1999  -7.8352  -7.1694  -4.3525  -4.0187
    -3.1050  -2.6062  -1.5185  -1.4928   0.7586   0.9245   1.3123   2.5367

          k = 0.2667 0.2059 0.0000 ( 30874 PWs)   bands (ev):

   -22.2159 -22.2151 -22.2087 -22.2059 -22.1917 -22.1804 -22.1747 -22.1678
   -22.1677 -22.1611 -13.8020 -13.1809  -7.8009  -7.2092  -4.7420  -3.9486
    -3.4329  -2.5503  -1.8696  -1.2953   0.6713   1.1006   1.3113   2.8234

          k = 0.2667 0.2746 0.0000 ( 30881 PWs)   bands (ev):

   -22.2180 -22.2172 -22.2067 -22.2041 -22.1901 -22.1812 -22.1749 -22.1689
   -22.1664 -22.1608 -13.6966 -13.1670  -7.7743  -7.2846  -4.9873  -3.8996
    -3.6166  -2.6191  -2.3542  -1.3409   0.6130   1.5246   1.6082   2.8070

          k = 0.2667 0.3432 0.0000 ( 30869 PWs)   bands (ev):

   -22.2199 -22.2194 -22.2046 -22.2024 -22.1887 -22.1823 -22.1747 -22.1701
   -22.1649 -22.1608 -13.5769 -13.1689  -7.7606  -7.3947  -5.0609  -3.8698
    -3.7305  -2.7781  -2.7144  -1.6449   0.8391   1.8131   2.1109   2.6183

          k = 0.2667 0.4119 0.0000 ( 30852 PWs)   bands (ev):

   -22.2214 -22.2211 -22.2027 -22.2014 -22.1873 -22.1835 -22.1740 -22.1711
   -22.1636 -22.1610 -13.4549 -13.1963  -7.7469  -7.5201  -4.9646  -4.0190
    -3.7463  -3.0105  -2.7728  -2.0112   1.1750   2.1418   2.2225   2.6271

          k = 0.2667 0.4805 0.0000 ( 30872 PWs)   bands (ev):

   -22.2222 -22.2221 -22.2015 -22.2010 -22.1860 -22.1848 -22.1731 -22.1721
   -22.1625 -22.1616 -13.3436 -13.2549  -7.7094  -7.6324  -4.7262  -4.3882
    -3.5469  -3.2839  -2.6089  -2.3421   1.5377   1.8999   2.4672   2.6984

          k = 0.3333 0.0000 0.0000 ( 30924 PWs)   bands (ev):

   -22.2138 -22.2127 -22.2096 -22.2094 -22.1916 -22.1803 -22.1715 -22.1704
   -22.1656 -22.1639 -13.8236 -13.2602  -8.0320  -7.4771  -3.8996  -3.2260
    -3.0159  -2.4312  -1.8708  -1.1601   0.4582   1.1223   1.3666   1.7071

          k = 0.3333 0.0686 0.0000 ( 30927 PWs)   bands (ev):

   -22.2137 -22.2133 -22.2099 -22.2088 -22.1912 -22.1804 -22.1723 -22.1695
   -22.1663 -22.1633 -13.8072 -13.2531  -8.0108  -7.4672  -3.8835  -3.6594
    -2.7667  -2.6505  -1.7026  -1.2214   0.4697   1.0914   1.3077   1.6637

          k = 0.3333 0.1373 0.0000 ( 30902 PWs)   bands (ev):

   -22.2149 -22.2143 -22.2096 -22.2074 -22.1903 -22.1806 -22.1734 -22.1681
   -22.1675 -22.1625 -13.7594 -13.2339  -7.9501  -7.4412  -4.2057  -3.8403
    -3.0850  -2.6598  -1.5980  -1.3833   0.7015   0.8386   1.3239   2.1602

          k = 0.3333 0.2059 0.0000 ( 30887 PWs)   bands (ev):

   -22.2170 -22.2163 -22.2080 -22.2056 -22.1891 -22.1810 -22.1741 -22.1687
   -22.1668 -22.1618 -13.6843 -13.2078  -7.8586  -7.4099  -4.6897  -3.7947
    -3.5039  -2.6723  -2.1526  -1.3276   0.5948   1.4713   1.5235   2.5048

          k = 0.3333 0.2746 0.0000 ( 30881 PWs)   bands (ev):

   -22.2194 -22.2189 -22.2057 -22.2036 -22.1880 -22.1817 -22.1744 -22.1697
   -22.1654 -22.1613 -13.5889 -13.1834  -7.7525  -7.3892  -5.0538  -3.8832
    -3.7394  -2.7707  -2.6520  -1.6221   0.8672   1.8255   2.1620   2.6154

          k = 0.3333 0.3432 0.0000 ( 30887 PWs)   bands (ev):

   -22.2216 -22.2213 -22.2035 -22.2018 -22.1870 -22.1826 -22.1742 -22.1706
   -22.1641 -22.1610 -13.4828 -13.1709  -7.6533  -7.3931  -5.2548  -4.0883
    -3.9044  -2.9701  -2.8931  -1.9884   1.2355   2.2120   2.5569   2.8160

          k = 0.3333 0.4119 0.0000 ( 30894 PWs)   bands (ev):

   -22.2234 -22.2232 -22.2017 -22.2006 -22.1862 -22.1836 -22.1737 -22.1714
   -22.1629 -22.1610 -13.3779 -13.1805  -7.5766  -7.4238  -5.2678  -4.4082
    -3.9747  -3.2635  -2.8607  -2.2854   1.5817   2.4057   2.6250   3.2490

          k = 0.3333 0.4805 0.0000 ( 30870 PWs)   bands (ev):

   -22.2243 -22.2242 -22.2005 -22.2001 -22.1854 -22.1845 -22.1729 -22.1721
   -22.1620 -22.1613 -13.2864 -13.2187  -7.5200  -7.4700  -5.1009  -4.7934
    -3.8393  -3.5806  -2.7117  -2.5173   1.8952   2.1747   2.9935   3.2482

          k = 0.4000 0.0000 0.0000 ( 30896 PWs)   bands (ev):

   -22.2130 -22.2125 -22.2110 -22.2096 -22.1883 -22.1815 -22.1702 -22.1694
   -22.1666 -22.1653 -13.6845 -13.3280  -8.1076  -7.7573  -3.6719  -3.0167
    -2.9782  -2.4436  -1.7341  -0.8953   0.1026   1.1624   1.1837   1.4054

          k = 0.4000 0.0686 0.0000 ( 30913 PWs)   bands (ev):

   -22.2137 -22.2130 -22.2106 -22.2090 -22.1881 -22.1815 -22.1712 -22.1683
   -22.1674 -22.1646 -13.6697 -13.3192  -8.0813  -7.7382  -3.6612  -3.4206
    -2.8532  -2.6695  -1.5184  -1.1245   0.3221   0.7682   1.4393   1.4452

          k = 0.4000 0.1373 0.0000 ( 30913 PWs)   bands (ev):

   -22.2154 -22.2148 -22.2092 -22.2075 -22.1875 -22.1816 -22.1723 -22.1687
   -22.1670 -22.1635 -13.6269 -13.2947  -8.0043  -7.6836  -3.9808  -3.6391
    -3.1393  -2.8350  -1.6716  -1.3270   0.5147   0.9311   1.5710   1.9333

          k = 0.4000 0.2059 0.0000 ( 30900 PWs)   bands (ev):

   -22.2178 -22.2173 -22.2072 -22.2055 -22.1867 -22.1819 -22.1732 -22.1698
   -22.1657 -22.1626 -13.5604 -13.2595  -7.8825  -7.6012  -4.5196  -3.7214
    -3.5409  -2.8690  -2.2614  -1.5707   0.7803   1.6886   1.8043   2.2953

          k = 0.4000 0.2746 0.0000 ( 30866 PWs)   bands (ev):

   -22.2205 -22.2202 -22.2048 -22.2034 -22.1860 -22.1824 -22.1736 -22.1706
   -22.1644 -22.1619 -13.4775 -13.2219  -7.7283  -7.5047  -4.9676  -4.1185
    -3.6564  -2.9854  -2.7023  -1.9767   1.2225   2.1792   2.2760   2.6823

          k = 0.4000 0.3432 0.0000 ( 30860 PWs)   bands (ev):

   -22.2230 -22.2228 -22.2026 -22.2015 -22.1856 -22.1830 -22.1736 -22.1712
   -22.1632 -22.1614 -13.3882 -13.1919  -7.5645  -7.4130  -5.2791  -4.4811
    -3.8907  -3.2379  -2.8520  -2.2820   1.5969   2.4115   2.6628   3.3732

          k = 0.4000 0.4119 0.0000 ( 30889 PWs)   bands (ev):

   -22.2249 -22.2248 -22.2008 -22.2001 -22.1852 -22.1837 -22.1732 -22.1717
   -22.1623 -22.1611 -13.3040 -13.1799  -7.4249  -7.3460  -5.4149  -4.8144
    -4.0900  -3.5809  -2.8101  -2.4601   1.8941   2.4036   3.1256   3.7285

          k = 0.4000 0.4805 0.0000 ( 30887 PWs)   bands (ev):

   -22.2259 -22.2259 -22.1998 -22.1995 -22.1849 -22.1844 -22.1726 -22.1721
   -22.1616 -22.1612 -13.2364 -13.1938  -7.3407  -7.3181  -5.3556  -5.1305
    -4.0859  -3.8937  -2.7069  -2.5888   2.1317   2.3054   3.4762   3.6919

          k = 0.4667 0.0000 0.0000 ( 30862 PWs)   bands (ev):

   -22.2128 -22.2121 -22.2113 -22.2103 -22.1855 -22.1832 -22.1690 -22.1681
   -22.1677 -22.1667 -13.5477 -13.4255  -8.0860  -7.9661  -3.4246  -3.1867
    -2.7400  -2.5498  -1.4203  -1.0553   0.2435   0.6785   1.1585   1.3492

          k = 0.4667 0.0686 0.0000 ( 30882 PWs)   bands (ev):

   -22.2137 -22.2133 -22.2102 -22.2095 -22.1854 -22.1832 -22.1700 -22.1687
   -22.1671 -22.1658 -13.5349 -13.4148  -8.0589  -7.9414  -3.4281  -3.2756
    -2.9410  -2.7997  -1.2963  -1.1503   0.3055   0.4479   1.4916   1.6921

          k = 0.4667 0.1373 0.0000 ( 30905 PWs)   bands (ev):

   -22.2156 -22.2154 -22.2085 -22.2079 -22.1850 -22.1831 -22.1712 -22.1699
   -22.1658 -22.1646 -13.4979 -13.3841  -7.9788  -7.8691  -3.7159  -3.5218
    -3.2207  -3.0565  -1.5934  -1.4293   0.5807   0.7960   1.8560   1.9856

          k = 0.4667 0.2059 0.0000 ( 30893 PWs)   bands (ev):

   -22.2182 -22.2180 -22.2064 -22.2058 -22.1847 -22.1831 -22.1721 -22.1709
   -22.1646 -22.1635 -13.4415 -13.3385  -7.8506  -7.7546  -4.2632  -3.9660
    -3.3407  -3.1020  -2.1437  -1.8819   1.1044   1.4621   2.1014   2.3087

          k = 0.4667 0.2746 0.0000 ( 30896 PWs)   bands (ev):

   -22.2210 -22.2209 -22.2040 -22.2035 -22.1845 -22.1833 -22.1726 -22.1716
   -22.1635 -22.1626 -13.3732 -13.2858  -7.6842  -7.6086  -4.7533  -4.4500
    -3.4698  -3.2321  -2.5566  -2.3012   1.5901   1.9486   2.5314   2.7827

          k = 0.4667 0.3432 0.0000 ( 30891 PWs)   bands (ev):

   -22.2237 -22.2236 -22.2019 -22.2015 -22.1844 -22.1836 -22.1727 -22.1719
   -22.1625 -22.1619 -13.3031 -13.2360  -7.4990  -7.4498  -5.1359  -4.8543
    -3.7557  -3.5223  -2.7087  -2.5163   1.9132   2.1882   3.0716   3.3629

          k = 0.4667 0.4119 0.0000 ( 30907 PWs)   bands (ev):

   -22.2257 -22.2257 -22.2003 -22.2000 -22.1845 -22.1840 -22.1726 -22.1721
   -22.1618 -22.1614 -13.2425 -13.2001  -7.3296  -7.3074  -5.3772  -5.1610
    -4.0481  -3.8651  -2.7096  -2.5919   2.1369   2.3097   3.5044   3.7275

          k = 0.4667 0.4805 0.0000 ( 30888 PWs)   bands (ev):

   -22.2268 -22.2268 -22.1994 -22.1993 -22.1845 -22.1844 -22.1723 -22.1722
   -22.1613 -22.1612 -13.2015 -13.1870  -7.2247  -7.2200  -5.4523  -5.3676
    -4.1868  -4.1155  -2.6710  -2.6312   2.2822   2.3412   3.7518   3.8669

     the Fermi energy is    -0.8240 ev

!    total energy              =    -413.80390502 Ry
     estimated scf accuracy    <          3.1E-11 Ry
     smearing contrib. (-TS)   =       0.00007988 Ry
     internal energy E=F+TS    =    -413.80398490 Ry

     The total energy is F=E-TS. E is the sum of the following terms:
     one-electron contribution =   -1182.24713656 Ry
     hartree contribution      =     603.28141038 Ry
     xc contribution           =    -154.40508356 Ry
     ewald contribution        =     319.56682485 Ry

     convergence has been achieved in   5 iterations

     negative rho (up, down):  2.865E-05 0.000E+00

     Forces acting on atoms (cartesian axes, Ry/au):

     atom    1 type  1   force =     0.00027617    0.00000000   -0.00017823
     atom    2 type  1   force =     0.00027605    0.00000000    0.00017223
     atom    3 type  2   force =    -0.00027666    0.00000000   -0.00009306
     atom    4 type  2   force =    -0.00027556    0.00000000    0.00009906

     Total force =     0.000620     Total SCF correction =     0.000021

     number of scf cycles    =   2
     number of bfgs steps    =   1

     energy   old            =    -413.8039045941 Ry
     energy   new            =    -413.8039050198 Ry

     CASE: energy  _new < energy  _old


     WARNING: bfgs curvature condition failed, Theta= 0.858
     new trust radius        =       0.0003894754 bohr
     new conv_thr            =            1.0E-12 Ry


ATOMIC_POSITIONS (crystal)
Sn            0.5840639676        0.7500000000        0.1445451301
Sn            0.0840622174        0.2500000000        0.0066001954
Se            0.0300420503        0.2500000000        0.1423130493
Se            0.5300397387        0.7500000000        0.0088316791



     Writing output data file ./wfc-out/pwscf.save/
     NEW-OLD atomic charge density approx. for the potential

     negative rho (up, down):  2.876E-05 0.000E+00

     total cpu time spent up to now is      101.4 secs

     Self-consistent Calculation

     iteration #  1     ecut=    80.00 Ry     beta= 0.70
     Davidson diagonalization with overlap
     ethr =  1.00E-06,  avg # of iterations =  2.0

     Threshold (ethr) on eigenvalues was too large:
     Diagonalizing with lowered threshold

     Davidson diagonalization with overlap
     ethr =  3.46E-11,  avg # of iterations =  6.9

     negative rho (up, down):  2.840E-05 0.000E+00

     total cpu time spent up to now is      112.9 secs

     total energy              =    -413.80390545 Ry
     estimated scf accuracy    <       0.00000002 Ry

     iteration #  2     ecut=    80.00 Ry     beta= 0.70
     Davidson diagonalization with overlap
     ethr =  5.32E-11,  avg # of iterations =  2.1

     negative rho (up, down):  2.855E-05 0.000E+00

     total cpu time spent up to now is      117.4 secs

     total energy              =    -413.80390544 Ry
     estimated scf accuracy    <       0.00000002 Ry

     iteration #  3     ecut=    80.00 Ry     beta= 0.70
     Davidson diagonalization with overlap
     ethr =  3.83E-11,  avg # of iterations =  2.0

     negative rho (up, down):  2.862E-05 0.000E+00

     total cpu time spent up to now is      121.7 secs

     total energy              =    -413.80390544 Ry
     estimated scf accuracy    <          2.8E-09 Ry

     iteration #  4     ecut=    80.00 Ry     beta= 0.70
     Davidson diagonalization with overlap
     ethr =  7.06E-12,  avg # of iterations =  2.7

     negative rho (up, down):  2.865E-05 0.000E+00

     total cpu time spent up to now is      126.0 secs

     total energy              =    -413.80390545 Ry
     estimated scf accuracy    <          5.9E-09 Ry

     iteration #  5     ecut=    80.00 Ry     beta= 0.70
     Davidson diagonalization with overlap
     ethr =  7.06E-12,  avg # of iterations =  2.3

     negative rho (up, down):  2.865E-05 0.000E+00

     total cpu time spent up to now is      130.4 secs

     total energy              =    -413.80390545 Ry
     estimated scf accuracy    <          4.4E-11 Ry

     iteration #  6     ecut=    80.00 Ry     beta= 0.70
     Davidson diagonalization with overlap
     ethr =  1.10E-13,  avg # of iterations =  3.9

     negative rho (up, down):  2.866E-05 0.000E+00

     total cpu time spent up to now is      135.4 secs

     total energy              =    -413.80390545 Ry
     estimated scf accuracy    <          1.1E-11 Ry

     iteration #  7     ecut=    80.00 Ry     beta= 0.70
     Davidson diagonalization with overlap
     ethr =  1.00E-13,  avg # of iterations =  1.3

     negative rho (up, down):  2.866E-05 0.000E+00

     total cpu time spent up to now is      139.1 secs

     End of self-consistent calculation

          k = 0.0000 0.0000 0.0000 ( 30919 PWs)   bands (ev):

   -22.2181 -22.2107 -22.2102 -22.2037 -22.2029 -22.1786 -22.1752 -22.1724
   -22.1632 -22.1595 -14.2182 -13.2024  -7.2003  -6.1919  -4.3520  -3.9921
    -3.9098  -2.7484  -2.7296  -1.5182   0.6075   2.3766   2.8422   2.9843

          k = 0.0000 0.0686 0.0000 ( 30901 PWs)   bands (ev):

   -22.2175 -22.2106 -22.2103 -22.2047 -22.2019 -22.1787 -22.1752 -22.1721
   -22.1635 -22.1595 -14.1985 -13.1984  -7.2632  -6.2680  -4.3519  -3.9766
    -3.8477  -2.7655  -2.6021  -1.5320   0.6205   2.4549   2.7912   2.8540

          k = 0.0000 0.1373 0.0000 ( 30903 PWs)   bands (ev):

   -22.2161 -22.2114 -22.2093 -22.2061 -22.2004 -22.1790 -22.1752 -22.1714
   -22.1643 -22.1596 -14.1407 -13.1889  -7.4306  -6.4808  -4.3277  -3.9053
    -3.6982  -2.7210  -2.3529  -1.5781   0.6650   2.2900   2.5687   2.6137

          k = 0.0000 0.2059 0.0000 ( 30895 PWs)   bands (ev):

   -22.2142 -22.2126 -22.2078 -22.2077 -22.1985 -22.1796 -22.1751 -22.1702
   -22.1655 -22.1598 -14.0479 -13.1804  -7.6521  -6.7872  -4.2484  -3.7714
    -3.4967  -2.6392  -2.0294  -1.6628   0.7543   1.6456   2.1074   2.5887

          k = 0.0000 0.2746 0.0000 ( 30869 PWs)   bands (ev):

   -22.2139 -22.2129 -22.2085 -22.2063 -22.1961 -22.1805 -22.1748 -22.1688
   -22.1670 -22.1601 -13.9261 -13.1831  -7.8715  -7.1334  -4.1079  -3.5848
    -3.2742  -2.5491  -1.7736  -1.6696   0.9012   1.0010   1.6289   2.2299

          k = 0.0000 0.3432 0.0000 ( 30809 PWs)   bands (ev):

   -22.2151 -22.2135 -22.2075 -22.2050 -22.1934 -22.1818 -22.1744 -22.1685
   -22.1671 -22.1606 -13.7838 -13.2086  -8.0412  -7.4719  -3.9154  -3.3642
    -3.0827  -2.4880  -1.8522  -1.3142   0.4258   1.1064   1.2420   1.7144

          k = 0.0000 0.4119 0.0000 ( 30783 PWs)   bands (ev):

   -22.2159 -22.2148 -22.2060 -22.2042 -22.1907 -22.1835 -22.1736 -22.1700
   -22.1655 -22.1614 -13.6327 -13.2668  -8.1265  -7.7652  -3.6867  -3.1779
    -2.9727  -2.4994  -1.7871  -1.0842   0.0615   1.0243   1.0965   1.4312

          k = 0.0000 0.4805 0.0000 ( 30744 PWs)   bands (ev):

   -22.2161 -22.2158 -22.2047 -22.2041 -22.1880 -22.1856 -22.1726 -22.1714
   -22.1638 -22.1625 -13.4870 -13.3612  -8.1084  -7.9843  -3.4455  -3.2359
    -2.7970  -2.6089  -1.5372  -1.2159   0.1644   0.5874   1.0176   1.2138

          k = 0.0667 0.0000 0.0000 ( 30877 PWs)   bands (ev):

   -22.2179 -22.2106 -22.2104 -22.2040 -22.2023 -22.1786 -22.1750 -22.1723
   -22.1633 -22.1597 -14.2004 -13.2013  -7.2672  -6.2740  -4.3490  -3.9211
    -3.8799  -2.7098  -2.6409  -1.5380   0.6206   2.4224   2.6920   2.9557

          k = 0.0667 0.0686 0.0000 ( 30906 PWs)   bands (ev):

   -22.2173 -22.2107 -22.2102 -22.2049 -22.2014 -22.1787 -22.1750 -22.1720
   -22.1636 -22.1597 -14.1809 -13.1973  -7.3198  -6.3411  -4.3426  -4.0589
    -3.6752  -2.8296  -2.4293  -1.5490   0.6353   2.4264   2.4904   2.9374

          k = 0.0667 0.1373 0.0000 ( 30923 PWs)   bands (ev):

   -22.2159 -22.2116 -22.2091 -22.2064 -22.1999 -22.1791 -22.1751 -22.1712
   -22.1645 -22.1597 -14.1234 -13.1875  -7.4635  -6.5319  -4.3097  -4.1233
    -3.4178  -2.8755  -2.1340  -1.5852   0.6837   1.8722   2.5822   2.8430

          k = 0.0667 0.2059 0.0000 ( 30887 PWs)   bands (ev):

   -22.2141 -22.2128 -22.2080 -22.2076 -22.1979 -22.1797 -22.1751 -22.1700
   -22.1657 -22.1598 -14.0313 -13.1785  -7.6606  -6.8136  -4.2283  -4.0875
    -3.1583  -2.8362  -1.8308  -1.6489   0.7759   1.2823   2.3168   2.4640

          k = 0.0667 0.2746 0.0000 ( 30851 PWs)   bands (ev):

   -22.2142 -22.2131 -22.2085 -22.2061 -22.1956 -22.1806 -22.1749 -22.1686
   -22.1671 -22.1601 -13.9104 -13.1802  -7.8619  -7.1396  -4.0905  -3.9596
    -2.9373  -2.7489  -1.7182  -1.5703   0.7783   0.9179   1.7812   1.9866

          k = 0.0667 0.3432 0.0000 ( 30825 PWs)   bands (ev):

   -22.2155 -22.2140 -22.2073 -22.2048 -22.1930 -22.1818 -22.1744 -22.1686
   -22.1670 -22.1606 -13.7694 -13.2044  -8.0205  -7.4636  -3.9031  -3.7592
    -2.8230  -2.6704  -1.7262  -1.4062   0.4482   1.0288   1.3294   1.5515

          k = 0.0667 0.4119 0.0000 ( 30787 PWs)   bands (ev):

   -22.2163 -22.2153 -22.2057 -22.2040 -22.1904 -22.1835 -22.1737 -22.1701
   -22.1653 -22.1613 -13.6201 -13.2607  -8.1006  -7.7472  -3.6824  -3.5215
    -2.8614  -2.6780  -1.6173  -1.3503   0.3022   0.6889   1.3011   1.4717

          k = 0.0667 0.4805 0.0000 ( 30752 PWs)   bands (ev):

   -22.2166 -22.2163 -22.2045 -22.2039 -22.1878 -22.1855 -22.1727 -22.1715
   -22.1637 -22.1624 -13.4764 -13.3529  -8.0818  -7.9605  -3.4617  -3.3570
    -2.9291  -2.8075  -1.4589  -1.3626   0.2617   0.3767   1.3580   1.6574

          k = 0.1333 0.0000 0.0000 ( 30880 PWs)   bands (ev):

   -22.2172 -22.2109 -22.2102 -22.2049 -22.2006 -22.1787 -22.1744 -22.1721
   -22.1636 -22.1603 -14.1482 -13.2001  -7.4409  -6.4977  -4.3180  -3.7914
    -3.7313  -2.6539  -2.3611  -1.5997   0.6661   2.2183   2.5063   2.7018

          k = 0.1333 0.0686 0.0000 ( 30869 PWs)   bands (ev):

   -22.2167 -22.2112 -22.2098 -22.2057 -22.1999 -22.1789 -22.1746 -22.1717
   -22.1640 -22.1602 -14.1290 -13.1958  -7.4704  -6.5434  -4.3024  -4.0860
    -3.3970  -2.8470  -2.1199  -1.6004   0.6847   1.8671   2.5133   2.8919

          k = 0.1333 0.1373 0.0000 ( 30898 PWs)   bands (ev):

   -22.2154 -22.2122 -22.2087 -22.2072 -22.1983 -22.1792 -22.1750 -22.1708
   -22.1649 -22.1601 -14.0726 -13.1851  -7.5569  -6.6791  -4.3191  -4.2543
    -3.0500  -3.0409  -1.8017  -1.6007   0.7416   1.3355   2.3055   3.0034

          k = 0.1333 0.2059 0.0000 ( 30870 PWs)   bands (ev):

   -22.2140 -22.2136 -22.2086 -22.2071 -22.1964 -22.1798 -22.1751 -22.1695
   -22.1661 -22.1601 -13.9823 -13.1743  -7.6883  -6.8943  -4.4295  -4.1693
    -3.1209  -2.7773  -1.5960  -1.5879   0.8342   0.9095   1.7831   2.8559

          k = 0.1333 0.2746 0.0000 ( 30849 PWs)   bands (ev):

   -22.2151 -22.2140 -22.2083 -22.2055 -22.1942 -22.1807 -22.1750 -22.1680
   -22.1675 -22.1602 -13.8644 -13.1732  -7.8363  -7.1615  -4.4085  -4.0415
    -3.1004  -2.6439  -1.6045  -1.5348   0.7343   0.8940   1.3191   2.4930

          k = 0.1333 0.3432 0.0000 ( 30836 PWs)   bands (ev):

   -22.2166 -22.2153 -22.2066 -22.2041 -22.1919 -22.1819 -22.1746 -22.1690
   -22.1664 -22.1606 -13.7275 -13.1931  -7.9608  -7.4417  -4.2700  -3.8722
    -3.0444  -2.6772  -1.7791  -1.4555   0.6441   0.8000   1.3386   2.0904

          k = 0.1333 0.4119 0.0000 ( 30811 PWs)   bands (ev):

   -22.2176 -22.2168 -22.2049 -22.2033 -22.1896 -22.1835 -22.1739 -22.1704
   -22.1648 -22.1612 -13.5835 -13.2438  -8.0245  -7.6954  -4.0410  -3.6815
    -3.0689  -2.8314  -1.8935  -1.4549   0.4477   0.8813   1.5868   1.8467

          k = 0.1333 0.4805 0.0000 ( 30792 PWs)   bands (ev):

   -22.2180 -22.2177 -22.2037 -22.2031 -22.1873 -22.1853 -22.1729 -22.1717
   -22.1634 -22.1621 -13.4461 -13.3294  -8.0031  -7.8902  -3.7660  -3.5782
    -3.1581  -3.0338  -1.8013  -1.6009   0.5084   0.7299   1.8846   1.9515

          k = 0.2000 0.0000 0.0000 ( 30872 PWs)   bands (ev):

   -22.2163 -22.2115 -22.2098 -22.2063 -22.1980 -22.1790 -22.1736 -22.1717
   -22.1641 -22.1612 -14.0643 -13.2041  -7.6624  -6.8086  -4.2331  -3.6478
    -3.4732  -2.5730  -1.9847  -1.7018   0.7578   1.6249   2.2067   2.4620

          k = 0.2000 0.0686 0.0000 ( 30889 PWs)   bands (ev):

   -22.2158 -22.2119 -22.2093 -22.2069 -22.1974 -22.1791 -22.1740 -22.1712
   -22.1645 -22.1611 -14.0458 -13.1992  -7.6688  -6.8311  -4.2136  -4.0186
    -3.1027  -2.7966  -1.7740  -1.6791   0.7802   1.2939   2.2667   2.5169

          k = 0.2000 0.1373 0.0000 ( 30890 PWs)   bands (ev):

   -22.2148 -22.2131 -22.2083 -22.2081 -22.1960 -22.1794 -22.1746 -22.1701
   -22.1655 -22.1607 -13.9912 -13.1868  -7.6917  -6.9027  -4.3962  -4.1581
    -3.1114  -2.7466  -1.5965  -1.5507   0.8395   0.9205   1.7800   2.8816

          k = 0.2000 0.2059 0.0000 ( 30871 PWs)   bands (ev):

   -22.2146 -22.2142 -22.2089 -22.2065 -22.1942 -22.1800 -22.1750 -22.1687
   -22.1668 -22.1605 -13.9043 -13.1728  -7.7374  -7.0295  -4.6562  -4.0750
    -3.3247  -2.5633  -1.6124  -1.4452   0.8498   0.8630   1.3324   3.0175

          k = 0.2000 0.2746 0.0000 ( 30873 PWs)   bands (ev):

   -22.2165 -22.2154 -22.2077 -22.2048 -22.1923 -22.1809 -22.1751 -22.1681
   -22.1672 -22.1604 -13.7914 -13.1666  -7.8037  -7.2077  -4.7654  -3.9714
    -3.4063  -2.5592  -1.9346  -1.3204   0.6493   1.0770   1.3138   2.8126

          k = 0.2000 0.3432 0.0000 ( 30856 PWs)   bands (ev):

   -22.2181 -22.2172 -22.2056 -22.2033 -22.1904 -22.1820 -22.1747 -22.1695
   -22.1657 -22.1606 -13.6616 -13.1792  -7.8697  -7.4147  -4.7207  -3.8448
    -3.4190  -2.6791  -2.2880  -1.3875   0.5474   1.4126   1.5216   2.4923

          k = 0.2000 0.4119 0.0000 ( 30833 PWs)   bands (ev):

   -22.2194 -22.2188 -22.2038 -22.2023 -22.1885 -22.1834 -22.1740 -22.1707
   -22.1642 -22.1610 -13.5266 -13.2204  -7.9032  -7.6162  -4.5426  -3.7458
    -3.4703  -2.8761  -2.4292  -1.6584   0.7082   1.5969   1.7973   2.2909

          k = 0.2000 0.4805 0.0000 ( 30820 PWs)   bands (ev):

   -22.2200 -22.2198 -22.2026 -22.2020 -22.1867 -22.1850 -22.1730 -22.1719
   -22.1629 -22.1618 -13.3999 -13.2948  -7.8763  -7.7780  -4.2656  -3.9446
    -3.3469  -3.1128  -2.2880  -1.9957   1.0181   1.3710   2.0954   2.3113

          k = 0.2667 0.0000 0.0000 ( 30904 PWs)   bands (ev):

   -22.2151 -22.2122 -22.2094 -22.2079 -22.1949 -22.1795 -22.1726 -22.1712
   -22.1647 -22.1624 -13.9539 -13.2214  -7.8741  -7.1500  -4.0910  -3.4558
    -3.2054  -2.4880  -1.8195  -1.5681   0.9085   1.0151   1.7354   2.1669

          k = 0.2667 0.0686 0.0000 ( 30930 PWs)   bands (ev):

   -22.2148 -22.2127 -22.2089 -22.2084 -22.1944 -22.1796 -22.1732 -22.1704
   -22.1653 -22.1621 -13.9362 -13.2156  -7.8634  -7.1536  -4.0720  -3.8700
    -2.8595  -2.7143  -1.7445  -1.4526   0.8019   0.9299   1.7771   2.0646

          k = 0.2667 0.1373 0.0000 ( 30887 PWs)   bands (ev):

   -22.2142 -22.2140 -22.2093 -22.2076 -22.1932 -22.1799 -22.1741 -22.1691
   -22.1664 -22.1615 -13.8845 -13.2004  -7.8354  -7.1694  -4.3531  -4.0190
    -3.1054  -2.6066  -1.5187  -1.4929   0.7586   0.9248   1.3124   2.5367

          k = 0.2667 0.2059 0.0000 ( 30874 PWs)   bands (ev):

   -22.2159 -22.2151 -22.2087 -22.2059 -22.1917 -22.1804 -22.1747 -22.1677
   -22.1676 -22.1610 -13.8026 -13.1814  -7.8012  -7.2093  -4.7425  -3.9490
    -3.4333  -2.5508  -1.8698  -1.2955   0.6715   1.1007   1.3116   2.8237

          k = 0.2667 0.2746 0.0000 ( 30881 PWs)   bands (ev):

   -22.2180 -22.2172 -22.2067 -22.2040 -22.1901 -22.1812 -22.1749 -22.1689
   -22.1663 -22.1607 -13.6972 -13.1675  -7.7746  -7.2848  -4.9877  -3.9001
    -3.6169  -2.6196  -2.3542  -1.3410   0.6132   1.5249   1.6083   2.8073

          k = 0.2667 0.3432 0.0000 ( 30869 PWs)   bands (ev):

   -22.2199 -22.2193 -22.2045 -22.2024 -22.1886 -22.1822 -22.1746 -22.1700
   -22.1649 -22.1607 -13.5775 -13.1694  -7.7610  -7.3950  -5.0612  -3.8704
    -3.7308  -2.7786  -2.7142  -1.6448   0.8392   1.8133   2.1111   2.6186

          k = 0.2667 0.4119 0.0000 ( 30852 PWs)   bands (ev):

   -22.2214 -22.2211 -22.2027 -22.2013 -22.1873 -22.1834 -22.1739 -22.1710
   -22.1635 -22.1609 -13.4555 -13.1968  -7.7474  -7.5205  -4.9649  -4.0194
    -3.7468  -3.0110  -2.7725  -2.0110   1.1751   2.1420   2.2225   2.6274

          k = 0.2667 0.4805 0.0000 ( 30872 PWs)   bands (ev):

   -22.2222 -22.2221 -22.2014 -22.2010 -22.1860 -22.1847 -22.1730 -22.1720
   -22.1624 -22.1615 -13.3442 -13.2554  -7.7098  -7.6328  -4.7265  -4.3885
    -3.5475  -3.2844  -2.6086  -2.3419   1.5378   1.8999   2.4674   2.6986

          k = 0.3333 0.0000 0.0000 ( 30924 PWs)   bands (ev):

   -22.2138 -22.2127 -22.2095 -22.2093 -22.1915 -22.1803 -22.1714 -22.1704
   -22.1656 -22.1638 -13.8242 -13.2607  -8.0321  -7.4771  -3.8999  -3.2268
    -3.0163  -2.4320  -1.8710  -1.1602   0.4579   1.1227   1.3669   1.7067

          k = 0.3333 0.0686 0.0000 ( 30927 PWs)   bands (ev):

   -22.2137 -22.2133 -22.2098 -22.2088 -22.1912 -22.1803 -22.1723 -22.1694
   -22.1662 -22.1632 -13.8078 -13.2537  -8.0110  -7.4672  -3.8838  -3.6600
    -2.7672  -2.6511  -1.7029  -1.2215   0.4695   1.0917   1.3077   1.6638

          k = 0.3333 0.1373 0.0000 ( 30902 PWs)   bands (ev):

   -22.2148 -22.2142 -22.2096 -22.2074 -22.1902 -22.1806 -22.1733 -22.1681
   -22.1674 -22.1624 -13.7600 -13.2344  -7.9502  -7.4412  -4.2063  -3.8407
    -3.0856  -2.6603  -1.5980  -1.3835   0.7016   0.8385   1.3242   2.1603

          k = 0.3333 0.2059 0.0000 ( 30887 PWs)   bands (ev):

   -22.2170 -22.2162 -22.2080 -22.2055 -22.1891 -22.1810 -22.1740 -22.1686
   -22.1667 -22.1617 -13.6849 -13.2083  -7.8588  -7.4100  -4.6903  -3.7951
    -3.5044  -2.6728  -2.1524  -1.3277   0.5950   1.4712   1.5237   2.5050

          k = 0.3333 0.2746 0.0000 ( 30881 PWs)   bands (ev):

   -22.2194 -22.2188 -22.2057 -22.2035 -22.1879 -22.1816 -22.1743 -22.1697
   -22.1653 -22.1612 -13.5895 -13.1839  -7.7528  -7.3894  -5.0542  -3.8839
    -3.7398  -2.7712  -2.6517  -1.6220   0.8673   1.8257   2.1620   2.6158

          k = 0.3333 0.3432 0.0000 ( 30887 PWs)   bands (ev):

   -22.2216 -22.2213 -22.2034 -22.2017 -22.1869 -22.1825 -22.1742 -22.1706
   -22.1640 -22.1609 -13.4834 -13.1715  -7.6536  -7.3933  -5.2552  -4.0888
    -3.9047  -2.9706  -2.8928  -1.9882   1.2356   2.2121   2.5571   2.8161

          k = 0.3333 0.4119 0.0000 ( 30894 PWs)   bands (ev):

   -22.2233 -22.2232 -22.2016 -22.2005 -22.1861 -22.1835 -22.1736 -22.1713
   -22.1628 -22.1609 -13.3784 -13.1810  -7.5771  -7.4242  -5.2681  -4.4086
    -3.9752  -3.2640  -2.8605  -2.2852   1.5818   2.4058   2.6250   3.2491

          k = 0.3333 0.4805 0.0000 ( 30870 PWs)   bands (ev):

   -22.2243 -22.2242 -22.2004 -22.2001 -22.1853 -22.1845 -22.1728 -22.1721
   -22.1619 -22.1612 -13.2869 -13.2192  -7.5205  -7.4705  -5.1011  -4.7936
    -3.8397  -3.5811  -2.7116  -2.5171   1.8953   2.1748   2.9936   3.2482

          k = 0.4000 0.0000 0.0000 ( 30896 PWs)   bands (ev):

   -22.2129 -22.2124 -22.2110 -22.2096 -22.1883 -22.1815 -22.1702 -22.1693
   -22.1666 -22.1652 -13.6851 -13.3285  -8.1076  -7.7573  -3.6721  -3.0171
    -2.9790  -2.4444  -1.7344  -0.8956   0.1024   1.1627   1.1835   1.4058

          k = 0.4000 0.0686 0.0000 ( 30913 PWs)   bands (ev):

   -22.2136 -22.2130 -22.2106 -22.2090 -22.1881 -22.1815 -22.1711 -22.1683
   -22.1674 -22.1645 -13.6704 -13.3198  -8.0814  -7.7382  -3.6615  -3.4212
    -2.8537  -2.6703  -1.5187  -1.1245   0.3218   0.7682   1.4396   1.4455

          k = 0.4000 0.1373 0.0000 ( 30913 PWs)   bands (ev):

   -22.2154 -22.2148 -22.2092 -22.2074 -22.1874 -22.1816 -22.1723 -22.1686
   -22.1669 -22.1634 -13.6275 -13.2952  -8.0044  -7.6836  -3.9814  -3.6394
    -3.1401  -2.8354  -1.6714  -1.3272   0.5148   0.9308   1.5712   1.9335

          k = 0.4000 0.2059 0.0000 ( 30900 PWs)   bands (ev):

   -22.2178 -22.2173 -22.2071 -22.2055 -22.1867 -22.1818 -22.1731 -22.1697
   -22.1656 -22.1625 -13.5610 -13.2600  -7.8826  -7.6012  -4.5202  -3.7220
    -3.5414  -2.8694  -2.2611  -1.5706   0.7803   1.6883   1.8045   2.2957

          k = 0.4000 0.2746 0.0000 ( 30866 PWs)   bands (ev):

   -22.2204 -22.2201 -22.2048 -22.2033 -22.1860 -22.1823 -22.1735 -22.1706
   -22.1643 -22.1618 -13.4781 -13.2224  -7.7286  -7.5048  -4.9681  -4.1192
    -3.6568  -2.9858  -2.7019  -1.9765   1.2226   2.1793   2.2761   2.6823

          k = 0.4000 0.3432 0.0000 ( 30860 PWs)   bands (ev):

   -22.2229 -22.2228 -22.2025 -22.2014 -22.1855 -22.1830 -22.1735 -22.1712
   -22.1632 -22.1613 -13.3888 -13.1924  -7.5649  -7.4133  -5.2795  -4.4816
    -3.8910  -3.2383  -2.8517  -2.2817   1.5970   2.4117   2.6627   3.3731

          k = 0.4000 0.4119 0.0000 ( 30889 PWs)   bands (ev):

   -22.2248 -22.2248 -22.2008 -22.2001 -22.1852 -22.1837 -22.1731 -22.1716
   -22.1622 -22.1610 -13.3046 -13.1805  -7.4255  -7.3464  -5.4151  -4.8146
    -4.0903  -3.5813  -2.8100  -2.4599   1.8942   2.4037   3.1255   3.7284

          k = 0.4000 0.4805 0.0000 ( 30887 PWs)   bands (ev):

   -22.2259 -22.2258 -22.1997 -22.1995 -22.1848 -22.1843 -22.1726 -22.1720
   -22.1615 -22.1611 -13.2369 -13.1944  -7.3412  -7.3186  -5.3557  -5.1306
    -4.0862  -3.8940  -2.7068  -2.5887   2.1318   2.3055   3.4761   3.6919

          k = 0.4667 0.0000 0.0000 ( 30862 PWs)   bands (ev):

   -22.2127 -22.2121 -22.2112 -22.2102 -22.1855 -22.1832 -22.1689 -22.1681
   -22.1677 -22.1667 -13.5484 -13.4261  -8.0860  -7.9661  -3.4249  -3.1870
    -2.7409  -2.5506  -1.4207  -1.0556   0.2435   0.6784   1.1589   1.3496

          k = 0.4667 0.0686 0.0000 ( 30882 PWs)   bands (ev):

   -22.2136 -22.2132 -22.2102 -22.2095 -22.1853 -22.1831 -22.1699 -22.1686
   -22.1670 -22.1658 -13.5355 -13.4154  -8.0589  -7.9414  -3.4284  -3.2760
    -2.9417  -2.8006  -1.2965  -1.1504   0.3053   0.4479   1.4919   1.6924

          k = 0.4667 0.1373 0.0000 ( 30905 PWs)   bands (ev):

   -22.2156 -22.2153 -22.2085 -22.2078 -22.1850 -22.1830 -22.1711 -22.1698
   -22.1657 -22.1646 -13.4985 -13.3847  -7.9789  -7.8691  -3.7165  -3.5223
    -3.2214  -3.0569  -1.5933  -1.4293   0.5806   0.7957   1.8563   1.9859

          k = 0.4667 0.2059 0.0000 ( 30893 PWs)   bands (ev):

   -22.2182 -22.2180 -22.2063 -22.2057 -22.1846 -22.1830 -22.1720 -22.1708
   -22.1645 -22.1635 -13.4421 -13.3390  -7.8507  -7.7546  -4.2638  -3.9667
    -3.3412  -3.1024  -2.1434  -1.8817   1.1043   1.4620   2.1015   2.3089

          k = 0.4667 0.2746 0.0000 ( 30896 PWs)   bands (ev):

   -22.2210 -22.2209 -22.2040 -22.2035 -22.1844 -22.1832 -22.1726 -22.1715
   -22.1634 -22.1625 -13.3738 -13.2863  -7.6844  -7.6088  -4.7538  -4.4506
    -3.4702  -3.2326  -2.5563  -2.3009   1.5902   1.9488   2.5313   2.7825

          k = 0.4667 0.3432 0.0000 ( 30891 PWs)   bands (ev):

   -22.2236 -22.2236 -22.2019 -22.2015 -22.1844 -22.1836 -22.1727 -22.1719
   -22.1624 -22.1618 -13.3037 -13.2366  -7.4994  -7.4502  -5.1363  -4.8548
    -3.7560  -3.5226  -2.7085  -2.5161   1.9133   2.1884   3.0714   3.3627

          k = 0.4667 0.4119 0.0000 ( 30907 PWs)   bands (ev):

   -22.2257 -22.2256 -22.2002 -22.2000 -22.1845 -22.1840 -22.1725 -22.1720
   -22.1617 -22.1613 -13.2430 -13.2006  -7.3301  -7.3079  -5.3774  -5.1612
    -4.0484  -3.8654  -2.7095  -2.5918   2.1370   2.3098   3.5042   3.7273

          k = 0.4667 0.4805 0.0000 ( 30888 PWs)   bands (ev):

   -22.2268 -22.2267 -22.1993 -22.1992 -22.1845 -22.1843 -22.1723 -22.1721
   -22.1612 -22.1611 -13.2021 -13.1875  -7.2254  -7.2206  -5.4524  -5.3677
    -4.1871  -4.1158  -2.6709  -2.6311   2.2822   2.3412   3.7517   3.8667

     the Fermi energy is    -0.8244 ev

!    total energy              =    -413.80390545 Ry
     estimated scf accuracy    <          6.0E-13 Ry
     smearing contrib. (-TS)   =       0.00008013 Ry
     internal energy E=F+TS    =    -413.80398558 Ry

     The total energy is F=E-TS. E is the sum of the following terms:
     one-electron contribution =   -1182.28872245 Ry
     hartree contribution      =     603.30211046 Ry
     xc contribution           =    -154.40524871 Ry
     ewald contribution        =     319.58787512 Ry

     convergence has been achieved in   7 iterations

     negative rho (up, down):  2.866E-05 0.000E+00

     Forces acting on atoms (cartesian axes, Ry/au):

     atom    1 type  1   force =     0.00025983    0.00000000   -0.00012689
     atom    2 type  1   force =     0.00025991    0.00000000    0.00012536
     atom    3 type  2   force =    -0.00026040    0.00000000   -0.00006740
     atom    4 type  2   force =    -0.00025934    0.00000000    0.00006894

     Total force =     0.000558     Total SCF correction =     0.000004

     number of scf cycles    =   3
[...]

   -22.2163 -22.2098 -22.2090 -22.2040 -22.2006 -22.1780 -22.1740 -22.1710
   -22.1626 -22.1587 -14.1856 -13.2022  -7.3208  -6.3404  -4.3464  -4.0603
    -3.6777  -2.8326  -2.4310  -1.5491   0.6353   2.4225   2.4707   2.9365

          k = 0.0667 0.1373 0.0000 ( 30923 PWs)   bands (ev):

   -22.2149 -22.2106 -22.2079 -22.2055 -22.1991 -22.1784 -22.1741 -22.1702
   -22.1634 -22.1587 -14.1281 -13.1923  -7.4652  -6.5318  -4.3139  -4.1250
    -3.4202  -2.8777  -2.1365  -1.5851   0.6834   1.8737   2.5667   2.8403

          k = 0.0667 0.2059 0.0000 ( 30887 PWs)   bands (ev):

   -22.2131 -22.2119 -22.2070 -22.2064 -22.1972 -22.1790 -22.1740 -22.1690
   -22.1646 -22.1588 -14.0358 -13.1830  -7.6631  -6.8145  -4.2327  -4.0893
    -3.1612  -2.8385  -1.8339  -1.6484   0.7751   1.2870   2.3147   2.4653

          k = 0.0667 0.2746 0.0000 ( 30851 PWs)   bands (ev):

   -22.2133 -22.2123 -22.2074 -22.2049 -22.1949 -22.1799 -22.1738 -22.1675
   -22.1661 -22.1590 -13.9147 -13.1845  -7.8652  -7.1416  -4.0950  -3.9618
    -2.9407  -2.7519  -1.7175  -1.5739   0.7851   0.9165   1.7856   1.9912

          k = 0.0667 0.3432 0.0000 ( 30825 PWs)   bands (ev):

   -22.2146 -22.2132 -22.2061 -22.2036 -22.1923 -22.1812 -22.1734 -22.1676
   -22.1659 -22.1595 -13.7736 -13.2084  -8.0245  -7.4666  -3.9076  -3.7620
    -2.8269  -2.6747  -1.7258  -1.4096   0.4559   1.0288   1.3348   1.5588

          k = 0.0667 0.4119 0.0000 ( 30787 PWs)   bands (ev):

   -22.2154 -22.2145 -22.2045 -22.2028 -22.1897 -22.1828 -22.1726 -22.1691
   -22.1642 -22.1602 -13.6241 -13.2646  -8.1049  -7.7509  -3.6869  -3.5254
    -2.8649  -2.6833  -1.6181  -1.3526   0.3094   0.6956   1.3103   1.4718

          k = 0.0667 0.4805 0.0000 ( 30752 PWs)   bands (ev):

   -22.2157 -22.2154 -22.2032 -22.2027 -22.1871 -22.1848 -22.1716 -22.1704
   -22.1626 -22.1613 -13.4803 -13.3567  -8.0862  -7.9647  -3.4664  -3.3621
    -2.9324  -2.8123  -1.4609  -1.3647   0.2695   0.3849   1.3671   1.6645

          k = 0.1333 0.0000 0.0000 ( 30880 PWs)   bands (ev):

   -22.2163 -22.2099 -22.2090 -22.2039 -22.1998 -22.1780 -22.1734 -22.1710
   -22.1626 -22.1593 -14.1530 -13.2051  -7.4410  -6.4966  -4.3210  -3.7983
    -3.7290  -2.6622  -2.3590  -1.6001   0.6665   2.2107   2.4860   2.7056

          k = 0.1333 0.0686 0.0000 ( 30869 PWs)   bands (ev):

   -22.2158 -22.2102 -22.2086 -22.2047 -22.1991 -22.1781 -22.1736 -22.1707
   -22.1629 -22.1592 -14.1338 -13.2008  -7.4708  -6.5425  -4.3056  -4.0886
    -3.3991  -2.8519  -2.1212  -1.6007   0.6850   1.8654   2.4944   2.8906

          k = 0.1333 0.1373 0.0000 ( 30898 PWs)   bands (ev):

   -22.2145 -22.2112 -22.2075 -22.2062 -22.1976 -22.1785 -22.1739 -22.1697
   -22.1638 -22.1591 -14.0773 -13.1899  -7.5580  -6.6789  -4.3214  -4.2581
    -3.0528  -3.0443  -1.8043  -1.6007   0.7415   1.3382   2.2982   3.0006

          k = 0.1333 0.2059 0.0000 ( 30870 PWs)   bands (ev):

   -22.2131 -22.2126 -22.2075 -22.2059 -22.1957 -22.1791 -22.1740 -22.1684
   -22.1651 -22.1590 -13.9869 -13.1789  -7.6905  -6.8951  -4.4313  -4.1737
    -3.1234  -2.7808  -1.5995  -1.5877   0.8334   0.9154   1.7853   2.8549

          k = 0.1333 0.2746 0.0000 ( 30849 PWs)   bands (ev):

   -22.2142 -22.2131 -22.2072 -22.2043 -22.1935 -22.1800 -22.1739 -22.1670
   -22.1665 -22.1592 -13.8688 -13.1775  -7.8395  -7.1634  -4.4101  -4.0464
    -3.1026  -2.6479  -1.6076  -1.5350   0.7415   0.8937   1.3244   2.4948

          k = 0.1333 0.3432 0.0000 ( 30836 PWs)   bands (ev):

   -22.2156 -22.2145 -22.2054 -22.2029 -22.1912 -22.1812 -22.1735 -22.1679
   -22.1654 -22.1595 -13.7317 -13.1972  -7.9649  -7.4447  -4.2717  -3.8772
    -3.0473  -2.6813  -1.7802  -1.4570   0.6501   0.8065   1.3400   2.0945

          k = 0.1333 0.4119 0.0000 ( 30811 PWs)   bands (ev):

   -22.2167 -22.2159 -22.2037 -22.2021 -22.1889 -22.1828 -22.1728 -22.1693
   -22.1638 -22.1601 -13.5875 -13.2478  -8.0290  -7.6993  -4.0431  -3.6865
    -3.0725  -2.8354  -1.8928  -1.4571   0.4557   0.8865   1.5870   1.8527

          k = 0.1333 0.4805 0.0000 ( 30792 PWs)   bands (ev):

   -22.2171 -22.2168 -22.2025 -22.2019 -22.1867 -22.1846 -22.1718 -22.1706
   -22.1623 -22.1610 -13.4500 -13.3333  -8.0078  -7.8946  -3.7689  -3.5826
    -3.1616  -3.0376  -1.8009  -1.6021   0.5157   0.7356   1.8850   1.9570

          k = 0.2000 0.0000 0.0000 ( 30872 PWs)   bands (ev):

   -22.2153 -22.2105 -22.2086 -22.2053 -22.1972 -22.1783 -22.1726 -22.1707
   -22.1630 -22.1602 -14.0692 -13.2092  -7.6619  -6.8073  -4.2356  -3.6550
    -3.4719  -2.5819  -1.9837  -1.7026   0.7585   1.6196   2.2115   2.4447

          k = 0.2000 0.0686 0.0000 ( 30889 PWs)   bands (ev):

   -22.2149 -22.2109 -22.2081 -22.2059 -22.1966 -22.1784 -22.1729 -22.1701
   -22.1634 -22.1600 -14.0506 -13.2044  -7.6686  -6.8301  -4.2163  -4.0222
    -3.1051  -2.8033  -1.7752  -1.6798   0.7807   1.2935   2.2564   2.5176

          k = 0.2000 0.1373 0.0000 ( 30890 PWs)   bands (ev):

   -22.2138 -22.2121 -22.2073 -22.2070 -22.1952 -22.1787 -22.1735 -22.1690
   -22.1645 -22.1597 -13.9960 -13.1918  -7.6922  -6.9022  -4.3992  -4.1614
    -3.1163  -2.7499  -1.5969  -1.5530   0.8396   0.9238   1.7789   2.8807

          k = 0.2000 0.2059 0.0000 ( 30871 PWs)   bands (ev):

   -22.2137 -22.2134 -22.2078 -22.2053 -22.1935 -22.1793 -22.1739 -22.1676
   -22.1657 -22.1594 -13.9090 -13.1776  -7.7391  -7.0301  -4.6585  -4.0795
    -3.3282  -2.5671  -1.6143  -1.4459   0.8548   0.8632   1.3358   3.0156

          k = 0.2000 0.2746 0.0000 ( 30873 PWs)   bands (ev):

   -22.2155 -22.2146 -22.2065 -22.2036 -22.1916 -22.1802 -22.1740 -22.1671
   -22.1662 -22.1594 -13.7959 -13.1711  -7.8066  -7.2094  -4.7670  -3.9771
    -3.4084  -2.5633  -1.9347  -1.3220   0.6537   1.0822   1.3157   2.8115

          k = 0.2000 0.3432 0.0000 ( 30856 PWs)   bands (ev):

   -22.2172 -22.2164 -22.2045 -22.2021 -22.1896 -22.1813 -22.1736 -22.1684
   -22.1646 -22.1595 -13.6658 -13.1835  -7.8738  -7.4178  -4.7217  -3.8509
    -3.4213  -2.6834  -2.2859  -1.3890   0.5534   1.4173   1.5226   2.4926

          k = 0.2000 0.4119 0.0000 ( 30833 PWs)   bands (ev):

   -22.2185 -22.2179 -22.2026 -22.2011 -22.1878 -22.1827 -22.1729 -22.1697
   -22.1631 -22.1600 -13.5307 -13.2244  -7.9080  -7.6203  -4.5434  -3.7503
    -3.4744  -2.8809  -2.4256  -1.6582   0.7133   1.6000   1.7981   2.2933

          k = 0.2000 0.4805 0.0000 ( 30820 PWs)   bands (ev):

   -22.2191 -22.2189 -22.2014 -22.2009 -22.1860 -22.1843 -22.1720 -22.1708
   -22.1618 -22.1607 -13.4039 -13.2987  -7.8814  -7.7828  -4.2667  -3.9464
    -3.3524  -3.1180  -2.2849  -1.9938   1.0218   1.3736   2.0964   2.3134

          k = 0.2667 0.0000 0.0000 ( 30904 PWs)   bands (ev):

   -22.2141 -22.2112 -22.2083 -22.2069 -22.1941 -22.1788 -22.1715 -22.1701
   -22.1637 -22.1614 -13.9589 -13.2267  -7.8730  -7.1485  -4.0932  -3.4636
    -3.2050  -2.4978  -1.8206  -1.5681   0.9094   1.0114   1.7415   2.1556

          k = 0.2667 0.0686 0.0000 ( 30930 PWs)   bands (ev):

   -22.2138 -22.2117 -22.2078 -22.2074 -22.1936 -22.1788 -22.1721 -22.1694
   -22.1642 -22.1611 -13.9412 -13.2209  -7.8626  -7.1523  -4.0743  -3.8745
    -2.8623  -2.7228  -1.7456  -1.4535   0.8017   0.9307   1.7735   2.0674

          k = 0.2667 0.1373 0.0000 ( 30887 PWs)   bands (ev):

   -22.2133 -22.2130 -22.2082 -22.2065 -22.1924 -22.1791 -22.1730 -22.1681
   -22.1653 -22.1605 -13.8894 -13.2055  -7.8352  -7.1686  -4.3568  -4.0219
    -3.1126  -2.6100  -1.5200  -1.4934   0.7605   0.9257   1.3132   2.5378

          k = 0.2667 0.2059 0.0000 ( 30874 PWs)   bands (ev):

   -22.2149 -22.2142 -22.2076 -22.2047 -22.1909 -22.1797 -22.1736 -22.1667
   -22.1666 -22.1600 -13.8074 -13.1863  -7.8022  -7.2095  -4.7454  -3.9533
    -3.4387  -2.5544  -1.8684  -1.2972   0.6750   1.1032   1.3126   2.8238

          k = 0.2667 0.2746 0.0000 ( 30881 PWs)   bands (ev):

   -22.2170 -22.2163 -22.2056 -22.2029 -22.1893 -22.1804 -22.1738 -22.1678
   -22.1652 -22.1597 -13.7017 -13.1721  -7.7772  -7.2864  -4.9896  -3.9071
    -3.6196  -2.6236  -2.3508  -1.3419   0.6174   1.5259   1.6113   2.8058

          k = 0.2667 0.3432 0.0000 ( 30869 PWs)   bands (ev):

   -22.2190 -22.2185 -22.2034 -22.2012 -22.1879 -22.1815 -22.1735 -22.1690
   -22.1638 -22.1596 -13.5819 -13.1737  -7.7651  -7.3981  -5.0619  -3.8778
    -3.7330  -2.7834  -2.7090  -1.6437   0.8422   1.8145   2.1141   2.6169

          k = 0.2667 0.4119 0.0000 ( 30852 PWs)   bands (ev):

   -22.2205 -22.2202 -22.2015 -22.2002 -22.1865 -22.1827 -22.1729 -22.1700
   -22.1625 -22.1599 -13.4597 -13.2009  -7.7527  -7.5250  -4.9647  -4.0202
    -3.7541  -3.0166  -2.7673  -2.0080   1.1763   2.1438   2.2207   2.6311

          k = 0.2667 0.4805 0.0000 ( 30872 PWs)   bands (ev):

   -22.2213 -22.2212 -22.2003 -22.1998 -22.1853 -22.1840 -22.1720 -22.1710
   -22.1613 -22.1604 -13.3482 -13.2594  -7.7156  -7.6383  -4.7260  -4.3884
    -3.5542  -3.2906  -2.6040  -2.3379   1.5375   1.8984   2.4700   2.7022

          k = 0.3333 0.0000 0.0000 ( 30924 PWs)   bands (ev):

   -22.2128 -22.2117 -22.2086 -22.2082 -22.1907 -22.1795 -22.1704 -22.1693
   -22.1645 -22.1628 -13.8294 -13.2661  -8.0306  -7.4754  -3.9018  -3.2353
    -3.0167  -2.4427  -1.8724  -1.1615   0.4557   1.1237   1.3741   1.6997

          k = 0.3333 0.0686 0.0000 ( 30927 PWs)   bands (ev):

   -22.2127 -22.2123 -22.2088 -22.2077 -22.1903 -22.1796 -22.1712 -22.1684
   -22.1652 -22.1622 -13.8129 -13.2590  -8.0097  -7.4657  -3.8858  -3.6654
    -2.7704  -2.6615  -1.7046  -1.2215   0.4682   1.0931   1.3064   1.6689

          k = 0.3333 0.1373 0.0000 ( 30902 PWs)   bands (ev):

   -22.2139 -22.2133 -22.2085 -22.2063 -22.1894 -22.1798 -22.1722 -22.1670
   -22.1664 -22.1614 -13.7650 -13.2396  -7.9495  -7.4402  -4.2110  -3.8431
    -3.0954  -2.6636  -1.5953  -1.3855   0.7042   0.8372   1.3243   2.1635

          k = 0.3333 0.2059 0.0000 ( 30887 PWs)   bands (ev):

   -22.2160 -22.2153 -22.2069 -22.2044 -22.1883 -22.1802 -22.1730 -22.1676
   -22.1656 -22.1607 -13.6897 -13.2133  -7.8592  -7.4099  -4.6941  -3.7990
    -3.5127  -2.6764  -2.1476  -1.3287   0.5982   1.4706   1.5239   2.5066

          k = 0.3333 0.2746 0.0000 ( 30881 PWs)   bands (ev):

   -22.2184 -22.2179 -22.2046 -22.2024 -22.1871 -22.1809 -22.1733 -22.1686
   -22.1643 -22.1601 -13.5941 -13.1886  -7.7549  -7.3907  -5.0568  -3.8937
    -3.7416  -2.7755  -2.6454  -1.6208   0.8694   1.8262   2.1624   2.6153

          k = 0.3333 0.3432 0.0000 ( 30887 PWs)   bands (ev):

   -22.2207 -22.2204 -22.2023 -22.2006 -22.1862 -22.1818 -22.1731 -22.1695
   -22.1630 -22.1599 -13.4878 -13.1759  -7.6577  -7.3965  -5.2559  -4.0956
    -3.9070  -2.9757  -2.8870  -1.9850   1.2359   2.2134   2.5539   2.8185

          k = 0.3333 0.4119 0.0000 ( 30894 PWs)   bands (ev):

   -22.2224 -22.2223 -22.2005 -22.1994 -22.1853 -22.1827 -22.1726 -22.1703
   -22.1618 -22.1599 -13.3826 -13.1852  -7.5830  -7.4293  -5.2671  -4.4084
    -3.9811  -3.2694  -2.8560  -2.2812   1.5801   2.4017   2.6272   3.2531

          k = 0.3333 0.4805 0.0000 ( 30870 PWs)   bands (ev):

   -22.2234 -22.2233 -22.1993 -22.1990 -22.1845 -22.1837 -22.1718 -22.1710
   -22.1608 -22.1602 -13.2910 -13.2233  -7.5273  -7.4769  -5.0991  -4.7917
    -3.8456  -3.5866  -2.7075  -2.5131   1.8919   2.1705   2.9968   3.2526

          k = 0.4000 0.0000 0.0000 ( 30896 PWs)   bands (ev):

   -22.2119 -22.2114 -22.2100 -22.2085 -22.1875 -22.1807 -22.1691 -22.1683
   -22.1655 -22.1642 -13.6904 -13.3340  -8.1058  -7.7554  -3.6739  -3.0182
    -2.9884  -2.4557  -1.7361  -0.8986   0.1019   1.1707   1.1799   1.4063

          k = 0.4000 0.0686 0.0000 ( 30913 PWs)   bands (ev):

   -22.2127 -22.2120 -22.2096 -22.2079 -22.1872 -22.1807 -22.1701 -22.1672
   -22.1663 -22.1634 -13.6756 -13.3252  -8.0798  -7.7365  -3.6633  -3.4270
    -2.8576  -2.6816  -1.5209  -1.1237   0.3187   0.7690   1.4457   1.4465

          k = 0.4000 0.1373 0.0000 ( 30913 PWs)   bands (ev):

   -22.2144 -22.2138 -22.2081 -22.2064 -22.1866 -22.1808 -22.1712 -22.1675
   -22.1659 -22.1624 -13.6326 -13.3005  -8.0033  -7.6824  -3.9870  -3.6413
    -3.1515  -2.8388  -1.6669  -1.3285   0.5167   0.9264   1.5711   1.9385

          k = 0.4000 0.2059 0.0000 ( 30900 PWs)   bands (ev):

   -22.2168 -22.2164 -22.2061 -22.2044 -22.1858 -22.1811 -22.1721 -22.1686
   -22.1645 -22.1615 -13.5659 -13.2651  -7.8826  -7.6010  -4.5251  -3.7283
    -3.5483  -2.8731  -2.2547  -1.5695   0.7817   1.6845   1.8040   2.2981

          k = 0.4000 0.2746 0.0000 ( 30866 PWs)   bands (ev):

   -22.2195 -22.2192 -22.2037 -22.2022 -22.1852 -22.1815 -22.1725 -22.1695
   -22.1633 -22.1607 -13.4828 -13.2272  -7.7302  -7.5060  -4.9715  -4.1273
    -3.6602  -2.9903  -2.6952  -1.9734   1.2231   2.1790   2.2741   2.6816

          k = 0.4000 0.3432 0.0000 ( 30860 PWs)   bands (ev):

   -22.2220 -22.2218 -22.2015 -22.2003 -22.1847 -22.1822 -22.1724 -22.1701
   -22.1621 -22.1602 -13.3933 -13.1969  -7.5688  -7.4166  -5.2807  -4.4863
    -3.8937  -3.2430  -2.8468  -2.2778   1.5958   2.4088   2.6633   3.3719

          k = 0.4000 0.4119 0.0000 ( 30889 PWs)   bands (ev):

   -22.2239 -22.2238 -22.1997 -22.1990 -22.1843 -22.1829 -22.1721 -22.1706
   -22.1612 -22.1600 -13.3089 -13.1847  -7.4319  -7.3521  -5.4135  -4.8140
    -4.0946  -3.5858  -2.8063  -2.4563   1.8907   2.3988   3.1268   3.7313

          k = 0.4000 0.4805 0.0000 ( 30887 PWs)   bands (ev):

   -22.2250 -22.2249 -22.1987 -22.1984 -22.1840 -22.1835 -22.1715 -22.1710
   -22.1604 -22.1600 -13.2410 -13.1985  -7.3492  -7.3262  -5.3520  -5.1269
    -4.0912  -3.8987  -2.7036  -2.5854   2.1264   2.2995   3.4786   3.6959

          k = 0.4667 0.0000 0.0000 ( 30862 PWs)   bands (ev):

   -22.2117 -22.2111 -22.2102 -22.2092 -22.1847 -22.1824 -22.1678 -22.1670
   -22.1666 -22.1656 -13.5538 -13.4316  -8.0841  -7.9642  -3.4265  -3.1884
    -2.7512  -2.5617  -1.4230  -1.0588   0.2427   0.6762   1.1668   1.3568

          k = 0.4667 0.0686 0.0000 ( 30882 PWs)   bands (ev):

   -22.2126 -22.2123 -22.2092 -22.2084 -22.1845 -22.1823 -22.1688 -22.1676
   -22.1660 -22.1647 -13.5409 -13.4208  -8.0571  -7.9397  -3.4300  -3.2790
    -2.9498  -2.8115  -1.2984  -1.1506   0.3034   0.4481   1.4977   1.6933

          k = 0.4667 0.1373 0.0000 ( 30905 PWs)   bands (ev):

   -22.2146 -22.2144 -22.2074 -22.2068 -22.1842 -22.1822 -22.1700 -22.1688
   -22.1647 -22.1635 -13.5037 -13.3900  -7.9776  -7.8678  -3.7228  -3.5260
    -3.2299  -3.0611  -1.5898  -1.4283   0.5802   0.7925   1.8558   1.9876

          k = 0.4667 0.2059 0.0000 ( 30893 PWs)   bands (ev):

   -22.2172 -22.2171 -22.2053 -22.2047 -22.1838 -22.1822 -22.1710 -22.1698
   -22.1635 -22.1624 -13.4471 -13.3441  -7.8504  -7.7543  -4.2699  -3.9740
    -3.3457  -3.1064  -2.1382  -1.8784   1.1039   1.4599   2.1001   2.3073

          k = 0.4667 0.2746 0.0000 ( 30896 PWs)   bands (ev):

   -22.2201 -22.2200 -22.2029 -22.2024 -22.1836 -22.1824 -22.1715 -22.1705
   -22.1623 -22.1615 -13.3786 -13.2911  -7.6857  -7.6099  -4.7584  -4.4568
    -3.4742  -3.2369  -2.5507  -2.2964   1.5898   1.9477   2.5298   2.7797

          k = 0.4667 0.3432 0.0000 ( 30891 PWs)   bands (ev):

   -22.2227 -22.2226 -22.2008 -22.2004 -22.1836 -22.1827 -22.1716 -22.1708
   -22.1614 -22.1607 -13.3082 -13.2411  -7.5030  -7.4535  -5.1383  -4.8579
    -3.7592  -3.5265  -2.7043  -2.5121   1.9112   2.1857   3.0708   3.3614

          k = 0.4667 0.4119 0.0000 ( 30907 PWs)   bands (ev):

   -22.2247 -22.2247 -22.1992 -22.1989 -22.1836 -22.1831 -22.1715 -22.1710
   -22.1606 -22.1602 -13.2473 -13.2049  -7.3367  -7.3141  -5.3757  -5.1600
    -4.0520  -3.8691  -2.7062  -2.5885   2.1323   2.3047   3.5046   3.7284

          k = 0.4667 0.4805 0.0000 ( 30888 PWs)   bands (ev):

   -22.2258 -22.2258 -22.1983 -22.1982 -22.1836 -22.1834 -22.1713 -22.1711
   -22.1602 -22.1600 -13.2062 -13.1917  -7.2343  -7.2293  -5.4474  -5.3627
    -4.1915  -4.1201  -2.6680  -2.6282   2.2755   2.3343   3.7541   3.8699

     the Fermi energy is    -0.8316 ev

!    total energy              =    -413.80390856 Ry
     estimated scf accuracy    <          1.5E-13 Ry
     smearing contrib. (-TS)   =       0.00008654 Ry
     internal energy E=F+TS    =    -413.80399510 Ry

     The total energy is F=E-TS. E is the sum of the following terms:
     one-electron contribution =   -1182.40224186 Ry
     hartree contribution      =     603.35845959 Ry
     xc contribution           =    -154.40652928 Ry
     ewald contribution        =     319.64631645 Ry

     convergence has been achieved in   7 iterations

     negative rho (up, down):  2.866E-05 0.000E+00

     Forces acting on atoms (cartesian axes, Ry/au):

     atom    1 type  1   force =    -0.00000418    0.00000000    0.00002890
     atom    2 type  1   force =    -0.00000361    0.00000000   -0.00002985
     atom    3 type  2   force =     0.00000394    0.00000000   -0.00003526
     atom    4 type  2   force =     0.00000385    0.00000000    0.00003621

     Total force =     0.000066     Total SCF correction =     0.000003

     bfgs converged in  11 scf cycles and  10 bfgs steps
     (criteria: energy <  1.0E-06 Ry, force <  3.8E-05 Ry/Bohr)

     End of BFGS Geometry Optimization

     Final energy   =    -413.8039085616 Ry

     File ./wfc-out/pwscf.bfgs deleted, as requested
Begin final coordinates

ATOMIC_POSITIONS (crystal)
Sn            0.5847708750        0.7500000000        0.1445333718
Sn            0.0847686456        0.2500000000        0.0066117709
Se            0.0293345033        0.2500000000        0.1423095832
Se            0.5293339502        0.7500000000        0.0088353280
End final coordinates



     Writing output data file ./wfc-out/pwscf.save/
 
     init_run     :      2.01s CPU      2.48s WALL (       1 calls)
     electrons    :    417.85s CPU    461.63s WALL (      11 calls)
     update_pot   :      4.62s CPU      4.89s WALL (      10 calls)
     forces       :     10.03s CPU     11.19s WALL (      11 calls)

     Called by init_run:
     wfcinit      :      1.18s CPU      1.29s WALL (       1 calls)
     potinit      :      0.17s CPU      0.19s WALL (       1 calls)
     hinit0       :      0.30s CPU      0.35s WALL (       1 calls)

     Called by electrons:
     c_bands      :    330.03s CPU    352.02s WALL (      95 calls)
     sum_band     :     68.04s CPU     75.80s WALL (      95 calls)
     v_of_rho     :      3.62s CPU      3.88s WALL (      96 calls)
     newd         :     16.96s CPU     21.34s WALL (      96 calls)
     mix_rho      :      0.58s CPU      0.62s WALL (      95 calls)

     Called by c_bands:
     init_us_2    :      8.23s CPU      9.17s WALL (   12928 calls)
     cegterg      :    288.99s CPU    306.84s WALL (    6080 calls)

     Called by *egterg:
     cdiaghg      :     17.36s CPU     18.28s WALL (   22929 calls)
     h_psi        :    218.84s CPU    233.02s WALL (   24273 calls)
     s_psi        :     10.58s CPU     11.19s WALL (   24273 calls)
     g_psi        :      1.08s CPU      1.14s WALL (   18129 calls)

     Called by h_psi:
     h_psi:calbec :     15.71s CPU     16.80s WALL (   24273 calls)
     vloc_psi     :    187.32s CPU    199.60s WALL (   24273 calls)
     add_vuspsi   :     13.70s CPU     14.45s WALL (   24273 calls)

     General routines
     calbec       :     21.81s CPU     23.35s WALL (   33169 calls)
     fft          :      2.90s CPU      3.06s WALL (    1367 calls)
     ffts         :      0.10s CPU      0.11s WALL (     191 calls)
     fftw         :    200.35s CPU    213.37s WALL (  916328 calls)
     interpolate  :      0.24s CPU      0.25s WALL (      96 calls)
 
     Parallel routines
     fft_scatt_xy :     29.94s CPU     31.89s WALL (  917886 calls)
     fft_scatt_yz :    111.71s CPU    118.98s WALL (  917886 calls)
 
     PWSCF        :   7m18.34s CPU   9m14.97s WALL

 
   This run was terminated on:   6:33: 6   8May2023            

=------------------------------------------------------------------------------=
   JOB DONE.
=------------------------------------------------------------------------------=
