    6    6    1    1
  0.7242000E+02  0.6390000E-09  0.3400000E-09  0.2000000E-08  0.5000000E-15
  1.000000000000000E-004
  CAR 
 unknown system                          
     36     20     22
 
  0.0000000E+00  0.6250000E-01  0.0000000E+00  0.5000000E-01
    1      -13.393340   1.000000
    2      -12.513747   1.000000
    3      -11.703414   1.000000
    4      -11.445921   1.000000
    5       -6.169057   1.000000
    6       -5.484059   1.000000
    7       -5.253621   1.000000
    8       -4.463483   1.000000
    9       -3.399672   1.000000
   10       -2.898105   1.000000
   11       -2.808660   1.000000
   12       -2.603649   1.000000
   13       -2.234082   1.000000
   14       -1.866778   1.000000
   15       -1.632181   1.000000
   16       -1.108995   1.000009
   17       -0.886048   1.002977
   18       -0.213181  -0.032071
   19       -0.209047  -0.033086
   20        0.791332  -0.000000
   21        1.224685  -0.000000
   22        1.535841  -0.000000
 
  0.2000000E+00  0.6250000E-01  0.0000000E+00  0.5000000E-01
    1      -13.277165   1.000000
    2      -12.460029   1.000000
    3      -11.931982   1.000000
    4      -11.516709   1.000000
    5       -5.999441   1.000000
    6       -5.264249   1.000000
    7       -5.048664   1.000000
    8       -4.366390   1.000000
    9       -3.662549   1.000000
   10       -2.931808   1.000000
   11       -2.729153   1.000000
   12       -2.552492   1.000000
   13       -2.459674   1.000000
   14       -1.785889   1.000000
   15       -1.704424   1.000000
   16       -1.139217   1.000003
   17       -1.006129   1.000184
   18       -0.618104   1.017086
   19       -0.118523  -0.024810
   20        0.655204  -0.000000
   21        1.039892  -0.000000
   22        1.446029  -0.000000
 
  0.4000000E+00  0.6250000E-01  0.0000000E+00  0.5000000E-01
    1      -12.953362   1.000000
    2      -12.488715   1.000000
    3      -12.253049   1.000000
    4      -11.686624   1.000000
    5       -5.552392   1.000000
    6       -5.134124   1.000000
    7       -4.790538   1.000000
    8       -4.179638   1.000000
    9       -3.647208   1.000000
   10       -3.015652   1.000000
   11       -2.850599   1.000000
   12       -2.490550   1.000000
   13       -2.399785   1.000000
   14       -1.931126   1.000000
   15       -1.880378   1.000000
   16       -1.458443   1.000000
   17       -1.164671   1.000001
   18       -1.041441   1.000070
   19       -0.330132   0.127560
   20        0.568002  -0.000000
   21        0.918389  -0.000000
   22        1.264120  -0.000000
 
 -0.4000000E+00  0.6250000E-01  0.0000000E+00  0.5000000E-01
    1      -12.953362   1.000000
    2      -12.488715   1.000000
    3      -12.253049   1.000000
    4      -11.686624   1.000000
    5       -5.552392   1.000000
    6       -5.134124   1.000000
    7       -4.790538   1.000000
    8       -4.179638   1.000000
    9       -3.647208   1.000000
   10       -3.015652   1.000000
   11       -2.850599   1.000000
   12       -2.490550   1.000000
   13       -2.399785   1.000000
   14       -1.931126   1.000000
   15       -1.880378   1.000000
   16       -1.458443   1.000000
   17       -1.164671   1.000001
   18       -1.041441   1.000070
   19       -0.330132   0.127560
   20        0.568002  -0.000000
   21        0.918389  -0.000000
   22        1.264120  -0.000000
 
 -0.2000000E+00  0.6250000E-01  0.0000000E+00  0.5000000E-01
    1      -13.277165   1.000000
    2      -12.460029   1.000000
    3      -11.931982   1.000000
    4      -11.516709   1.000000
    5       -5.999441   1.000000
    6       -5.264249   1.000000
    7       -5.048664   1.000000
    8       -4.366390   1.000000
    9       -3.662549   1.000000
   10       -2.931809   1.000000
   11       -2.729153   1.000000
   12       -2.552492   1.000000
   13       -2.459674   1.000000
   14       -1.785889   1.000000
   15       -1.704424   1.000000
   16       -1.139217   1.000003
   17       -1.006129   1.000184
   18       -0.618105   1.017086
   19       -0.118522  -0.024809
   20        0.655203  -0.000000
   21        1.039892  -0.000000
   22        1.446030  -0.000000
 
  0.0000000E+00  0.1875000E+00  0.0000000E+00  0.5000000E-01
    1      -13.034407   1.000000
    2      -12.267363   1.000000
    3      -11.515635   1.000000
    4      -11.207710   1.000000
    5       -5.812969   1.000000
    6       -5.202437   1.000000
    7       -5.017522   1.000000
    8       -4.352094   1.000000
    9       -3.655512   1.000000
   10       -3.520013   1.000000
   11       -3.124784   1.000000
   12       -3.090354   1.000000
   13       -2.296834   1.000000
   14       -2.055192   1.000000
   15       -1.934569   1.000000
   16       -1.548826   1.000000
   17       -1.201007   1.000000
   18       -0.880631   1.003309
   19       -0.517141   0.829737
   20        0.598312  -0.000000
   21        1.272600  -0.000000
   22        1.397299  -0.000000
 
  0.2000000E+00  0.1875000E+00  0.0000000E+00  0.5000000E-01
    1      -12.925019   1.000000
    2      -12.215467   1.000000
    3      -11.707433   1.000000
    4      -11.289577   1.000000
    5       -5.616426   1.000000
    6       -5.051059   1.000000
    7       -4.871448   1.000000
    8       -4.254759   1.000000
    9       -3.797708   1.000000
   10       -3.518601   1.000000
   11       -3.345074   1.000000
   12       -2.869207   1.000000
   13       -2.512423   1.000000
   14       -2.206799   1.000000
   15       -1.814602   1.000000
   16       -1.561567   1.000000
   17       -1.295338   1.000000
   18       -1.068460   1.000032
   19       -0.293759   0.045055
   20        0.480624  -0.000000
   21        1.060439  -0.000000
   22        1.220086  -0.000000
 
  0.4000000E+00  0.1875000E+00  0.0000000E+00  0.5000000E-01
    1      -12.620324   1.000000
    2      -12.200877   1.000000
    3      -12.033272   1.000000
    4      -11.454494   1.000000
    5       -5.151500   1.000000
    6       -4.900010   1.000000
    7       -4.487751   1.000000
    8       -4.330476   1.000000
    9       -4.057470   1.000000
   10       -3.540666   1.000000
   11       -3.320904   1.000000
   12       -3.051196   1.000000
   13       -2.368145   1.000000
   14       -2.162402   1.000000
   15       -1.908120   1.000000
   16       -1.841434   1.000000
   17       -1.470786   1.000000
   18       -1.106201   1.000010
   19       -0.169454  -0.034513
   20        0.121623  -0.000330
   21        1.011635  -0.000000
   22        1.048828  -0.000000
 
 -0.4000000E+00  0.1875000E+00  0.0000000E+00  0.5000000E-01
    1      -12.620324   1.000000
    2      -12.200877   1.000000
    3      -12.033272   1.000000
    4      -11.454494   1.000000
    5       -5.151500   1.000000
    6       -4.900011   1.000000
    7       -4.487751   1.000000
    8       -4.330476   1.000000
    9       -4.057470   1.000000
   10       -3.540666   1.000000
   11       -3.320904   1.000000
   12       -3.051197   1.000000
   13       -2.368144   1.000000
   14       -2.162402   1.000000
   15       -1.908120   1.000000
   16       -1.841434   1.000000
   17       -1.470787   1.000000
   18       -1.106201   1.000010
   19       -0.169454  -0.034513
   20        0.121624  -0.000330
   21        1.011635  -0.000000
   22        1.048827  -0.000000
 
 -0.2000000E+00  0.1875000E+00  0.0000000E+00  0.5000000E-01
    1      -12.925019   1.000000
    2      -12.215467   1.000000
    3      -11.707433   1.000000
    4      -11.289577   1.000000
    5       -5.616426   1.000000
    6       -5.051059   1.000000
    7       -4.871448   1.000000
    8       -4.254759   1.000000
    9       -3.797708   1.000000
   10       -3.518602   1.000000
   11       -3.345075   1.000000
   12       -2.869207   1.000000
   13       -2.512422   1.000000
   14       -2.206799   1.000000
   15       -1.814601   1.000000
   16       -1.561567   1.000000
   17       -1.295339   1.000000
   18       -1.068460   1.000032
   19       -0.293758   0.045055
   20        0.480625  -0.000000
   21        1.060438  -0.000000
   22        1.220086  -0.000000
 
  0.0000000E+00  0.3125000E+00  0.0000000E+00  0.5000000E-01
    1      -12.370820   1.000000
    2      -11.839109   1.000000
    3      -11.240551   1.000000
    4      -10.886398   1.000000
    5       -5.338234   1.000000
    6       -5.265339   1.000000
    7       -4.965960   1.000000
    8       -4.360049   1.000000
    9       -4.251259   1.000000
   10       -3.764473   1.000000
   11       -3.597126   1.000000
   12       -3.542934   1.000000
   13       -3.202531   1.000000
   14       -2.425304   1.000000
   15       -2.307292   1.000000
   16       -2.159927   1.000000
   17       -1.621068   1.000000
   18       -1.080517   1.000022
   19       -0.086233  -0.017523
   20        0.449230  -0.000000
   21        0.813736  -0.000000
   22        1.383743  -0.000000
 
  0.2000000E+00  0.3125000E+00  0.0000000E+00  0.5000000E-01
    1      -12.280036   1.000000
    2      -11.794539   1.000000
    3      -11.370306   1.000000
    4      -10.954964   1.000000
    5       -5.485950   1.000000
    6       -5.113732   1.000000
    7       -4.780371   1.000000
    8       -4.544901   1.000000
    9       -4.190020   1.000000
   10       -3.752554   1.000000
   11       -3.690211   1.000000
   12       -3.528348   1.000000
   13       -3.110399   1.000000
   14       -2.390728   1.000000
   15       -2.149332   1.000000
   16       -2.023114   1.000000
   17       -1.674256   1.000000
   18       -1.328386   1.000000
   19        0.002091  -0.004519
   20        0.537059  -0.000000
   21        0.807505  -0.000000
   22        1.234054  -0.000000
 
  0.4000000E+00  0.3125000E+00  0.0000000E+00  0.5000000E-01
    1      -12.029143   1.000000
    2      -11.718298   1.000000
    3      -11.666003   1.000000
    4      -11.086270   1.000000
    5       -5.417938   1.000000
    6       -5.046341   1.000000
    7       -4.883336   1.000000
    8       -4.441105   1.000000
    9       -4.341258   1.000000
   10       -3.985498   1.000000
   11       -3.609439   1.000000
   12       -3.308750   1.000000
   13       -2.752294   1.000000
   14       -2.346605   1.000000
   15       -2.220061   1.000000
   16       -1.895561   1.000000
   17       -1.670418   1.000000
   18       -1.445353   1.000000
   19        0.032538  -0.002515
   20        0.471853  -0.000000
   21        0.860182  -0.000000
   22        1.218976  -0.000000
 
 -0.4000000E+00  0.3125000E+00  0.0000000E+00  0.5000000E-01
    1      -12.029143   1.000000
    2      -11.718298   1.000000
    3      -11.666004   1.000000
    4      -11.086270   1.000000
    5       -5.417938   1.000000
    6       -5.046341   1.000000
    7       -4.883336   1.000000
    8       -4.441105   1.000000
    9       -4.341259   1.000000
   10       -3.985498   1.000000
   11       -3.609439   1.000000
   12       -3.308750   1.000000
   13       -2.752294   1.000000
   14       -2.346605   1.000000
   15       -2.220061   1.000000
   16       -1.895561   1.000000
   17       -1.670418   1.000000
   18       -1.445353   1.000000
   19        0.032538  -0.002515
   20        0.471853  -0.000000
   21        0.860183  -0.000000
   22        1.218975  -0.000000
 
 -0.2000000E+00  0.3125000E+00  0.0000000E+00  0.5000000E-01
    1      -12.280036   1.000000
    2      -11.794539   1.000000
    3      -11.370306   1.000000
    4      -10.954964   1.000000
    5       -5.485950   1.000000
    6       -5.113732   1.000000
    7       -4.780372   1.000000
    8       -4.544901   1.000000
    9       -4.190020   1.000000
   10       -3.752554   1.000000
   11       -3.690212   1.000000
   12       -3.528348   1.000000
   13       -3.110399   1.000000
   14       -2.390727   1.000000
   15       -2.149332   1.000000
   16       -2.023115   1.000000
   17       -1.674255   1.000000
   18       -1.328387   1.000000
   19        0.002091  -0.004520
   20        0.537060  -0.000000
   21        0.807505  -0.000000
   22        1.234051  -0.000000
 
  0.0000000E+00  0.4375000E+00  0.0000000E+00  0.5000000E-01
    1      -11.578014   1.000000
    2      -11.406237   1.000000
    3      -11.084413   1.000000
    4      -10.872016   1.000000
    5       -5.647106   1.000000
    6       -5.487275   1.000000
    7       -5.289551   1.000000
    8       -4.979649   1.000000
    9       -4.235254   1.000000
   10       -4.229300   1.000000
   11       -3.559259   1.000000
   12       -3.418678   1.000000
   13       -2.982389   1.000000
   14       -2.841881   1.000000
   15       -2.355043   1.000000
   16       -2.195041   1.000000
   17       -1.949463   1.000000
   18       -1.658674   1.000000
   19        0.515023  -0.000000
   20        0.615711  -0.000000
   21        0.985238  -0.000000
   22        1.039878  -0.000000
 
  0.2000000E+00  0.4375000E+00  0.0000000E+00  0.5000000E-01
    1      -11.546908   1.000000
    2      -11.380835   1.000000
    3      -11.130252   1.000000
    4      -10.863174   1.000000
    5       -6.014484   1.000000
    6       -5.589591   1.000000
    7       -5.369702   1.000000
    8       -5.013570   1.000000
    9       -4.143639   1.000000
   10       -3.887976   1.000000
   11       -3.601983   1.000000
   12       -3.317048   1.000000
   13       -2.849211   1.000000
   14       -2.749203   1.000000
   15       -2.245919   1.000000
   16       -2.081866   1.000000
   17       -2.024852   1.000000
   18       -1.618306   1.000000
   19        0.495455  -0.000000
   20        0.710899  -0.000000
   21        1.052524  -0.000000
   22        1.155705  -0.000000
 
  0.4000000E+00  0.4375000E+00  0.0000000E+00  0.5000000E-01
    1      -11.467587   1.000000
    2      -11.375975   1.000000
    3      -11.175141   1.000000
    4      -10.871508   1.000000
    5       -6.265832   1.000000
    6       -5.988844   1.000000
    7       -5.393909   1.000000
    8       -5.093074   1.000000
    9       -3.928827   1.000000
   10       -3.854067   1.000000
   11       -3.329021   1.000000
   12       -3.158369   1.000000
   13       -2.705606   1.000000
   14       -2.563128   1.000000
   15       -2.297218   1.000000
   16       -2.265682   1.000000
   17       -1.572684   1.000000
   18       -1.438012   1.000000
   19        0.479943  -0.000000
   20        0.697709  -0.000000
   21        1.094895  -0.000000
   22        1.391199  -0.000000
 
 -0.4000000E+00  0.4375000E+00  0.0000000E+00  0.5000000E-01
    1      -11.467587   1.000000
    2      -11.375975   1.000000
    3      -11.175141   1.000000
    4      -10.871508   1.000000
    5       -6.265832   1.000000
    6       -5.988844   1.000000
    7       -5.393909   1.000000
    8       -5.093074   1.000000
    9       -3.928826   1.000000
   10       -3.854067   1.000000
   11       -3.329022   1.000000
   12       -3.158369   1.000000
   13       -2.705606   1.000000
   14       -2.563127   1.000000
   15       -2.297217   1.000000
   16       -2.265683   1.000000
   17       -1.572685   1.000000
   18       -1.438012   1.000000
   19        0.479943  -0.000000
   20        0.697710  -0.000000
   21        1.094896  -0.000000
   22        1.391782  -0.000000
 
 -0.2000000E+00  0.4375000E+00  0.0000000E+00  0.5000000E-01
    1      -11.546908   1.000000
    2      -11.380835   1.000000
    3      -11.130252   1.000000
    4      -10.863174   1.000000
    5       -6.014483   1.000000
    6       -5.589591   1.000000
    7       -5.369703   1.000000
    8       -5.013570   1.000000
    9       -4.143638   1.000000
   10       -3.887976   1.000000
   11       -3.601983   1.000000
   12       -3.317048   1.000000
   13       -2.849211   1.000000
   14       -2.749203   1.000000
   15       -2.245919   1.000000
   16       -2.081866   1.000000
   17       -2.024852   1.000000
   18       -1.618306   1.000000
   19        0.495454  -0.000000
   20        0.710900  -0.000000
   21        1.052525  -0.000000
   22        1.155704  -0.000000
