 vasp.5.4.4.18Apr17-6-g9f103f2a35 (build Sep 16 2021 13:51:27) complex          
  
 executed on             LinuxIFC date 2023.07.17  16:57:39
 running on    8 total cores
 distrk:  each k-point on    8 cores,    1 groups
 distr:  one band on NCORES_PER_BAND=   4 cores,    2 groups


--------------------------------------------------------------------------------------------------------


 INCAR:
 POTCAR:   PAW_PBE Mo 08Apr2002                   
 POTCAR:   PAW_PBE Te 08Apr2002                   
 POTCAR:   PAW_PBE Mo 08Apr2002                   
   VRHFIN =Mo: 4p5s4d                                                           
   LEXCH  = PE                                                                  
   EATOM  =   217.5180 eV,   15.9871 Ry                                         
                                                                                
   TITEL  = PAW_PBE Mo 08Apr2002                                                
   LULTRA =        F    use ultrasoft PP ?                                      
   IUNSCR =        1    unscreen: 0-lin 1-nonlin 2-no                           
   RPACOR =    2.200    partial core radius                                     
   POMASS =   95.940; ZVAL   =    6.000    mass and valenz                      
   RCORE  =    2.750    outmost cutoff radius                                   
   RWIGS  =    2.750; RWIGS  =    1.455    wigner-seitz radius (au A)           
   ENMAX  =  224.584; ENMIN  =  168.438 eV                                      
   RCLOC  =    2.111    cutoff for local pot                                    
   LCOR   =        T    correct aug charges                                     
   LPAW   =        T    paw PP                                                  
   EAUG   =  345.278                                                            
   DEXC   =    -.088                                                            
   RMAX   =    3.077    core radius for proj-oper                               
   RAUG   =    1.300    factor for augmentation sphere                          
   RDEP   =    2.815    radius for radial grids                                 
   QCUT   =   -4.063; QGAM   =    8.126    optimization parameters              
                                                                                
   Description                                                                  
     l     E      TYP  RCUT    TYP  RCUT                                        
     2   .000     23  2.500                                                     
     2   .000     23  2.500                                                     
     0   .000     23  2.600                                                     
     0  1.000     23  2.600                                                     
     1   .400     23  2.750                                                     
     1  2.000     23  2.750                                                     
     3   .000      7   .000                                                     
  local pseudopotential read in
  partial core-charges read in
  atomic valenz-charges read in
  non local Contribution for L=           2  read in
    real space projection operators read in
  non local Contribution for L=           2  read in
    real space projection operators read in
  non local Contribution for L=           0  read in
    real space projection operators read in
  non local Contribution for L=           0  read in
    real space projection operators read in
  non local Contribution for L=           1  read in
    real space projection operators read in
  non local Contribution for L=           1  read in
    real space projection operators read in
    PAW grid and wavefunctions read in
 
   number of l-projection  operators is LMAX  =           6
   number of lm-projection operators is LMMAX =          18
 
 POTCAR:   PAW_PBE Te 08Apr2002                   
   VRHFIN =Te: s2p4                                                             
   LEXCH  = PE                                                                  
   EATOM  =   223.2721 eV,   16.4100 Ry                                         
                                                                                
   TITEL  = PAW_PBE Te 08Apr2002                                                
   LULTRA =        F    use ultrasoft PP ?                                      
   IUNSCR =        1    unscreen: 0-lin 1-nonlin 2-no                           
   RPACOR =    2.200    partial core radius                                     
   POMASS =  127.600; ZVAL   =    6.000    mass and valenz                      
   RCORE  =    2.300    outmost cutoff radius                                   
   RWIGS  =    2.900; RWIGS  =    1.535    wigner-seitz radius (au A)           
   ENMAX  =  174.982; ENMIN  =  131.236 eV                                      
   ICORE  =        3    local potential                                         
   LCOR   =        T    correct aug charges                                     
   LPAW   =        T    paw PP                                                  
   EAUG   =  368.792                                                            
   DEXC   =    -.169                                                            
   RMAX   =    3.486    core radius for proj-oper                               
   RAUG   =    1.300    factor for augmentation sphere                          
   RDEP   =    2.397    radius for radial grids                                 
   QCUT   =   -3.586; QGAM   =    7.172    optimization parameters              
                                                                                
   Description                                                                  
     l     E      TYP  RCUT    TYP  RCUT                                        
     0   .000     23  2.300                                                     
     0   .000     23  2.300                                                     
     1   .000     23  2.300                                                     
     1   .000     23  2.300                                                     
     2   .000     23  2.300                                                     
     3  -.100     23  2.300                                                     
  local pseudopotential read in
  partial core-charges read in
  atomic valenz-charges read in
  non local Contribution for L=           0  read in
    real space projection operators read in
  non local Contribution for L=           0  read in
    real space projection operators read in
  non local Contribution for L=           1  read in
    real space projection operators read in
  non local Contribution for L=           1  read in
    real space projection operators read in
  non local Contribution for L=           2  read in
    real space projection operators read in
    PAW grid and wavefunctions read in
 
   number of l-projection  operators is LMAX  =           5
   number of lm-projection operators is LMMAX =          13
 
 PAW_PBE Mo 08Apr2002                   :
 energy of atom  1       EATOM= -217.5180
 kinetic energy error for atom=    0.0303 (will be added to EATOM!!)
 PAW_PBE Te 08Apr2002                   :
 energy of atom  2       EATOM= -223.2721
 kinetic energy error for atom=    0.0041 (will be added to EATOM!!)
 
 
 POSCAR: Mo Te                                   
  positions in cartesian coordinates
  No initial velocities read in
 exchange correlation table for  LEXCH =        8
   RHO(1)=    0.500       N(1)  =     2000
   RHO(2)=  100.500       N(2)  =     4000
 


--------------------------------------------------------------------------------------------------------


 ion  position               nearest neighbor table
   1  0.000  0.000  0.507-   4 2.70   4 2.70   6 2.72   5 2.82   5 2.82   3 2.84   2 2.89   2 2.89

   2  0.364  0.500  0.516-   6 2.70   6 2.70   4 2.72   3 2.82   3 2.82   5 2.84   1 2.89   1 2.89

   3  0.614  0.000  0.437-   2 2.82   2 2.82   1 2.84   5 3.54   5 3.54   4 3.62   4 3.62
   4  0.106  0.500  0.408-   1 2.70   1 2.70   2 2.72   3 3.62   3 3.62
   5  0.750  0.500  0.586-   1 2.82   1 2.82   2 2.84   3 3.54   3 3.54   6 3.62   6 3.62
   6  0.259  0.000  0.615-   2 2.70   2 2.70   1 2.72   5 3.62   5 3.62
 

IMPORTANT INFORMATION: All symmetrisations will be switched off!
NOSYMM: (Re-)initialisation of all symmetry stuff for point group C_1.

 
 
 KPOINTS: KPOINTS created by Atomic Simulation Env

Automatic generation of k-mesh.
Space group operators:
 irot       det(A)        alpha          n_x          n_y          n_z        tau_x        tau_y        tau_z
    1     1.000000     0.000001     1.000000     0.000000     0.000000     0.000000     0.000000     0.000000
 
 Subroutine IBZKPT returns following result:
 ===========================================
 
 Found     20 irreducible k-points:
 
 Following reciprocal coordinates:
            Coordinates               Weight
  0.000000  0.062500  0.000000      2.000000
  0.200000  0.062500  0.000000      2.000000
  0.400000  0.062500  0.000000      2.000000
 -0.400000  0.062500  0.000000      2.000000
 -0.200000  0.062500  0.000000      2.000000
  0.000000  0.187500  0.000000      2.000000
  0.200000  0.187500  0.000000      2.000000
  0.400000  0.187500  0.000000      2.000000
 -0.400000  0.187500  0.000000      2.000000
 -0.200000  0.187500  0.000000      2.000000
  0.000000  0.312500  0.000000      2.000000
  0.200000  0.312500  0.000000      2.000000
  0.400000  0.312500  0.000000      2.000000
 -0.400000  0.312500  0.000000      2.000000
 -0.200000  0.312500  0.000000      2.000000
  0.000000  0.437500  0.000000      2.000000
  0.200000  0.437500  0.000000      2.000000
  0.400000  0.437500  0.000000      2.000000
 -0.400000  0.437500  0.000000      2.000000
 -0.200000  0.437500  0.000000      2.000000
 
 Following cartesian coordinates:
            Coordinates               Weight
  0.000000  0.018382  0.000000      2.000000
  0.031299  0.018382  0.000000      2.000000
  0.062598  0.018382  0.000000      2.000000
 -0.062598  0.018382  0.000000      2.000000
 -0.031299  0.018382  0.000000      2.000000
  0.000000  0.055147  0.000000      2.000000
  0.031299  0.055147  0.000000      2.000000
  0.062598  0.055147  0.000000      2.000000
 -0.062598  0.055147  0.000000      2.000000
 -0.031299  0.055147  0.000000      2.000000
  0.000000  0.091912  0.000000      2.000000
  0.031299  0.091912  0.000000      2.000000
  0.062598  0.091912  0.000000      2.000000
 -0.062598  0.091912  0.000000      2.000000
 -0.031299  0.091912  0.000000      2.000000
  0.000000  0.128676  0.000000      2.000000
  0.031299  0.128676  0.000000      2.000000
  0.062598  0.128676  0.000000      2.000000
 -0.062598  0.128676  0.000000      2.000000
 -0.031299  0.128676  0.000000      2.000000
 


--------------------------------------------------------------------------------------------------------




 Dimension of arrays:
   k-points           NKPTS =     20   k-points in BZ     NKDIM =     20   number of bands    NBANDS=     22
   number of dos      NEDOS =    301   number of ions     NIONS =      6
   non local maximal  LDIM  =      6   non local SUM 2l+1 LMDIM =     18
   total plane-waves  NPLWV =  56448
   max r-space proj   IRMAX =      1   max aug-charges    IRDMAX=   8539
   dimension x,y,z NGX =    32 NGY =   18 NGZ =   98
   dimension x,y,z NGXF=    64 NGYF=   36 NGZF=  196
   support grid    NGXF=    64 NGYF=   36 NGZF=  196
   ions per type =               2   4
   NGX,Y,Z   is equivalent  to a cutoff of   8.33,  8.80,  8.15 a.u.
   NGXF,Y,Z  is equivalent  to a cutoff of  16.65, 17.60, 16.29 a.u.

 SYSTEM =  unknown system                          
 POSCAR =  Mo Te                                   

 Startparameter for this run:
   NWRITE =      2    write-flag & timer
   PREC   = accura    normal or accurate (medium, high low for compatibility)
   ISTART =      0    job   : 0-new  1-cont  2-samecut
   ICHARG =      2    charge: 1-file 2-atom 10-const
   ISPIN  =      1    spin polarized calculation?
   LNONCOLLINEAR =      F non collinear calculations
   LSORBIT =      F    spin-orbit coupling
   INIWAV =      1    electr: 0-lowe 1-rand  2-diag
   LASPH  =      F    aspherical Exc in radial PAW
   METAGGA=      F    non-selfconsistent MetaGGA calc.

 Electronic Relaxation 1
   ENCUT  =  224.6 eV  16.51 Ry    4.06 a.u.   7.81  4.15 24.44*2*pi/ulx,y,z
   ENINI  =  224.6     initial cutoff
   ENAUG  =  368.8 eV  augmentation charge cutoff
   NELM   =     60;   NELMIN=  2; NELMDL= -5     # of ELM steps 
   EDIFF  = 0.1E-03   stopping-criterion for ELM
   LREAL  =      F    real-space projection
   NLSPLINE    = F    spline interpolate recip. space projectors
   LCOMPAT=      F    compatible to vasp.4.4
   GGA_COMPAT  = T    GGA compatible to vasp.4.4-vasp.4.6
   LMAXPAW     = -100 max onsite density
   LMAXMIX     =    2 max onsite mixed and CHGCAR
   VOSKOWN=      0    Vosko Wilk Nusair interpolation
   ROPT   =    0.00000   0.00000
 Ionic relaxation
   EDIFFG = 0.1E-02   stopping-criterion for IOM
   NSW    =      0    number of steps for IOM
   NBLOCK =      1;   KBLOCK =      1    inner block; outer block 
   IBRION =     -1    ionic relax: 0-MD 1-quasi-New 2-CG
   NFREE  =      0    steps in history (QN), initial steepest desc. (CG)
   ISIF   =      2    stress and relaxation
   IWAVPR =     10    prediction:  0-non 1-charg 2-wave 3-comb
   ISYM   =      0    0-nonsym 1-usesym 2-fastsym
   LCORR  =      T    Harris-Foulkes like correction to forces

   POTIM  = 0.5000    time-step for ionic-motion
   TEIN   =    0.0    initial temperature
   TEBEG  =    0.0;   TEEND  =   0.0 temperature during run
   SMASS  =  -3.00    Nose mass-parameter (am)
   estimated Nose-frequenzy (Omega)   =  0.10E-29 period in steps =****** mass=  -0.933E-27a.u.
   SCALEE = 1.0000    scale energy and forces
   NPACO  =    256;   APACO  = 16.0  distance and # of slots for P.C.
   PSTRESS=    0.0 pullay stress

  Mass of Ions in am
   POMASS =  95.94127.60
  Ionic Valenz
   ZVAL   =   6.00  6.00
  Atomic Wigner-Seitz radii
   RWIGS  =  -1.00 -1.00
  virtual crystal weights 
   VCA    =   1.00  1.00
   NELECT =      36.0000    total number of electrons
   NUPDOWN=      -1.0000    fix difference up-down

 DOS related values:
   EMIN   =  10.00;   EMAX   =-10.00  energy-range for DOS
   EFERMI =   0.00
   ISMEAR =     1;   SIGMA  =   0.20  broadening in eV -4-tet -1-fermi 0-gaus

 Electronic relaxation 2 (details)
   IALGO  =     38    algorithm
   LDIAG  =      T    sub-space diagonalisation (order eigenvalues)
   LSUBROT=      F    optimize rotation matrix (better conditioning)
   TURBO    =      0    0=normal 1=particle mesh
   IRESTART =      0    0=no restart 2=restart with 2 vectors
   NREBOOT  =      0    no. of reboots
   NMIN     =      0    reboot dimension
   EREF     =   0.00    reference energy to select bands
   IMIX   =      4    mixing-type and parameters
     AMIX     =   0.40;   BMIX     =  1.00
     AMIX_MAG =   1.60;   BMIX_MAG =  1.00
     AMIN     =   0.10
     WC   =   100.;   INIMIX=   1;  MIXPRE=   1;  MAXMIX= -45

 Intra band minimization:
   WEIMIN = 0.0000     energy-eigenvalue tresh-hold
   EBREAK =  0.11E-05  absolut break condition
   DEPER  =   0.30     relativ break condition  

   TIME   =   0.40     timestep for ELM

  volume/ion in A,a.u.               =      72.42       488.71
  Fermi-wavevector in a.u.,A,eV,Ry     =   0.713684  1.348667  6.930050  0.509344
  Thomas-Fermi vector in A             =   1.801386
 
 Write flags
   LWAVE        =      T    write WAVECAR
   LDOWNSAMPLE  =      F    k-point downsampling of WAVECAR
   LCHARG       =      T    write CHGCAR
   LVTOT        =      F    write LOCPOT, total local potential
   LVHAR        =      F    write LOCPOT, Hartree potential only
   LELF         =      F    write electronic localiz. function (ELF)
   LORBIT       =      0    0 simple, 1 ext, 2 COOP (PROOUT), +10 PAW based schemes


 Dipole corrections
   LMONO  =      F    monopole corrections only (constant potential shift)
   LDIPOL =      F    correct potential (dipole corrections)
   IDIPOL =      0    1-x, 2-y, 3-z, 4-all directions 
   EPSILON=  1.0000000 bulk dielectric constant

 Exchange correlation treatment:
   GGA     =    PE    GGA type
   LEXCH   =     8    internal setting for exchange type
   VOSKOWN=      0    Vosko Wilk Nusair interpolation
   LHFCALC =     F    Hartree Fock is set to
   LHFONE  =     F    Hartree Fock one center treatment
   AEXX    =    0.0000 exact exchange contribution

 Linear response parameters
   LEPSILON=     F    determine dielectric tensor
   LRPA    =     F    only Hartree local field effects (RPA)
   LNABLA  =     F    use nabla operator in PAW spheres
   LVEL    =     F    velocity operator in full k-point grid
   LINTERFAST=   F  fast interpolation
   KINTER  =     0    interpolate to denser k-point grid
   CSHIFT  =0.1000    complex shift for real part using Kramers Kronig
   OMEGAMAX=  -1.0    maximum frequency
   DEG_THRESHOLD= 0.2000000E-02 threshold for treating states as degnerate
   RTIME   =   -0.100 relaxation time in fs
  (WPLASMAI=    0.000 imaginary part of plasma frequency in eV, 0.658/RTIME)
   DFIELD  = 0.0000000 0.0000000 0.0000000 field for delta impulse in time
 
 Orbital magnetization related:
   ORBITALMAG=     F  switch on orbital magnetization
   LCHIMAG   =     F  perturbation theory with respect to B field
   DQ        =  0.001000  dq finite difference perturbation B field
   LLRAUG    =     F  two centre corrections for induced B field



--------------------------------------------------------------------------------------------------------


 Static calculation
 charge density and potential will be updated during run
 non-spin polarized calculation
 Variant of blocked Davidson
 Davidson routine will perform the subspace rotation
 perform sub-space diagonalisation
    after iterative eigenvector-optimisation
 modified Broyden-mixing scheme, WC =      100.0
 initial mixing is a Kerker type mixing with AMIX =  0.4000 and BMIX =      1.0000
 Hartree-type preconditioning will be used
 using additional bands            4
 reciprocal scheme for non local part
 use partial core corrections
 calculate Harris-corrections to forces 
   (improved forces if not selfconsistent)
 use gradient corrections 
 use of overlap-Matrix (Vanderbilt PP)
 Methfessel and Paxton  Order N= 1 SIGMA  =   0.20


--------------------------------------------------------------------------------------------------------


  energy-cutoff  :      224.58
  volume of cell :      434.52
      direct lattice vectors                 reciprocal lattice vectors
     6.390000000  0.000000000  0.000000000     0.156494523  0.000000000  0.000000000
     0.000000000  3.400000000  0.000000000     0.000000000  0.294117647  0.000000000
     0.000000000  0.000000000 20.000000000     0.000000000  0.000000000  0.050000000

  length of vectors
     6.390000000  3.400000000 20.000000000     0.156494523  0.294117647  0.050000000


 
 k-points in units of 2pi/SCALE and weight: KPOINTS created by Atomic Simulation Env
   0.00000000  0.01838235  0.00000000       0.050
   0.03129890  0.01838235  0.00000000       0.050
   0.06259781  0.01838235  0.00000000       0.050
  -0.06259781  0.01838235  0.00000000       0.050
  -0.03129890  0.01838235  0.00000000       0.050
   0.00000000  0.05514706  0.00000000       0.050
   0.03129890  0.05514706  0.00000000       0.050
   0.06259781  0.05514706  0.00000000       0.050
  -0.06259781  0.05514706  0.00000000       0.050
  -0.03129890  0.05514706  0.00000000       0.050
   0.00000000  0.09191176  0.00000000       0.050
   0.03129890  0.09191176  0.00000000       0.050
   0.06259781  0.09191176  0.00000000       0.050
  -0.06259781  0.09191176  0.00000000       0.050
  -0.03129890  0.09191176  0.00000000       0.050
   0.00000000  0.12867647  0.00000000       0.050
   0.03129890  0.12867647  0.00000000       0.050
   0.06259781  0.12867647  0.00000000       0.050
  -0.06259781  0.12867647  0.00000000       0.050
  -0.03129890  0.12867647  0.00000000       0.050
 
 k-points in reciprocal lattice and weights: KPOINTS created by Atomic Simulation Env
   0.00000000  0.06250000  0.00000000       0.050
   0.20000000  0.06250000  0.00000000       0.050
   0.40000000  0.06250000  0.00000000       0.050
  -0.40000000  0.06250000  0.00000000       0.050
  -0.20000000  0.06250000  0.00000000       0.050
   0.00000000  0.18750000  0.00000000       0.050
   0.20000000  0.18750000  0.00000000       0.050
   0.40000000  0.18750000  0.00000000       0.050
  -0.40000000  0.18750000  0.00000000       0.050
  -0.20000000  0.18750000  0.00000000       0.050
   0.00000000  0.31250000  0.00000000       0.050
   0.20000000  0.31250000  0.00000000       0.050
   0.40000000  0.31250000  0.00000000       0.050
  -0.40000000  0.31250000  0.00000000       0.050
  -0.20000000  0.31250000  0.00000000       0.050
   0.00000000  0.43750000  0.00000000       0.050
   0.20000000  0.43750000  0.00000000       0.050
   0.40000000  0.43750000  0.00000000       0.050
  -0.40000000  0.43750000  0.00000000       0.050
  -0.20000000  0.43750000  0.00000000       0.050
 
 position of ions in fractional coordinates (direct lattice) 
   0.00000000  0.00000000  0.50713851
   0.36448024  0.50000000  0.51593188
   0.61409115  0.00000000  0.43702597
   0.10552933  0.50000000  0.40810103
   0.75038906  0.50000000  0.58604440
   0.25895091  0.00000000  0.61496934
 
 position of ions in cartesian coordinates  (Angst):
   0.00000000  0.00000000 10.14277025
   2.32902874  1.70000000 10.31863765
   3.92404248  0.00000000  8.74051935
   0.67433241  1.70000000  8.16202059
   4.79498612  1.70000000 11.72088795
   1.65469634  0.00000000 12.29938671
 


--------------------------------------------------------------------------------------------------------


 k-point  1 :   0.0000 0.0625 0.0000  plane waves:    3299
 k-point  2 :   0.2000 0.0625 0.0000  plane waves:    3311
 k-point  3 :   0.4000 0.0625 0.0000  plane waves:    3313
 k-point  4 :  -0.4000 0.0625 0.0000  plane waves:    3313
 k-point  5 :  -0.2000 0.0625 0.0000  plane waves:    3311
 k-point  6 :   0.0000 0.1875 0.0000  plane waves:    3286
 k-point  7 :   0.2000 0.1875 0.0000  plane waves:    3300
 k-point  8 :   0.4000 0.1875 0.0000  plane waves:    3327
 k-point  9 :  -0.4000 0.1875 0.0000  plane waves:    3327
 k-point 10 :  -0.2000 0.1875 0.0000  plane waves:    3300
 k-point 11 :   0.0000 0.3125 0.0000  plane waves:    3336
 k-point 12 :   0.2000 0.3125 0.0000  plane waves:    3330
 k-point 13 :   0.4000 0.3125 0.0000  plane waves:    3327
 k-point 14 :  -0.4000 0.3125 0.0000  plane waves:    3327
 k-point 15 :  -0.2000 0.3125 0.0000  plane waves:    3330
 k-point 16 :   0.0000 0.4375 0.0000  plane waves:    3354
 k-point 17 :   0.2000 0.4375 0.0000  plane waves:    3340
 k-point 18 :   0.4000 0.4375 0.0000  plane waves:    3328
 k-point 19 :  -0.4000 0.4375 0.0000  plane waves:    3328
 k-point 20 :  -0.2000 0.4375 0.0000  plane waves:    3340

 maximum and minimum number of plane-waves per node :       849      807

 maximum number of plane-waves:      3354
 maximum index in each direction: 
   IXMAX=    8   IYMAX=    4   IZMAX=   24
   IXMIN=   -8   IYMIN=   -4   IZMIN=  -24


 parallel 3D FFT for wavefunctions:
    minimum data exchange during FFTs selected (reduces bandwidth)
 parallel 3D FFT for charge:
    minimum data exchange during FFTs selected (reduces bandwidth)


 total amount of memory used by VASP MPI-rank0    44065. kBytes
=======================================================================

   base      :      30000. kBytes
   nonl-proj :       4895. kBytes
   fftplans  :       2331. kBytes
   grid      :       3753. kBytes
   one-center:         31. kBytes
   wavefun   :       3055. kBytes
 
     INWAV:  cpu time    0.0000: real time    0.0000
 Broyden mixing: mesh for mixing (old mesh)
   NGX = 15   NGY =  9   NGZ = 49
  (NGX  = 64   NGY  = 36   NGZ  =196)
  gives a total of   6615 points

 initial charge density was supplied:
 charge density of overlapping atoms calculated
 number of electron      36.0000000 magnetization 
 keeping initial charge density in first step


--------------------------------------------------------------------------------------------------------


 Maximum index for augmentation-charges         1058 (set IRDMAX)


--------------------------------------------------------------------------------------------------------


 First call to EWALD:  gamma=   0.234
 Maximum number of real-space cells 3x 6x 1
 Maximum number of reciprocal cells 2x 2x 6

    FEWALD:  cpu time    0.0016: real time    0.0016


--------------------------------------- Iteration      1(   1)  ---------------------------------------


    POTLOK:  cpu time    0.0423: real time    1.0195
    SETDIJ:  cpu time    0.0111: real time    0.0214
     EDDAV:  cpu time    0.3576: real time    0.3760
       DOS:  cpu time    0.0009: real time    0.0010
    --------------------------------------------
      LOOP:  cpu time    0.4118: real time    1.4180

 eigenvalue-minimisations  :   888
 total energy-change (2. order) : 0.1805741E+03  (-0.7800360E+03)
 number of electron      36.0000000 magnetization 
 augmentation part       36.0000000 magnetization 

 Free energy of the ion-electron system (eV)
  ---------------------------------------------------
  alpha Z        PSCENC =        20.39049130
  Ewald energy   TEWEN  =      3381.85121625
  -Hartree energ DENC   =     -4618.87876028
  -exchange      EXHF   =         0.00000000
  -V(xc)+E(xc)   XCENC  =      -233.65976180
  PAW double counting   =       830.67159578     -534.39912339
  entropy T*S    EENTRO =         0.00236753
  eigenvalues    EBANDS =         6.54862860
  atomic energy  EATOM  =      1328.04743990
  Solvation  Ediel_sol  =         0.00000000
  ---------------------------------------------------
  free energy    TOTEN  =       180.57409388 eV

  energy without entropy =      180.57172635  energy(sigma->0) =      180.57330471


--------------------------------------------------------------------------------------------------------




--------------------------------------- Iteration      1(   2)  ---------------------------------------


     EDDAV:  cpu time    0.3293: real time    0.3303
       DOS:  cpu time    0.0010: real time    0.0010
    --------------------------------------------
      LOOP:  cpu time    0.3303: real time    0.3313

 eigenvalue-minimisations  :  1350
 total energy-change (2. order) :-0.1960728E+03  (-0.1928071E+03)
 number of electron      36.0000000 magnetization 
 augmentation part       36.0000000 magnetization 

 Free energy of the ion-electron system (eV)
  ---------------------------------------------------
  alpha Z        PSCENC =        20.39049130
  Ewald energy   TEWEN  =      3381.85121625
  -Hartree energ DENC   =     -4618.87876028
  -exchange      EXHF   =         0.00000000
  -V(xc)+E(xc)   XCENC  =      -233.65976180
  PAW double counting   =       830.67159578     -534.39912339
  entropy T*S    EENTRO =         0.00072825
  eigenvalues    EBANDS =      -189.52249675
  atomic energy  EATOM  =      1328.04743990
  Solvation  Ediel_sol  =         0.00000000
  ---------------------------------------------------
  free energy    TOTEN  =       -15.49867075 eV

  energy without entropy =      -15.49939900  energy(sigma->0) =      -15.49891350


--------------------------------------------------------------------------------------------------------




--------------------------------------- Iteration      1(   3)  ---------------------------------------


     EDDAV:  cpu time    0.2831: real time    0.2838
       DOS:  cpu time    0.0011: real time    0.0011
    --------------------------------------------
      LOOP:  cpu time    0.2842: real time    0.2849

 eigenvalue-minimisations  :  1110
 total energy-change (2. order) :-0.2096912E+02  (-0.2072637E+02)
 number of electron      36.0000000 magnetization 
 augmentation part       36.0000000 magnetization 

 Free energy of the ion-electron system (eV)
  ---------------------------------------------------
  alpha Z        PSCENC =        20.39049130
  Ewald energy   TEWEN  =      3381.85121625
  -Hartree energ DENC   =     -4618.87876028
  -exchange      EXHF   =         0.00000000
  -V(xc)+E(xc)   XCENC  =      -233.65976180
  PAW double counting   =       830.67159578     -534.39912339
  entropy T*S    EENTRO =         0.00724197
  eigenvalues    EBANDS =      -210.49812696
  atomic energy  EATOM  =      1328.04743990
  Solvation  Ediel_sol  =         0.00000000
  ---------------------------------------------------
  free energy    TOTEN  =       -36.46778724 eV

  energy without entropy =      -36.47502921  energy(sigma->0) =      -36.47020123


--------------------------------------------------------------------------------------------------------




--------------------------------------- Iteration      1(   4)  ---------------------------------------


     EDDAV:  cpu time    0.3456: real time    0.3465
       DOS:  cpu time    0.0010: real time    0.0010
    --------------------------------------------
      LOOP:  cpu time    0.3466: real time    0.3475

 eigenvalue-minimisations  :  1450
 total energy-change (2. order) :-0.8968823E+00  (-0.8929116E+00)
 number of electron      36.0000000 magnetization 
 augmentation part       36.0000000 magnetization 

 Free energy of the ion-electron system (eV)
  ---------------------------------------------------
  alpha Z        PSCENC =        20.39049130
  Ewald energy   TEWEN  =      3381.85121625
  -Hartree energ DENC   =     -4618.87876028
  -exchange      EXHF   =         0.00000000
  -V(xc)+E(xc)   XCENC  =      -233.65976180
  PAW double counting   =       830.67159578     -534.39912339
  entropy T*S    EENTRO =         0.00660201
  eigenvalues    EBANDS =      -211.39436927
  atomic energy  EATOM  =      1328.04743990
  Solvation  Ediel_sol  =         0.00000000
  ---------------------------------------------------
  free energy    TOTEN  =       -37.36466951 eV

  energy without entropy =      -37.37127152  energy(sigma->0) =      -37.36687018


--------------------------------------------------------------------------------------------------------




--------------------------------------- Iteration      1(   5)  ---------------------------------------


     EDDAV:  cpu time    0.3022: real time    0.3030
       DOS:  cpu time    0.0010: real time    0.0010
    CHARGE:  cpu time    0.0270: real time    0.0271
    MIXING:  cpu time    0.0017: real time    0.0017
    --------------------------------------------
      LOOP:  cpu time    0.3319: real time    0.3328

 eigenvalue-minimisations  :  1206
 total energy-change (2. order) :-0.1284399E-01  (-0.1282671E-01)
 number of electron      36.0000010 magnetization 
 augmentation part       -2.7683369 magnetization 

 Broyden mixing:
  rms(total) = 0.62820E+00    rms(broyden)= 0.62740E+00
  rms(prec ) = 0.70123E+00
  weight for this iteration     100.00

 Free energy of the ion-electron system (eV)
  ---------------------------------------------------
  alpha Z        PSCENC =        20.39049130
  Ewald energy   TEWEN  =      3381.85121625
  -Hartree energ DENC   =     -4618.87876028
  -exchange      EXHF   =         0.00000000
  -V(xc)+E(xc)   XCENC  =      -233.65976180
  PAW double counting   =       830.67159578     -534.39912339
  entropy T*S    EENTRO =         0.00640751
  eigenvalues    EBANDS =      -211.40701875
  atomic energy  EATOM  =      1328.04743990
  Solvation  Ediel_sol  =         0.00000000
  ---------------------------------------------------
  free energy    TOTEN  =       -37.37751350 eV

  energy without entropy =      -37.38392100  energy(sigma->0) =      -37.37964933


--------------------------------------------------------------------------------------------------------




--------------------------------------- Iteration      1(   6)  ---------------------------------------


    POTLOK:  cpu time    0.0209: real time    0.0210
    SETDIJ:  cpu time    0.0018: real time    0.0018
     EDDAV:  cpu time    0.3256: real time    0.3264
       DOS:  cpu time    0.0011: real time    0.0011
    CHARGE:  cpu time    0.0264: real time    0.0265
    MIXING:  cpu time    0.0009: real time    0.0009
    --------------------------------------------
      LOOP:  cpu time    0.3767: real time    0.3777

 eigenvalue-minimisations  :  1260
 total energy-change (2. order) : 0.9571129E+00  (-0.4744448E+00)
 number of electron      36.0000010 magnetization 
 augmentation part       -2.1990763 magnetization 

 Broyden mixing:
  rms(total) = 0.26284E+00    rms(broyden)= 0.26278E+00
  rms(prec ) = 0.35350E+00
  weight for this iteration     100.00

 eigenvalues of (default mixing * dielectric matrix)
  average eigenvalue GAMMA=   1.0766
  1.0766

 Free energy of the ion-electron system (eV)
  ---------------------------------------------------
  alpha Z        PSCENC =        20.39049130
  Ewald energy   TEWEN  =      3381.85121625
  -Hartree energ DENC   =     -4619.20428477
  -exchange      EXHF   =         0.00000000
  -V(xc)+E(xc)   XCENC  =      -232.98316943
  PAW double counting   =       859.65854517     -564.70600229
  entropy T*S    EENTRO =         0.00415787
  eigenvalues    EBANDS =      -209.47879459
  atomic energy  EATOM  =      1328.04743990
  Solvation  Ediel_sol  =         0.00000000
  ---------------------------------------------------
  free energy    TOTEN  =       -36.42040059 eV

  energy without entropy =      -36.42455847  energy(sigma->0) =      -36.42178655


--------------------------------------------------------------------------------------------------------




--------------------------------------- Iteration      1(   7)  ---------------------------------------


    POTLOK:  cpu time    0.0166: real time    0.0167
    SETDIJ:  cpu time    0.0018: real time    0.0018
     EDDAV:  cpu time    0.2951: real time    0.2958
       DOS:  cpu time    0.0011: real time    0.0011
    CHARGE:  cpu time    0.0245: real time    0.0246
    MIXING:  cpu time    0.0009: real time    0.0010
    --------------------------------------------
      LOOP:  cpu time    0.3401: real time    0.3410

 eigenvalue-minimisations  :  1184
 total energy-change (2. order) : 0.3029753E+00  (-0.2895287E+00)
 number of electron      36.0000010 magnetization 
 augmentation part       -2.5802234 magnetization 

 Broyden mixing:
  rms(total) = 0.24800E+00    rms(broyden)= 0.24792E+00
  rms(prec ) = 0.28360E+00
  weight for this iteration     100.00

 eigenvalues of (default mixing * dielectric matrix)
  average eigenvalue GAMMA=   1.3064
  2.0784  0.5345

 Free energy of the ion-electron system (eV)
  ---------------------------------------------------
  alpha Z        PSCENC =        20.39049130
  Ewald energy   TEWEN  =      3381.85121625
  -Hartree energ DENC   =     -4630.35705448
  -exchange      EXHF   =         0.00000000
  -V(xc)+E(xc)   XCENC  =      -232.85748697
  PAW double counting   =       894.71548250     -600.31072988
  entropy T*S    EENTRO =         0.00552975
  eigenvalues    EBANDS =      -197.60231366
  atomic energy  EATOM  =      1328.04743990
  Solvation  Ediel_sol  =         0.00000000
  ---------------------------------------------------
  free energy    TOTEN  =       -36.11742530 eV

  energy without entropy =      -36.12295505  energy(sigma->0) =      -36.11926855


--------------------------------------------------------------------------------------------------------




--------------------------------------- Iteration      1(   8)  ---------------------------------------


    POTLOK:  cpu time    0.0154: real time    0.0156
    SETDIJ:  cpu time    0.0016: real time    0.0016
     EDDAV:  cpu time    0.3061: real time    0.3068
       DOS:  cpu time    0.0011: real time    0.0011
    CHARGE:  cpu time    0.0257: real time    0.0258
    MIXING:  cpu time    0.0009: real time    0.0009
    --------------------------------------------
      LOOP:  cpu time    0.3508: real time    0.3518

 eigenvalue-minimisations  :  1212
 total energy-change (2. order) : 0.1727803E+00  (-0.6868894E-01)
 number of electron      36.0000010 magnetization 
 augmentation part       -2.4400898 magnetization 

 Broyden mixing:
  rms(total) = 0.45535E-01    rms(broyden)= 0.45510E-01
  rms(prec ) = 0.54400E-01
  weight for this iteration     100.00

 eigenvalues of (default mixing * dielectric matrix)
  average eigenvalue GAMMA=   1.3827
  2.2620  1.3428  0.5433

 Free energy of the ion-electron system (eV)
  ---------------------------------------------------
  alpha Z        PSCENC =        20.39049130
  Ewald energy   TEWEN  =      3381.85121625
  -Hartree energ DENC   =     -4633.17305327
  -exchange      EXHF   =         0.00000000
  -V(xc)+E(xc)   XCENC  =      -232.36605281
  PAW double counting   =       921.99676625     -628.32085250
  entropy T*S    EENTRO =         0.00643042
  eigenvalues    EBANDS =      -194.37703054
  atomic energy  EATOM  =      1328.04743990
  Solvation  Ediel_sol  =         0.00000000
  ---------------------------------------------------
  free energy    TOTEN  =       -35.94464500 eV

  energy without entropy =      -35.95107542  energy(sigma->0) =      -35.94678847


--------------------------------------------------------------------------------------------------------




--------------------------------------- Iteration      1(   9)  ---------------------------------------


    POTLOK:  cpu time    0.0162: real time    0.0163
    SETDIJ:  cpu time    0.0019: real time    0.0019
     EDDAV:  cpu time    0.3505: real time    0.3514
       DOS:  cpu time    0.0011: real time    0.0011
    CHARGE:  cpu time    0.0269: real time    0.0269
    MIXING:  cpu time    0.0010: real time    0.0010
    --------------------------------------------
      LOOP:  cpu time    0.3976: real time    0.3986

 eigenvalue-minimisations  :  1364
 total energy-change (2. order) : 0.1464702E-02  (-0.9310127E-02)
 number of electron      36.0000010 magnetization 
 augmentation part       -2.3730398 magnetization 

 Broyden mixing:
  rms(total) = 0.29541E-01    rms(broyden)= 0.29517E-01
  rms(prec ) = 0.40250E-01
  weight for this iteration     100.00

 eigenvalues of (default mixing * dielectric matrix)
  average eigenvalue GAMMA=   1.3740
  2.4454  1.6976  0.5636  0.7895

 Free energy of the ion-electron system (eV)
  ---------------------------------------------------
  alpha Z        PSCENC =        20.39049130
  Ewald energy   TEWEN  =      3381.85121625
  -Hartree energ DENC   =     -4635.19563478
  -exchange      EXHF   =         0.00000000
  -V(xc)+E(xc)   XCENC  =      -232.23686840
  PAW double counting   =       930.03767099     -636.51550844
  entropy T*S    EENTRO =         0.00639648
  eigenvalues    EBANDS =      -192.32838358
  atomic energy  EATOM  =      1328.04743990
  Solvation  Ediel_sol  =         0.00000000
  ---------------------------------------------------
  free energy    TOTEN  =       -35.94318029 eV

  energy without entropy =      -35.94957677  energy(sigma->0) =      -35.94531245


--------------------------------------------------------------------------------------------------------




--------------------------------------- Iteration      1(  10)  ---------------------------------------


    POTLOK:  cpu time    0.0167: real time    0.0168
    SETDIJ:  cpu time    0.0017: real time    0.0017
     EDDAV:  cpu time    0.3258: real time    0.3266
       DOS:  cpu time    0.0011: real time    0.0011
    CHARGE:  cpu time    0.0257: real time    0.0257
    MIXING:  cpu time    0.0010: real time    0.0010
    --------------------------------------------
      LOOP:  cpu time    0.3720: real time    0.3730

 eigenvalue-minimisations  :  1264
 total energy-change (2. order) : 0.3310963E-02  (-0.2339324E-02)
 number of electron      36.0000010 magnetization 
 augmentation part       -2.3994467 magnetization 

 Broyden mixing:
  rms(total) = 0.16367E-01    rms(broyden)= 0.16354E-01
  rms(prec ) = 0.22475E-01
  weight for this iteration     100.00

 eigenvalues of (default mixing * dielectric matrix)
  average eigenvalue GAMMA=   1.2319
  2.5098  1.8271  0.8469  0.5577  0.4182

 Free energy of the ion-electron system (eV)
  ---------------------------------------------------
  alpha Z        PSCENC =        20.39049130
  Ewald energy   TEWEN  =      3381.85121625
  -Hartree energ DENC   =     -4637.15857676
  -exchange      EXHF   =         0.00000000
  -V(xc)+E(xc)   XCENC  =      -232.20906975
  PAW double counting   =       933.07667775     -639.57594066
  entropy T*S    EENTRO =         0.00653258
  eigenvalues    EBANDS =      -190.36863994
  atomic energy  EATOM  =      1328.04743990
  Solvation  Ediel_sol  =         0.00000000
  ---------------------------------------------------
  free energy    TOTEN  =       -35.93986933 eV

  energy without entropy =      -35.94640191  energy(sigma->0) =      -35.94204686


--------------------------------------------------------------------------------------------------------




--------------------------------------- Iteration      1(  11)  ---------------------------------------


    POTLOK:  cpu time    0.0163: real time    0.0164
    SETDIJ:  cpu time    0.0018: real time    0.0018
     EDDAV:  cpu time    0.3341: real time    0.3349
       DOS:  cpu time    0.0011: real time    0.0011
    CHARGE:  cpu time    0.0245: real time    0.0246
    MIXING:  cpu time    0.0009: real time    0.0009
    --------------------------------------------
      LOOP:  cpu time    0.3787: real time    0.3797

 eigenvalue-minimisations  :  1308
 total energy-change (2. order) : 0.8169502E-03  (-0.6329026E-03)
 number of electron      36.0000010 magnetization 
 augmentation part       -2.4087101 magnetization 

 Broyden mixing:
  rms(total) = 0.73115E-02    rms(broyden)= 0.72985E-02
  rms(prec ) = 0.11400E-01
  weight for this iteration     100.00

 eigenvalues of (default mixing * dielectric matrix)
  average eigenvalue GAMMA=   1.2909
  2.4404  2.1680  1.2131  0.9992  0.5603  0.3642

 Free energy of the ion-electron system (eV)
  ---------------------------------------------------
  alpha Z        PSCENC =        20.39049130
  Ewald energy   TEWEN  =      3381.85121625
  -Hartree energ DENC   =     -4637.93549520
  -exchange      EXHF   =         0.00000000
  -V(xc)+E(xc)   XCENC  =      -232.19876865
  PAW double counting   =       933.56807654     -640.06539046
  entropy T*S    EENTRO =         0.00653588
  eigenvalues    EBANDS =      -189.60315792
  atomic energy  EATOM  =      1328.04743990
  Solvation  Ediel_sol  =         0.00000000
  ---------------------------------------------------
  free energy    TOTEN  =       -35.93905238 eV

  energy without entropy =      -35.94558826  energy(sigma->0) =      -35.94123101


--------------------------------------------------------------------------------------------------------




--------------------------------------- Iteration      1(  12)  ---------------------------------------


    POTLOK:  cpu time    0.0155: real time    0.0156
    SETDIJ:  cpu time    0.0017: real time    0.0017
     EDDAV:  cpu time    0.3153: real time    0.3161
       DOS:  cpu time    0.0011: real time    0.0011
    CHARGE:  cpu time    0.0258: real time    0.0258
    MIXING:  cpu time    0.0010: real time    0.0010
    --------------------------------------------
      LOOP:  cpu time    0.3605: real time    0.3614

 eigenvalue-minimisations  :  1232
 total energy-change (2. order) : 0.3598968E-03  (-0.1818434E-03)
 number of electron      36.0000010 magnetization 
 augmentation part       -2.3990471 magnetization 

 Broyden mixing:
  rms(total) = 0.36870E-02    rms(broyden)= 0.36852E-02
  rms(prec ) = 0.73338E-02
  weight for this iteration     100.00

 eigenvalues of (default mixing * dielectric matrix)
  average eigenvalue GAMMA=   1.4137
  2.8231  2.3811  1.8445  1.0768  0.8408  0.5633  0.3662

 Free energy of the ion-electron system (eV)
  ---------------------------------------------------
  alpha Z        PSCENC =        20.39049130
  Ewald energy   TEWEN  =      3381.85121625
  -Hartree energ DENC   =     -4639.07843630
  -exchange      EXHF   =         0.00000000
  -V(xc)+E(xc)   XCENC  =      -232.17813541
  PAW double counting   =       932.88071288     -639.36329449
  entropy T*S    EENTRO =         0.00650117
  eigenvalues    EBANDS =      -188.49518778
  atomic energy  EATOM  =      1328.04743990
  Solvation  Ediel_sol  =         0.00000000
  ---------------------------------------------------
  free energy    TOTEN  =       -35.93869248 eV

  energy without entropy =      -35.94519365  energy(sigma->0) =      -35.94085954


--------------------------------------------------------------------------------------------------------




--------------------------------------- Iteration      1(  13)  ---------------------------------------


    POTLOK:  cpu time    0.0163: real time    0.0164
    SETDIJ:  cpu time    0.0018: real time    0.0018
     EDDAV:  cpu time    0.3041: real time    0.3049
       DOS:  cpu time    0.0012: real time    0.0012
    CHARGE:  cpu time    0.0270: real time    0.0271
    MIXING:  cpu time    0.0012: real time    0.0012
    --------------------------------------------
      LOOP:  cpu time    0.3516: real time    0.3525

 eigenvalue-minimisations  :  1060
 total energy-change (2. order) : 0.3152523E-04  (-0.1239750E-03)
 number of electron      36.0000010 magnetization 
 augmentation part       -2.4001456 magnetization 

 Broyden mixing:
  rms(total) = 0.18593E-02    rms(broyden)= 0.18584E-02
  rms(prec ) = 0.30196E-02
  weight for this iteration     100.00

 eigenvalues of (default mixing * dielectric matrix)
  average eigenvalue GAMMA=   1.5625
  3.8115  2.5434  1.7136  1.7136  0.8948  0.8948  0.5627  0.3658

 Free energy of the ion-electron system (eV)
  ---------------------------------------------------
  alpha Z        PSCENC =        20.39049130
  Ewald energy   TEWEN  =      3381.85121625
  -Hartree energ DENC   =     -4640.69584360
  -exchange      EXHF   =         0.00000000
  -V(xc)+E(xc)   XCENC  =      -232.15949380
  PAW double counting   =       932.34326188     -638.81422568
  entropy T*S    EENTRO =         0.00649660
  eigenvalues    EBANDS =      -186.90800379
  atomic energy  EATOM  =      1328.04743990
  Solvation  Ediel_sol  =         0.00000000
  ---------------------------------------------------
  free energy    TOTEN  =       -35.93866096 eV

  energy without entropy =      -35.94515756  energy(sigma->0) =      -35.94082649


--------------------------------------------------------------------------------------------------------




--------------------------------------- Iteration      1(  14)  ---------------------------------------


    POTLOK:  cpu time    0.0172: real time    0.0173
    SETDIJ:  cpu time    0.0018: real time    0.0018
     EDDAV:  cpu time    0.2128: real time    0.2133
       DOS:  cpu time    0.0011: real time    0.0011
    CHARGE:  cpu time    0.0261: real time    0.0261
    MIXING:  cpu time    0.0011: real time    0.0011
    --------------------------------------------
      LOOP:  cpu time    0.2601: real time    0.2608

 eigenvalue-minimisations  :   670
 total energy-change (2. order) :-0.2774372E-03  (-0.1527642E-04)
 number of electron      36.0000010 magnetization 
 augmentation part       -2.4013169 magnetization 

 Broyden mixing:
  rms(total) = 0.12261E-02    rms(broyden)= 0.12259E-02
  rms(prec ) = 0.17949E-02
  weight for this iteration     100.00

 eigenvalues of (default mixing * dielectric matrix)
  average eigenvalue GAMMA=   1.7065
  4.6774  2.5357  2.5357  1.7251  1.1816  0.8875  0.8875  0.5627  0.3657

 Free energy of the ion-electron system (eV)
  ---------------------------------------------------
  alpha Z        PSCENC =        20.39049130
  Ewald energy   TEWEN  =      3381.85121625
  -Hartree energ DENC   =     -4641.29520691
  -exchange      EXHF   =         0.00000000
  -V(xc)+E(xc)   XCENC  =      -232.15519142
  PAW double counting   =       932.08571404     -638.55248688
  entropy T*S    EENTRO =         0.00649952
  eigenvalues    EBANDS =      -186.31741420
  atomic energy  EATOM  =      1328.04743990
  Solvation  Ediel_sol  =         0.00000000
  ---------------------------------------------------
  free energy    TOTEN  =       -35.93893840 eV

  energy without entropy =      -35.94543792  energy(sigma->0) =      -35.94110490


--------------------------------------------------------------------------------------------------------




--------------------------------------- Iteration      1(  15)  ---------------------------------------


    POTLOK:  cpu time    0.0169: real time    0.0170
    SETDIJ:  cpu time    0.0018: real time    0.0018
     EDDAV:  cpu time    0.1987: real time    0.1992
       DOS:  cpu time    0.0011: real time    0.0011
    CHARGE:  cpu time    0.0258: real time    0.0258
    MIXING:  cpu time    0.0012: real time    0.0012
    --------------------------------------------
      LOOP:  cpu time    0.2454: real time    0.2461

 eigenvalue-minimisations  :   602
 total energy-change (2. order) :-0.2588583E-03  (-0.3911341E-05)
 number of electron      36.0000010 magnetization 
 augmentation part       -2.4011732 magnetization 

 Broyden mixing:
  rms(total) = 0.56528E-03    rms(broyden)= 0.56513E-03
  rms(prec ) = 0.88323E-03
  weight for this iteration     100.00

 eigenvalues of (default mixing * dielectric matrix)
  average eigenvalue GAMMA=   1.8012
  5.4721  3.0094  2.3255  1.7961  1.6244  1.0648  0.8955  0.8955  0.5627  0.3657

 Free energy of the ion-electron system (eV)
  ---------------------------------------------------
  alpha Z        PSCENC =        20.39049130
  Ewald energy   TEWEN  =      3381.85121625
  -Hartree energ DENC   =     -4641.57618408
  -exchange      EXHF   =         0.00000000
  -V(xc)+E(xc)   XCENC  =      -232.15319886
  PAW double counting   =       932.10585930     -638.57605507
  entropy T*S    EENTRO =         0.00649894
  eigenvalues    EBANDS =      -186.03526493
  atomic energy  EATOM  =      1328.04743990
  Solvation  Ediel_sol  =         0.00000000
  ---------------------------------------------------
  free energy    TOTEN  =       -35.93919725 eV

  energy without entropy =      -35.94569620  energy(sigma->0) =      -35.94136357


--------------------------------------------------------------------------------------------------------




--------------------------------------- Iteration      1(  16)  ---------------------------------------


    POTLOK:  cpu time    0.0175: real time    0.0176
    SETDIJ:  cpu time    0.0019: real time    0.0019
     EDDAV:  cpu time    0.1885: real time    0.1890
       DOS:  cpu time    0.0011: real time    0.0011
    --------------------------------------------
      LOOP:  cpu time    0.2090: real time    0.2095

 eigenvalue-minimisations  :   548
 total energy-change (2. order) :-0.8822199E-04  (-0.1860271E-05)
 number of electron      36.0000010 magnetization 
 augmentation part       -2.4011732 magnetization 

 Free energy of the ion-electron system (eV)
  ---------------------------------------------------
  alpha Z        PSCENC =        20.39049130
  Ewald energy   TEWEN  =      3381.85121625
  -Hartree energ DENC   =     -4641.70116407
  -exchange      EXHF   =         0.00000000
  -V(xc)+E(xc)   XCENC  =      -232.15308391
  PAW double counting   =       932.07927989     -638.54978943
  entropy T*S    EENTRO =         0.00649499
  eigenvalues    EBANDS =      -185.91017040
  atomic energy  EATOM  =      1328.04743990
  Solvation  Ediel_sol  =         0.00000000
  ---------------------------------------------------
  free energy    TOTEN  =       -35.93928548 eV

  energy without entropy =      -35.94578047  energy(sigma->0) =      -35.94145048


--------------------------------------------------------------------------------------------------------




 average (electrostatic) potential at core
  the test charge radii are     1.2296  1.1897
  (the norm of the test charge is              1.0000)
       1 -44.0856       2 -44.0858       3 -94.9708       4 -95.1170       5 -94.9709
       6 -95.1169
 
 
 
 E-fermi :  -0.4310     XC(G=0):  -4.2609     alpha+bet : -4.3244


 k-point     1 :       0.0000    0.0625    0.0000
  band No.  band energies     occupation 
      1     -13.3933      2.00000
      2     -12.5137      2.00000
      3     -11.7034      2.00000
      4     -11.4459      2.00000
      5      -6.1691      2.00000
      6      -5.4841      2.00000
      7      -5.2536      2.00000
      8      -4.4635      2.00000
      9      -3.3997      2.00000
     10      -2.8981      2.00000
     11      -2.8087      2.00000
     12      -2.6036      2.00000
     13      -2.2341      2.00000
     14      -1.8668      2.00000
     15      -1.6322      2.00000
     16      -1.1090      2.00002
     17      -0.8860      2.00595
     18      -0.2132     -0.06414
     19      -0.2090     -0.06617
     20       0.7913     -0.00000
     21       1.2247     -0.00000
     22       1.5358     -0.00000

 k-point     2 :       0.2000    0.0625    0.0000
  band No.  band energies     occupation 
      1     -13.2772      2.00000
      2     -12.4600      2.00000
      3     -11.9320      2.00000
      4     -11.5167      2.00000
      5      -5.9994      2.00000
      6      -5.2642      2.00000
      7      -5.0487      2.00000
      8      -4.3664      2.00000
      9      -3.6625      2.00000
     10      -2.9318      2.00000
     11      -2.7292      2.00000
     12      -2.5525      2.00000
     13      -2.4597      2.00000
     14      -1.7859      2.00000
     15      -1.7044      2.00000
     16      -1.1392      2.00001
     17      -1.0061      2.00037
     18      -0.6181      2.03417
     19      -0.1185     -0.04962
     20       0.6552     -0.00000
     21       1.0399     -0.00000
     22       1.4460     -0.00000

 k-point     3 :       0.4000    0.0625    0.0000
  band No.  band energies     occupation 
      1     -12.9534      2.00000
      2     -12.4887      2.00000
      3     -12.2530      2.00000
      4     -11.6866      2.00000
      5      -5.5524      2.00000
      6      -5.1341      2.00000
      7      -4.7905      2.00000
      8      -4.1796      2.00000
      9      -3.6472      2.00000
     10      -3.0157      2.00000
     11      -2.8506      2.00000
     12      -2.4905      2.00000
     13      -2.3998      2.00000
     14      -1.9311      2.00000
     15      -1.8804      2.00000
     16      -1.4584      2.00000
     17      -1.1647      2.00000
     18      -1.0414      2.00014
     19      -0.3301      0.25512
     20       0.5680     -0.00000
     21       0.9184     -0.00000
     22       1.2641     -0.00000

 k-point     4 :      -0.4000    0.0625    0.0000
  band No.  band energies     occupation 
      1     -12.9534      2.00000
      2     -12.4887      2.00000
      3     -12.2530      2.00000
      4     -11.6866      2.00000
      5      -5.5524      2.00000
      6      -5.1341      2.00000
      7      -4.7905      2.00000
      8      -4.1796      2.00000
      9      -3.6472      2.00000
     10      -3.0157      2.00000
     11      -2.8506      2.00000
     12      -2.4906      2.00000
     13      -2.3998      2.00000
     14      -1.9311      2.00000
     15      -1.8804      2.00000
     16      -1.4584      2.00000
     17      -1.1647      2.00000
     18      -1.0414      2.00014
     19      -0.3301      0.25512
     20       0.5680     -0.00000
     21       0.9184     -0.00000
     22       1.2641     -0.00000

 k-point     5 :      -0.2000    0.0625    0.0000
  band No.  band energies     occupation 
      1     -13.2772      2.00000
      2     -12.4600      2.00000
      3     -11.9320      2.00000
      4     -11.5167      2.00000
      5      -5.9994      2.00000
      6      -5.2642      2.00000
      7      -5.0487      2.00000
      8      -4.3664      2.00000
      9      -3.6625      2.00000
     10      -2.9318      2.00000
     11      -2.7292      2.00000
     12      -2.5525      2.00000
     13      -2.4597      2.00000
     14      -1.7859      2.00000
     15      -1.7044      2.00000
     16      -1.1392      2.00001
     17      -1.0061      2.00037
     18      -0.6181      2.03417
     19      -0.1185     -0.04962
     20       0.6552     -0.00000
     21       1.0399     -0.00000
     22       1.4460     -0.00000

 k-point     6 :       0.0000    0.1875    0.0000
  band No.  band energies     occupation 
      1     -13.0344      2.00000
      2     -12.2674      2.00000
      3     -11.5156      2.00000
      4     -11.2077      2.00000
      5      -5.8130      2.00000
      6      -5.2024      2.00000
      7      -5.0175      2.00000
      8      -4.3521      2.00000
      9      -3.6555      2.00000
     10      -3.5200      2.00000
     11      -3.1248      2.00000
     12      -3.0904      2.00000
     13      -2.2968      2.00000
     14      -2.0552      2.00000
     15      -1.9346      2.00000
     16      -1.5488      2.00000
     17      -1.2010      2.00000
     18      -0.8806      2.00662
     19      -0.5171      1.65947
     20       0.5983     -0.00000
     21       1.2726     -0.00000
     22       1.3973     -0.00000

 k-point     7 :       0.2000    0.1875    0.0000
  band No.  band energies     occupation 
      1     -12.9250      2.00000
      2     -12.2155      2.00000
      3     -11.7074      2.00000
      4     -11.2896      2.00000
      5      -5.6164      2.00000
      6      -5.0511      2.00000
      7      -4.8714      2.00000
      8      -4.2548      2.00000
      9      -3.7977      2.00000
     10      -3.5186      2.00000
     11      -3.3451      2.00000
     12      -2.8692      2.00000
     13      -2.5124      2.00000
     14      -2.2068      2.00000
     15      -1.8146      2.00000
     16      -1.5616      2.00000
     17      -1.2953      2.00000
     18      -1.0685      2.00006
     19      -0.2938      0.09011
     20       0.4806     -0.00000
     21       1.0604     -0.00000
     22       1.2201     -0.00000

 k-point     8 :       0.4000    0.1875    0.0000
  band No.  band energies     occupation 
      1     -12.6203      2.00000
      2     -12.2009      2.00000
      3     -12.0333      2.00000
      4     -11.4545      2.00000
      5      -5.1515      2.00000
      6      -4.9000      2.00000
      7      -4.4878      2.00000
      8      -4.3305      2.00000
      9      -4.0575      2.00000
     10      -3.5407      2.00000
     11      -3.3209      2.00000
     12      -3.0512      2.00000
     13      -2.3681      2.00000
     14      -2.1624      2.00000
     15      -1.9081      2.00000
     16      -1.8414      2.00000
     17      -1.4708      2.00000
     18      -1.1062      2.00002
     19      -0.1695     -0.06903
     20       0.1216     -0.00066
     21       1.0116     -0.00000
     22       1.0488     -0.00000

 k-point     9 :      -0.4000    0.1875    0.0000
  band No.  band energies     occupation 
      1     -12.6203      2.00000
      2     -12.2009      2.00000
      3     -12.0333      2.00000
      4     -11.4545      2.00000
      5      -5.1515      2.00000
      6      -4.9000      2.00000
      7      -4.4878      2.00000
      8      -4.3305      2.00000
      9      -4.0575      2.00000
     10      -3.5407      2.00000
     11      -3.3209      2.00000
     12      -3.0512      2.00000
     13      -2.3681      2.00000
     14      -2.1624      2.00000
     15      -1.9081      2.00000
     16      -1.8414      2.00000
     17      -1.4708      2.00000
     18      -1.1062      2.00002
     19      -0.1695     -0.06903
     20       0.1216     -0.00066
     21       1.0116     -0.00000
     22       1.0488     -0.00000

 k-point    10 :      -0.2000    0.1875    0.0000
  band No.  band energies     occupation 
      1     -12.9250      2.00000
      2     -12.2155      2.00000
      3     -11.7074      2.00000
      4     -11.2896      2.00000
      5      -5.6164      2.00000
      6      -5.0511      2.00000
      7      -4.8714      2.00000
      8      -4.2548      2.00000
      9      -3.7977      2.00000
     10      -3.5186      2.00000
     11      -3.3451      2.00000
     12      -2.8692      2.00000
     13      -2.5124      2.00000
     14      -2.2068      2.00000
     15      -1.8146      2.00000
     16      -1.5616      2.00000
     17      -1.2953      2.00000
     18      -1.0685      2.00006
     19      -0.2938      0.09011
     20       0.4806     -0.00000
     21       1.0604     -0.00000
     22       1.2201     -0.00000

 k-point    11 :       0.0000    0.3125    0.0000
  band No.  band energies     occupation 
      1     -12.3708      2.00000
      2     -11.8391      2.00000
      3     -11.2406      2.00000
      4     -10.8864      2.00000
      5      -5.3382      2.00000
      6      -5.2653      2.00000
      7      -4.9660      2.00000
      8      -4.3600      2.00000
      9      -4.2513      2.00000
     10      -3.7645      2.00000
     11      -3.5971      2.00000
     12      -3.5429      2.00000
     13      -3.2025      2.00000
     14      -2.4253      2.00000
     15      -2.3073      2.00000
     16      -2.1599      2.00000
     17      -1.6211      2.00000
     18      -1.0805      2.00004
     19      -0.0862     -0.03505
     20       0.4492     -0.00000
     21       0.8137     -0.00000
     22       1.3837     -0.00000

 k-point    12 :       0.2000    0.3125    0.0000
  band No.  band energies     occupation 
      1     -12.2800      2.00000
      2     -11.7945      2.00000
      3     -11.3703      2.00000
      4     -10.9550      2.00000
      5      -5.4860      2.00000
      6      -5.1137      2.00000
      7      -4.7804      2.00000
      8      -4.5449      2.00000
      9      -4.1900      2.00000
     10      -3.7526      2.00000
     11      -3.6902      2.00000
     12      -3.5283      2.00000
     13      -3.1104      2.00000
     14      -2.3907      2.00000
     15      -2.1493      2.00000
     16      -2.0231      2.00000
     17      -1.6743      2.00000
     18      -1.3284      2.00000
     19       0.0021     -0.00904
     20       0.5371     -0.00000
     21       0.8075     -0.00000
     22       1.2341     -0.00000

 k-point    13 :       0.4000    0.3125    0.0000
  band No.  band energies     occupation 
      1     -12.0291      2.00000
      2     -11.7183      2.00000
      3     -11.6660      2.00000
      4     -11.0863      2.00000
      5      -5.4179      2.00000
      6      -5.0463      2.00000
      7      -4.8833      2.00000
      8      -4.4411      2.00000
      9      -4.3413      2.00000
     10      -3.9855      2.00000
     11      -3.6094      2.00000
     12      -3.3088      2.00000
     13      -2.7523      2.00000
     14      -2.3466      2.00000
     15      -2.2201      2.00000
     16      -1.8956      2.00000
     17      -1.6704      2.00000
     18      -1.4454      2.00000
     19       0.0325     -0.00503
     20       0.4719     -0.00000
     21       0.8602     -0.00000
     22       1.2190     -0.00000

 k-point    14 :      -0.4000    0.3125    0.0000
  band No.  band energies     occupation 
      1     -12.0291      2.00000
      2     -11.7183      2.00000
      3     -11.6660      2.00000
      4     -11.0863      2.00000
      5      -5.4179      2.00000
      6      -5.0463      2.00000
      7      -4.8833      2.00000
      8      -4.4411      2.00000
      9      -4.3413      2.00000
     10      -3.9855      2.00000
     11      -3.6094      2.00000
     12      -3.3088      2.00000
     13      -2.7523      2.00000
     14      -2.3466      2.00000
     15      -2.2201      2.00000
     16      -1.8956      2.00000
     17      -1.6704      2.00000
     18      -1.4454      2.00000
     19       0.0325     -0.00503
     20       0.4719     -0.00000
     21       0.8602     -0.00000
     22       1.2190     -0.00000

 k-point    15 :      -0.2000    0.3125    0.0000
  band No.  band energies     occupation 
      1     -12.2800      2.00000
      2     -11.7945      2.00000
      3     -11.3703      2.00000
      4     -10.9550      2.00000
      5      -5.4859      2.00000
      6      -5.1137      2.00000
      7      -4.7804      2.00000
      8      -4.5449      2.00000
      9      -4.1900      2.00000
     10      -3.7526      2.00000
     11      -3.6902      2.00000
     12      -3.5283      2.00000
     13      -3.1104      2.00000
     14      -2.3907      2.00000
     15      -2.1493      2.00000
     16      -2.0231      2.00000
     17      -1.6743      2.00000
     18      -1.3284      2.00000
     19       0.0021     -0.00904
     20       0.5371     -0.00000
     21       0.8075     -0.00000
     22       1.2341     -0.00000

 k-point    16 :       0.0000    0.4375    0.0000
  band No.  band energies     occupation 
      1     -11.5780      2.00000
      2     -11.4062      2.00000
      3     -11.0844      2.00000
      4     -10.8720      2.00000
      5      -5.6471      2.00000
      6      -5.4873      2.00000
      7      -5.2896      2.00000
      8      -4.9796      2.00000
      9      -4.2353      2.00000
     10      -4.2293      2.00000
     11      -3.5593      2.00000
     12      -3.4187      2.00000
     13      -2.9824      2.00000
     14      -2.8419      2.00000
     15      -2.3550      2.00000
     16      -2.1950      2.00000
     17      -1.9495      2.00000
     18      -1.6587      2.00000
     19       0.5150     -0.00000
     20       0.6157     -0.00000
     21       0.9852     -0.00000
     22       1.0399     -0.00000

 k-point    17 :       0.2000    0.4375    0.0000
  band No.  band energies     occupation 
      1     -11.5469      2.00000
      2     -11.3808      2.00000
      3     -11.1303      2.00000
      4     -10.8632      2.00000
      5      -6.0145      2.00000
      6      -5.5896      2.00000
      7      -5.3697      2.00000
      8      -5.0136      2.00000
      9      -4.1436      2.00000
     10      -3.8880      2.00000
     11      -3.6020      2.00000
     12      -3.3170      2.00000
     13      -2.8492      2.00000
     14      -2.7492      2.00000
     15      -2.2459      2.00000
     16      -2.0819      2.00000
     17      -2.0249      2.00000
     18      -1.6183      2.00000
     19       0.4955     -0.00000
     20       0.7109     -0.00000
     21       1.0525     -0.00000
     22       1.1557     -0.00000

 k-point    18 :       0.4000    0.4375    0.0000
  band No.  band energies     occupation 
      1     -11.4676      2.00000
      2     -11.3760      2.00000
      3     -11.1751      2.00000
      4     -10.8715      2.00000
      5      -6.2658      2.00000
      6      -5.9888      2.00000
      7      -5.3939      2.00000
      8      -5.0931      2.00000
      9      -3.9288      2.00000
     10      -3.8541      2.00000
     11      -3.3290      2.00000
     12      -3.1584      2.00000
     13      -2.7056      2.00000
     14      -2.5631      2.00000
     15      -2.2972      2.00000
     16      -2.2657      2.00000
     17      -1.5727      2.00000
     18      -1.4380      2.00000
     19       0.4799     -0.00000
     20       0.6977     -0.00000
     21       1.0949     -0.00000
     22       1.3912     -0.00000

 k-point    19 :      -0.4000    0.4375    0.0000
  band No.  band energies     occupation 
      1     -11.4676      2.00000
      2     -11.3760      2.00000
      3     -11.1751      2.00000
      4     -10.8715      2.00000
      5      -6.2658      2.00000
      6      -5.9888      2.00000
      7      -5.3939      2.00000
      8      -5.0931      2.00000
      9      -3.9288      2.00000
     10      -3.8541      2.00000
     11      -3.3290      2.00000
     12      -3.1584      2.00000
     13      -2.7056      2.00000
     14      -2.5631      2.00000
     15      -2.2972      2.00000
     16      -2.2657      2.00000
     17      -1.5727      2.00000
     18      -1.4380      2.00000
     19       0.4799     -0.00000
     20       0.6977     -0.00000
     21       1.0949     -0.00000
     22       1.3918     -0.00000

 k-point    20 :      -0.2000    0.4375    0.0000
  band No.  band energies     occupation 
      1     -11.5469      2.00000
      2     -11.3808      2.00000
      3     -11.1303      2.00000
      4     -10.8632      2.00000
      5      -6.0145      2.00000
      6      -5.5896      2.00000
      7      -5.3697      2.00000
      8      -5.0136      2.00000
      9      -4.1436      2.00000
     10      -3.8880      2.00000
     11      -3.6020      2.00000
     12      -3.3170      2.00000
     13      -2.8492      2.00000
     14      -2.7492      2.00000
     15      -2.2459      2.00000
     16      -2.0819      2.00000
     17      -2.0249      2.00000
     18      -1.6183      2.00000
     19       0.4955     -0.00000
     20       0.7109     -0.00000
     21       1.0525     -0.00000
     22       1.1557     -0.00000


--------------------------------------------------------------------------------------------------------


 soft charge-density along one line, spin component           1
         0         1         2         3         4         5         6         7         8         9
 total charge-density along one line
 
 pseudopotential strength for first ion, spin component:           1
 -9.263   0.027  -0.000  -0.000  -0.000   0.027  -0.002   0.000
  0.027  -9.269  -0.000   0.000   0.000  -0.002   0.028   0.000
 -0.000  -0.000  -9.245   0.010  -0.021   0.000   0.000   0.026
 -0.000   0.000   0.010  -9.257   0.016   0.000  -0.000  -0.001
 -0.000   0.000  -0.021   0.016  -9.288   0.000  -0.000   0.002
  0.027  -0.002   0.000   0.000   0.000   0.104   0.000  -0.000
 -0.002   0.028   0.000  -0.000  -0.000   0.000   0.104  -0.000
  0.000   0.000   0.026  -0.001   0.002  -0.000  -0.000   0.104
  0.000  -0.000  -0.001   0.026  -0.002  -0.000   0.000   0.000
  0.000  -0.000   0.002  -0.002   0.029  -0.000   0.000  -0.000
 -0.000   0.000  -0.006  -0.016  -0.011   0.000  -0.000   0.001
  0.000  -0.000   0.001   0.003   0.002  -0.000   0.000  -0.000
 -0.004  -0.006  -0.000   0.000  -0.000   0.000  -0.000   0.000
  0.000  -0.000  -0.002   0.002   0.004   0.000  -0.000   0.000
  0.000   0.000   0.006   0.002  -0.003  -0.000   0.000  -0.000
  0.003   0.002   0.000  -0.000   0.000  -0.000   0.000  -0.000
 -0.000   0.000   0.000   0.001  -0.002  -0.000   0.000   0.000
 -0.000  -0.000  -0.003  -0.002   0.003   0.000  -0.000   0.000
 total augmentation occupancy for first ion, spin component:           1
  1.108   0.084   0.000  -0.000  -0.000   0.633  -0.095   0.000   0.000  -0.000  -0.000   0.000   0.037   0.000   0.000  -0.007
  0.084   1.030  -0.000   0.000   0.000  -0.094   0.666   0.000  -0.000  -0.000   0.000   0.000  -0.018  -0.000  -0.000  -0.000
  0.000  -0.000   1.066   0.006  -0.109  -0.000  -0.000   0.577   0.010  -0.037  -0.021  -0.012  -0.000  -0.011  -0.024   0.000
 -0.000   0.000   0.006   0.896   0.024   0.000   0.000   0.010   0.644   0.093  -0.037  -0.030  -0.000   0.010   0.014   0.000
 -0.000   0.000  -0.109   0.024   0.775   0.000  -0.000  -0.034   0.091   0.524   0.071  -0.020  -0.000   0.017  -0.018  -0.000
  0.633  -0.094  -0.000   0.000   0.000   0.521  -0.199   0.000   0.000   0.000   0.000  -0.000   0.031  -0.000  -0.000  -0.005
 -0.095   0.666  -0.000   0.000  -0.000  -0.199   0.689   0.000  -0.000  -0.000   0.000   0.000  -0.046  -0.000   0.000   0.006
  0.000   0.000   0.577   0.010  -0.034   0.000   0.000   0.456   0.014  -0.019   0.036  -0.022  -0.000  -0.019   0.010   0.000
  0.000  -0.000   0.010   0.644   0.091   0.000  -0.000   0.014   0.708   0.171  -0.015  -0.019   0.000   0.043   0.037   0.000
 -0.000  -0.000  -0.037   0.093   0.524   0.000  -0.000  -0.019   0.171   0.494   0.027  -0.016   0.000   0.039  -0.005  -0.000
 -0.000   0.000  -0.021  -0.037   0.071   0.000   0.000   0.036  -0.015   0.027   1.142  -0.151   0.000  -0.012   0.041  -0.000
  0.000   0.000  -0.012  -0.030  -0.020  -0.000   0.000  -0.022  -0.019  -0.016  -0.151   0.030   0.000   0.002  -0.003  -0.000
  0.037  -0.018  -0.000  -0.000  -0.000   0.031  -0.046  -0.000   0.000   0.000   0.000   0.000   0.169  -0.000   0.000  -0.025
  0.000  -0.000  -0.011   0.010   0.017  -0.000  -0.000  -0.019   0.043   0.039  -0.012   0.002  -0.000   0.192  -0.002   0.000
  0.000  -0.000  -0.024   0.014  -0.018  -0.000   0.000   0.010   0.037  -0.005   0.041  -0.003   0.000  -0.002   0.195  -0.000
 -0.007  -0.000   0.000   0.000  -0.000  -0.005   0.006   0.000   0.000  -0.000  -0.000  -0.000  -0.025   0.000  -0.000   0.004
 -0.000  -0.000   0.001  -0.001  -0.001   0.000  -0.000   0.002  -0.007  -0.006   0.001  -0.000  -0.000  -0.028   0.000  -0.000
 -0.000   0.000   0.006  -0.001   0.001   0.000  -0.000  -0.001  -0.005   0.000  -0.006   0.000  -0.000   0.000  -0.027   0.000


------------------------ aborting loop because EDIFF is reached ----------------------------------------


    CHARGE:  cpu time    0.0397: real time    0.0398
    FORLOC:  cpu time    0.0024: real time    0.0024
    FORNL :  cpu time    0.1164: real time    0.1167
    STRESS:  cpu time    0.1761: real time    0.1888
    FORCOR:  cpu time    0.0201: real time    0.0201
    FORHAR:  cpu time    0.0055: real time    0.0055
    MIXING:  cpu time    0.0011: real time    0.0011
    OFIELD:  cpu time    0.0000: real time    0.0000

  FORCE on cell =-STRESS in cart. coord.  units (eV):
  Direction    XX          YY          ZZ          XY          YZ          ZX
  --------------------------------------------------------------------------------------
  Alpha Z    20.39049    20.39049    20.39049
  Ewald    4370.72273  4417.91738 -5406.78982    -0.00000    -0.00000     0.90502
  Hartree  4579.99503  4606.36653 -4544.48069    -0.00000     0.00000     3.69196
  E(xc)    -151.01684  -149.56494  -152.58453     0.00000    -0.00000    -0.38514
  Local   -9501.53499 -9560.32189  9394.67229     0.00003    -0.00001    -8.41065
  n-local   402.10578   393.02277   410.55881    -0.00002     0.00002    -1.67340
  augment   -86.60256   -83.97421   -88.30158     0.00001    -0.00001     0.38240
  Kinetic   365.97773   357.08081   366.37517    -0.00001    -0.00002     5.39736
  Fock        0.00000     0.00000     0.00000     0.00000     0.00000     0.00000
  -------------------------------------------------------------------------------------
  Total       0.03737     0.91695    -0.15986     0.00000    -0.00002    -0.09244
  in kB       0.13778     3.38100    -0.58944     0.00001    -0.00007    -0.34085
  external pressure =        0.98 kB  Pullay stress =        0.00 kB


 VOLUME and BASIS-vectors are now :
 -----------------------------------------------------------------------------
  energy-cutoff  :      224.58
  volume of cell :      434.52
      direct lattice vectors                 reciprocal lattice vectors
     6.390000000  0.000000000  0.000000000     0.156494523  0.000000000  0.000000000
     0.000000000  3.400000000  0.000000000     0.000000000  0.294117647  0.000000000
     0.000000000  0.000000000 20.000000000     0.000000000  0.000000000  0.050000000

  length of vectors
     6.390000000  3.400000000 20.000000000     0.156494523  0.294117647  0.050000000


 FORCES acting on ions
    electron-ion (+dipol)            ewald-force                    non-local-force                 convergence-correction
 -----------------------------------------------------------------------------------------------
   0.343E+02 0.185E-05 0.146E+02   -.338E+02 0.696E-14 -.146E+02   -.435E+00 -.845E-05 -.735E-01   -.482E-03 -.659E-06 -.721E-03
   -.343E+02 0.526E-06 -.146E+02   0.338E+02 0.312E-14 0.146E+02   0.434E+00 0.655E-05 0.734E-01   0.101E-02 -.753E-05 -.133E-02
   -.638E+01 0.112E-06 0.349E+03   0.661E+01 -.108E-14 -.356E+03   -.204E+00 -.405E-05 0.648E+01   -.499E-03 0.406E-05 -.109E-02
   0.422E+01 0.186E-04 0.465E+03   -.354E+01 0.819E-15 -.469E+03   -.677E+00 -.112E-04 0.398E+01   0.384E-03 -.985E-05 -.205E-02
   0.638E+01 -.159E-04 -.349E+03   -.661E+01 0.679E-15 0.356E+03   0.203E+00 0.163E-04 -.648E+01   -.160E-03 0.293E-05 0.944E-04
   -.422E+01 0.455E-05 -.465E+03   0.354E+01 -.285E-14 0.469E+03   0.677E+00 -.525E-05 -.398E+01   0.135E-03 0.485E-05 0.167E-02
 -----------------------------------------------------------------------------------------------
   0.184E-03 0.967E-05 0.270E-02   0.622E-14 0.765E-14 0.000E+00   -.627E-03 -.605E-05 0.135E-02   0.384E-03 -.621E-05 -.343E-02
 
 
 POSITION                                       TOTAL-FORCE (eV/Angst)
 -----------------------------------------------------------------------------------
      0.00000      0.00000     10.14277         0.031766     -0.000007     -0.009354
      2.32903      1.70000     10.31864        -0.031869     -0.000000      0.009038
      3.92404      0.00000      8.74052         0.018047      0.000001     -0.028859
      0.67433      1.70000      8.16202         0.005522     -0.000002     -0.034757
      4.79499      1.70000     11.72089        -0.018265      0.000004      0.029344
      1.65470      0.00000     12.29939        -0.005201      0.000005      0.034589
 -----------------------------------------------------------------------------------
    total drift:                               -0.000058     -0.000003      0.000618


--------------------------------------------------------------------------------------------------------



  FREE ENERGIE OF THE ION-ELECTRON SYSTEM (eV)
  ---------------------------------------------------
  free  energy   TOTEN  =       -35.93928548 eV

  energy  without entropy=      -35.94578047  energy(sigma->0) =      -35.94145048
 


--------------------------------------------------------------------------------------------------------


    POTLOK:  cpu time    0.0193: real time    0.0194


--------------------------------------------------------------------------------------------------------


 writing wavefunctions
     LOOP+:  cpu time    6.0769: real time    7.9943
    4ORBIT:  cpu time    0.0000: real time    0.0000

 total amount of memory used by VASP MPI-rank0    44065. kBytes
=======================================================================

   base      :      30000. kBytes
   nonl-proj :       4895. kBytes
   fftplans  :       2331. kBytes
   grid      :       3753. kBytes
   one-center:         31. kBytes
   wavefun   :       3055. kBytes
 
  
  
 General timing and accounting informations for this job:
 ========================================================
  
                  Total CPU time used (sec):        7.046
                            User time (sec):        6.805
                          System time (sec):        0.241
                         Elapsed time (sec):       11.179
  
                   Maximum memory used (kb):      169200.
                   Average memory used (kb):           0.
  
                          Minor page faults:        54247
                          Major page faults:          135
                 Voluntary context switches:         3435
