2H-MoS2-46x30
8280 	 atoms 
2  atom types
0.0       252.4393061451272  xlo xhi
0.0      94.898588865352053  ylo yhi
0.0                      20  zlo zhi


Atoms 

     1   1   0.0                       0                       0      9.9986014964060761
     2   1   0.0      2.7412209619247583      1.5833293515833058      9.9951533751190329
     3   2  -0.0     0.90830572924643305       1.586255819928857      8.4066210583906056
     4   2  -0.0      3.6705297344350081      3.1632700240352221      8.4029480183138556
     5   2  -0.0     0.91295989503716601      1.5823505575108967       11.59045505365887
     6   2  -0.0      3.6632192142459226   0.0047503703355162609      11.587038018449483
     7   1   0.0                       0      3.1632862955117349      9.9986014964060761
     8   1   0.0      2.7412209619247583      4.7466156470950409      9.9951533751190329
     9   2  -0.0     0.90830572924643305      4.7495421154405921      8.4066210583906056
    10   2  -0.0      3.6705297344350081       6.326556319546957      8.4029480183138556
    11   2  -0.0     0.91295989503716601      4.7456368530226314       11.59045505365887
    12   2  -0.0      3.6632192142459226      3.1680366658472514      11.587038018449483
    13   1   0.0                       0      6.3265725910234698      9.9986014964060761
    14   1   0.0      2.7412209619247583      7.9099019426067763      9.9951533751190329
    15   2  -0.0     0.90830572924643305      7.9128284109523266      8.4066210583906056
    16   2  -0.0      3.6705297344350081      9.4898426150586914      8.4029480183138556
    17   2  -0.0     0.91295989503716601      7.9089231485343667       11.59045505365887
    18   2  -0.0      3.6632192142459226      6.3313229613589863      11.587038018449483
    19   1   0.0                       0      9.4898588865352043      9.9986014964060761
    20   1   0.0      2.7412209619247583       11.07318823811851      9.9951533751190329
    21   2  -0.0     0.90830572924643305      11.076114706464061      8.4066210583906056
    22   2  -0.0      3.6705297344350081      12.653128910570427      8.4029480183138556
    23   2  -0.0     0.91295989503716601      11.072209444046102       11.59045505365887
    24   2  -0.0      3.6632192142459226      9.4946092568707208      11.587038018449483
    25   1   0.0                       0       12.65314518204694      9.9986014964060761
    26   1   0.0      2.7412209619247583      14.236474533630245      9.9951533751190329
    27   2  -0.0     0.90830572924643305      14.239401001975796      8.4066210583906056
    28   2  -0.0      3.6705297344350081      15.816415206082162      8.4029480183138556
    29   2  -0.0     0.91295989503716601      14.235495739557837       11.59045505365887
    30   2  -0.0      3.6632192142459226      12.657895552382456      11.587038018449483
    31   1   0.0                       0      15.816431477558675      9.9986014964060761
    32   1   0.0      2.7412209619247583      17.399760829141982      9.9951533751190329
    33   2  -0.0     0.90830572924643305      17.402687297487535      8.4066210583906056
    34   2  -0.0      3.6705297344350081      18.979701501593897      8.4029480183138556
    35   2  -0.0     0.91295989503716601      17.398782035069573       11.59045505365887
    36   2  -0.0      3.6632192142459226      15.821181847894191      11.587038018449483
    37   1   0.0                       0      18.979717773070409      9.9986014964060761
    38   1   0.0      2.7412209619247583      20.563047124653714      9.9951533751190329
    39   2  -0.0     0.90830572924643305      20.565973592999267      8.4066210583906056
    40   2  -0.0      3.6705297344350081      22.142987797105633      8.4029480183138556
    41   2  -0.0     0.91295989503716601      20.562068330581305       11.59045505365887
    42   2  -0.0      3.6632192142459226      18.984468143405927      11.587038018449483
    43   1   0.0                       0      22.143004068582147      9.9986014964060761
    44   1   0.0      2.7412209619247583      23.726333420165453      9.9951533751190329
    45   2  -0.0     0.90830572924643305      23.729259888511006      8.4066210583906056
    46   2  -0.0      3.6705297344350081      25.306274092617368      8.4029480183138556
    47   2  -0.0     0.91295989503716601      23.725354626093043       11.59045505365887
    48   2  -0.0      3.6632192142459226      22.147754438917666      11.587038018449483
    49   1   0.0                       0      25.306290364093879      9.9986014964060761
    50   1   0.0      2.7412209619247583      26.889619715677185      9.9951533751190329
    51   2  -0.0     0.90830572924643305      26.892546184022738      8.4066210583906056
    52   2  -0.0      3.6705297344350081      28.469560388129104      8.4029480183138556
    53   2  -0.0     0.91295989503716601      26.888640921604775       11.59045505365887
    54   2  -0.0      3.6632192142459226      25.311040734429398      11.587038018449483
    55   1   0.0                       0      28.469576659605615      9.9986014964060761
    56   1   0.0      2.7412209619247583       30.05290601118892      9.9951533751190329
    57   2  -0.0     0.90830572924643305      30.055832479534473      8.4066210583906056
    58   2  -0.0      3.6705297344350081      31.632846683640835      8.4029480183138556
    59   2  -0.0     0.91295989503716601      30.051927217116511       11.59045505365887
    60   2  -0.0      3.6632192142459226      28.474327029941133      11.587038018449483
    61   1   0.0                       0       31.63286295511735      9.9986014964060761
    62   1   0.0      2.7412209619247583      33.216192306700655      9.9951533751190329
    63   2  -0.0     0.90830572924643305      33.219118775046212      8.4066210583906056
    64   2  -0.0      3.6705297344350081      34.796132979152574      8.4029480183138556
    65   2  -0.0     0.91295989503716601      33.215213512628246       11.59045505365887
    66   2  -0.0      3.6632192142459226      31.637613325452868      11.587038018449483
    67   1   0.0                       0      34.796149250629085      9.9986014964060761
    68   1   0.0      2.7412209619247583      36.379478602212394      9.9951533751190329
    69   2  -0.0     0.90830572924643305      36.382405070557944      8.4066210583906056
    70   2  -0.0      3.6705297344350081      37.959419274664313      8.4029480183138556
    71   2  -0.0     0.91295989503716601      36.378499808139978       11.59045505365887
    72   2  -0.0      3.6632192142459226      34.800899620964607      11.587038018449483
    73   1   0.0                       0      37.959435546140817      9.9986014964060761
    74   1   0.0      2.7412209619247583      39.542764897724126      9.9951533751190329
    75   2  -0.0     0.90830572924643305      39.545691366069676      8.4066210583906056
    76   2  -0.0      3.6705297344350081      41.122705570176038      8.4029480183138556
    77   2  -0.0     0.91295989503716601       39.54178610365171       11.59045505365887
    78   2  -0.0      3.6632192142459226      37.964185916476339      11.587038018449483
    79   1   0.0                       0      41.122721841652556      9.9986014964060761
    80   1   0.0      2.7412209619247583      42.706051193235858      9.9951533751190329
    81   2  -0.0     0.90830572924643305      42.708977661581415      8.4066210583906056
    82   2  -0.0      3.6705297344350081      44.285991865687777      8.4029480183138556
    83   2  -0.0     0.91295989503716601      42.705072399163448       11.59045505365887
    84   2  -0.0      3.6632192142459226      41.127472211988071      11.587038018449483
    85   1   0.0                       0      44.286008137164295      9.9986014964060761
    86   1   0.0      2.7412209619247583      45.869337488747597      9.9951533751190329
    87   2  -0.0     0.90830572924643305      45.872263957093153      8.4066210583906056
    88   2  -0.0      3.6705297344350081      47.449278161199516      8.4029480183138556
    89   2  -0.0     0.91295989503716601      45.868358694675187       11.59045505365887
    90   2  -0.0      3.6632192142459226       44.29075850749981      11.587038018449483
    91   1   0.0                       0       47.44929443267602      9.9986014964060761
    92   1   0.0      2.7412209619247583      49.032623784259329      9.9951533751190329
    93   2  -0.0     0.90830572924643305      49.035550252604878      8.4066210583906056
    94   2  -0.0      3.6705297344350081      50.612564456711247      8.4029480183138556
    95   2  -0.0     0.91295989503716601      49.031644990186919       11.59045505365887
    96   2  -0.0      3.6632192142459226      47.454044803011541      11.587038018449483
    97   1   0.0                       0      50.612580728187758      9.9986014964060761
    98   1   0.0      2.7412209619247583      52.195910079771068      9.9951533751190329
    99   2  -0.0     0.90830572924643305      52.198836548116617      8.4066210583906056
   100   2  -0.0      3.6705297344350081      53.775850752222979      8.4029480183138556
   101   2  -0.0     0.91295989503716601      52.194931285698651       11.59045505365887
   102   2  -0.0      3.6632192142459226       50.61733109852328      11.587038018449483
   103   1   0.0                       0      53.775867023699497      9.9986014964060761
   104   1   0.0      2.7412209619247583      55.359196375282799      9.9951533751190329
   105   2  -0.0     0.90830572924643305      55.362122843628356      8.4066210583906056
   106   2  -0.0      3.6705297344350081      56.939137047734718      8.4029480183138556
   107   2  -0.0     0.91295989503716601       55.35821758121039       11.59045505365887
   108   2  -0.0      3.6632192142459226      53.780617394035012      11.587038018449483
   109   1   0.0                       0      56.939153319211229      9.9986014964060761
   110   1   0.0      2.7412209619247583      58.522482670794531      9.9951533751190329
   111   2  -0.0     0.90830572924643305      58.525409139140088      8.4066210583906056
   112   2  -0.0      3.6705297344350081       60.10242334324645      8.4029480183138556
   113   2  -0.0     0.91295989503716601      58.521503876722122       11.59045505365887
   114   2  -0.0      3.6632192142459226      56.943903689546744      11.587038018449483
   115   1   0.0                       0      60.102439614722961      9.9986014964060761
   116   1   0.0      2.7412209619247583       61.68576896630627      9.9951533751190329
   117   2  -0.0     0.90830572924643305      61.688695434651819      8.4066210583906056
   118   2  -0.0      3.6705297344350081      63.265709638758189      8.4029480183138556
   119   2  -0.0     0.91295989503716601      61.684790172233861       11.59045505365887
   120   2  -0.0      3.6632192142459226      60.107189985058483      11.587038018449483
   121   1   0.0                       0        63.2657259102347      9.9986014964060761
   122   1   0.0      2.7412209619247583      64.849055261818009      9.9951533751190329
   123   2  -0.0     0.90830572924643305      64.851981730163558      8.4066210583906056
   124   2  -0.0      3.6705297344350081      66.428995934269921      8.4029480183138556
   125   2  -0.0     0.91295989503716601      64.848076467745599       11.59045505365887
   126   2  -0.0      3.6632192142459226      63.270476280570222      11.587038018449483
   127   1   0.0                       0      66.429012205746432      9.9986014964060761
   128   1   0.0      2.7412209619247583      68.012341557329734      9.9951533751190329
   129   2  -0.0     0.90830572924643305      68.015268025675283      8.4066210583906056
   130   2  -0.0      3.6705297344350081      69.592282229781659      8.4029480183138556
   131   2  -0.0     0.91295989503716601      68.011362763257324       11.59045505365887
   132   2  -0.0      3.6632192142459226      66.433762576081946      11.587038018449483
   133   1   0.0                       0      69.592298501258171      9.9986014964060761
   134   1   0.0      2.7412209619247583      71.175627852841487      9.9951533751190329
   135   2  -0.0     0.90830572924643305      71.178554321187036      8.4066210583906056
   136   2  -0.0      3.6705297344350081      72.755568525293398      8.4029480183138556
   137   2  -0.0     0.91295989503716601      71.174649058769063       11.59045505365887
   138   2  -0.0      3.6632192142459226      69.597048871593685      11.587038018449483
   139   1   0.0                       0      72.755584796769909      9.9986014964060761
   140   1   0.0      2.7412209619247583      74.338914148353211      9.9951533751190329
   141   2  -0.0     0.90830572924643305      74.341840616698761      8.4066210583906056
   142   2  -0.0      3.6705297344350081      75.918854820805123      8.4029480183138556
   143   2  -0.0     0.91295989503716601      74.337935354280802       11.59045505365887
   144   2  -0.0      3.6632192142459226       72.76033516710541      11.587038018449483
   145   1   0.0                       0      75.918871092281634      9.9986014964060761
   146   1   0.0      2.7412209619247583      77.502200443864936      9.9951533751190329
   147   2  -0.0     0.90830572924643305        77.5051269122105      8.4066210583906056
   148   2  -0.0      3.6705297344350081      79.082141116316862      8.4029480183138556
   149   2  -0.0     0.91295989503716601      77.501221649792527       11.59045505365887
   150   2  -0.0      3.6632192142459226      75.923621462617149      11.587038018449483
   151   1   0.0                       0      79.082157387793373      9.9986014964060761
   152   1   0.0      2.7412209619247583      80.665486739376689      9.9951533751190329
   153   2  -0.0     0.90830572924643305      80.668413207722239      8.4066210583906056
   154   2  -0.0      3.6705297344350081      82.245427411828601      8.4029480183138556
   155   2  -0.0     0.91295989503716601       80.66450794530428       11.59045505365887
   156   2  -0.0      3.6632192142459226      79.086907758128888      11.587038018449483
   157   1   0.0                       0      82.245443683305112      9.9986014964060761
   158   1   0.0      2.7412209619247583      83.828773034888414      9.9951533751190329
   159   2  -0.0     0.90830572924643305      83.831699503233963      8.4066210583906056
   160   2  -0.0      3.6705297344350081      85.408713707340326      8.4029480183138556
   161   2  -0.0     0.91295989503716601      83.827794240816004       11.59045505365887
   162   2  -0.0      3.6632192142459226      82.250194053640627      11.587038018449483
   163   1   0.0                       0      85.408729978816837      9.9986014964060761
   164   1   0.0      2.7412209619247583      86.992059330400153      9.9951533751190329
   165   2  -0.0     0.90830572924643305      86.994985798745702      8.4066210583906056
   166   2  -0.0      3.6705297344350081      88.572000002852064      8.4029480183138556
   167   2  -0.0     0.91295989503716601      86.991080536327729       11.59045505365887
   168   2  -0.0      3.6632192142459226      85.413480349152351      11.587038018449483
   169   1   0.0                       0       88.57201627432859      9.9986014964060761
   170   1   0.0      2.7412209619247583      90.155345625911892      9.9951533751190329
   171   2  -0.0     0.90830572924643305      90.158272094257441      8.4066210583906056
   172   2  -0.0      3.6705297344350081      91.735286298363803      8.4029480183138556
   173   2  -0.0     0.91295989503716601      90.154366831839482       11.59045505365887
   174   2  -0.0      3.6632192142459226       88.57676664466409      11.587038018449483
   175   1   0.0                       0      91.735302569840314      9.9986014964060761
   176   1   0.0      2.7412209619247583      93.318631921423616      9.9951533751190329
   177   2  -0.0     0.90830572924643305       93.32155838976918      8.4066210583906056
   178   2  -0.0      3.6705297344350081      94.898572593875542      8.4029480183138556
   179   2  -0.0     0.91295989503716601      93.317653127351207       11.59045505365887
   180   2  -0.0      3.6632192142459226      91.740052940175829      11.587038018449483
   181   1   0.0      5.4878110031549392                       0      9.9986014964060761
   182   1   0.0      8.2290319650796988      1.5833293515833058      9.9951533751190329
   183   2  -0.0      6.3961167324013726       1.586255819928857      8.4066210583906056
   184   2  -0.0       9.158340737589949      3.1632700240352221      8.4029480183138556
   185   2  -0.0      6.4007708981921052      1.5823505575108967       11.59045505365887
   186   2  -0.0      9.1510302174008604   0.0047503703355162609      11.587038018449483
   187   1   0.0      5.4878110031549392      3.1632862955117349      9.9986014964060761
   188   1   0.0      8.2290319650796988      4.7466156470950409      9.9951533751190329
   189   2  -0.0      6.3961167324013726      4.7495421154405921      8.4066210583906056
   190   2  -0.0       9.158340737589949       6.326556319546957      8.4029480183138556
   191   2  -0.0      6.4007708981921052      4.7456368530226314       11.59045505365887
   192   2  -0.0      9.1510302174008604      3.1680366658472514      11.587038018449483
   193   1   0.0      5.4878110031549392      6.3265725910234698      9.9986014964060761
   194   1   0.0      8.2290319650796988      7.9099019426067763      9.9951533751190329
   195   2  -0.0      6.3961167324013726      7.9128284109523266      8.4066210583906056
   196   2  -0.0       9.158340737589949      9.4898426150586914      8.4029480183138556
   197   2  -0.0      6.4007708981921052      7.9089231485343667       11.59045505365887
   198   2  -0.0      9.1510302174008604      6.3313229613589863      11.587038018449483
   199   1   0.0      5.4878110031549392      9.4898588865352043      9.9986014964060761
   200   1   0.0      8.2290319650796988       11.07318823811851      9.9951533751190329
   201   2  -0.0      6.3961167324013726      11.076114706464061      8.4066210583906056
   202   2  -0.0       9.158340737589949      12.653128910570427      8.4029480183138556
   203   2  -0.0      6.4007708981921052      11.072209444046102       11.59045505365887
   204   2  -0.0      9.1510302174008604      9.4946092568707208      11.587038018449483
   205   1   0.0      5.4878110031549392       12.65314518204694      9.9986014964060761
   206   1   0.0      8.2290319650796988      14.236474533630245      9.9951533751190329
   207   2  -0.0      6.3961167324013726      14.239401001975796      8.4066210583906056
   208   2  -0.0       9.158340737589949      15.816415206082162      8.4029480183138556
   209   2  -0.0      6.4007708981921052      14.235495739557837       11.59045505365887
   210   2  -0.0      9.1510302174008604      12.657895552382456      11.587038018449483
   211   1   0.0      5.4878110031549392      15.816431477558675      9.9986014964060761
   212   1   0.0      8.2290319650796988      17.399760829141982      9.9951533751190329
   213   2  -0.0      6.3961167324013726      17.402687297487535      8.4066210583906056
   214   2  -0.0       9.158340737589949      18.979701501593897      8.4029480183138556
   215   2  -0.0      6.4007708981921052      17.398782035069573       11.59045505365887
   216   2  -0.0      9.1510302174008604      15.821181847894191      11.587038018449483
   217   1   0.0      5.4878110031549392      18.979717773070409      9.9986014964060761
   218   1   0.0      8.2290319650796988      20.563047124653714      9.9951533751190329
   219   2  -0.0      6.3961167324013726      20.565973592999267      8.4066210583906056
   220   2  -0.0       9.158340737589949      22.142987797105633      8.4029480183138556
   221   2  -0.0      6.4007708981921052      20.562068330581305       11.59045505365887
   222   2  -0.0      9.1510302174008604      18.984468143405927      11.587038018449483
   223   1   0.0      5.4878110031549392      22.143004068582147      9.9986014964060761
   224   1   0.0      8.2290319650796988      23.726333420165453      9.9951533751190329
   225   2  -0.0      6.3961167324013726      23.729259888511006      8.4066210583906056
   226   2  -0.0       9.158340737589949      25.306274092617368      8.4029480183138556
   227   2  -0.0      6.4007708981921052      23.725354626093043       11.59045505365887
   228   2  -0.0      9.1510302174008604      22.147754438917666      11.587038018449483
   229   1   0.0      5.4878110031549392      25.306290364093879      9.9986014964060761
   230   1   0.0      8.2290319650796988      26.889619715677185      9.9951533751190329
   231   2  -0.0      6.3961167324013726      26.892546184022738      8.4066210583906056
   232   2  -0.0       9.158340737589949      28.469560388129104      8.4029480183138556
   233   2  -0.0      6.4007708981921052      26.888640921604775       11.59045505365887
   234   2  -0.0      9.1510302174008604      25.311040734429398      11.587038018449483
   235   1   0.0      5.4878110031549392      28.469576659605615      9.9986014964060761
   236   1   0.0      8.2290319650796988       30.05290601118892      9.9951533751190329
   237   2  -0.0      6.3961167324013726      30.055832479534473      8.4066210583906056
   238   2  -0.0       9.158340737589949      31.632846683640835      8.4029480183138556
   239   2  -0.0      6.4007708981921052      30.051927217116511       11.59045505365887
   240   2  -0.0      9.1510302174008604      28.474327029941133      11.587038018449483
   241   1   0.0      5.4878110031549392       31.63286295511735      9.9986014964060761
   242   1   0.0      8.2290319650796988      33.216192306700655      9.9951533751190329
   243   2  -0.0      6.3961167324013726      33.219118775046212      8.4066210583906056
   244   2  -0.0       9.158340737589949      34.796132979152574      8.4029480183138556
   245   2  -0.0      6.4007708981921052      33.215213512628246       11.59045505365887
   246   2  -0.0      9.1510302174008604      31.637613325452868      11.587038018449483
   247   1   0.0      5.4878110031549392      34.796149250629085      9.9986014964060761
   248   1   0.0      8.2290319650796988      36.379478602212394      9.9951533751190329
   249   2  -0.0      6.3961167324013726      36.382405070557944      8.4066210583906056
   250   2  -0.0       9.158340737589949      37.959419274664313      8.4029480183138556
   251   2  -0.0      6.4007708981921052      36.378499808139978       11.59045505365887
   252   2  -0.0      9.1510302174008604      34.800899620964607      11.587038018449483
   253   1   0.0      5.4878110031549392      37.959435546140817      9.9986014964060761
   254   1   0.0      8.2290319650796988      39.542764897724126      9.9951533751190329
   255   2  -0.0      6.3961167324013726      39.545691366069676      8.4066210583906056
   256   2  -0.0       9.158340737589949      41.122705570176038      8.4029480183138556
   257   2  -0.0      6.4007708981921052       39.54178610365171       11.59045505365887
   258   2  -0.0      9.1510302174008604      37.964185916476339      11.587038018449483
   259   1   0.0      5.4878110031549392      41.122721841652556      9.9986014964060761
   260   1   0.0      8.2290319650796988      42.706051193235858      9.9951533751190329
   261   2  -0.0      6.3961167324013726      42.708977661581415      8.4066210583906056
   262   2  -0.0       9.158340737589949      44.285991865687777      8.4029480183138556
   263   2  -0.0      6.4007708981921052      42.705072399163448       11.59045505365887
   264   2  -0.0      9.1510302174008604      41.127472211988071      11.587038018449483
   265   1   0.0      5.4878110031549392      44.286008137164295      9.9986014964060761
   266   1   0.0      8.2290319650796988      45.869337488747597      9.9951533751190329
   267   2  -0.0      6.3961167324013726      45.872263957093153      8.4066210583906056
   268   2  -0.0       9.158340737589949      47.449278161199516      8.4029480183138556
   269   2  -0.0      6.4007708981921052      45.868358694675187       11.59045505365887
   270   2  -0.0      9.1510302174008604       44.29075850749981      11.587038018449483
   271   1   0.0      5.4878110031549392       47.44929443267602      9.9986014964060761
   272   1   0.0      8.2290319650796988      49.032623784259329      9.9951533751190329
   273   2  -0.0      6.3961167324013726      49.035550252604878      8.4066210583906056
   274   2  -0.0       9.158340737589949      50.612564456711247      8.4029480183138556
   275   2  -0.0      6.4007708981921052      49.031644990186919       11.59045505365887
   276   2  -0.0      9.1510302174008604      47.454044803011541      11.587038018449483
   277   1   0.0      5.4878110031549392      50.612580728187758      9.9986014964060761
   278   1   0.0      8.2290319650796988      52.195910079771068      9.9951533751190329
   279   2  -0.0      6.3961167324013726      52.198836548116617      8.4066210583906056
   280   2  -0.0       9.158340737589949      53.775850752222979      8.4029480183138556
   281   2  -0.0      6.4007708981921052      52.194931285698651       11.59045505365887
   282   2  -0.0      9.1510302174008604       50.61733109852328      11.587038018449483
   283   1   0.0      5.4878110031549392      53.775867023699497      9.9986014964060761
   284   1   0.0      8.2290319650796988      55.359196375282799      9.9951533751190329
   285   2  -0.0      6.3961167324013726      55.362122843628356      8.4066210583906056
   286   2  -0.0       9.158340737589949      56.939137047734718      8.4029480183138556
   287   2  -0.0      6.4007708981921052       55.35821758121039       11.59045505365887
   288   2  -0.0      9.1510302174008604      53.780617394035012      11.587038018449483
   289   1   0.0      5.4878110031549392      56.939153319211229      9.9986014964060761
   290   1   0.0      8.2290319650796988      58.522482670794531      9.9951533751190329
   291   2  -0.0      6.3961167324013726      58.525409139140088      8.4066210583906056
   292   2  -0.0       9.158340737589949       60.10242334324645      8.4029480183138556
   293   2  -0.0      6.4007708981921052      58.521503876722122       11.59045505365887
   294   2  -0.0      9.1510302174008604      56.943903689546744      11.587038018449483
   295   1   0.0      5.4878110031549392      60.102439614722961      9.9986014964060761
   296   1   0.0      8.2290319650796988       61.68576896630627      9.9951533751190329
   297   2  -0.0      6.3961167324013726      61.688695434651819      8.4066210583906056
   298   2  -0.0       9.158340737589949      63.265709638758189      8.4029480183138556
   299   2  -0.0      6.4007708981921052      61.684790172233861       11.59045505365887
   300   2  -0.0      9.1510302174008604      60.107189985058483      11.587038018449483
   301   1   0.0      5.4878110031549392        63.2657259102347      9.9986014964060761
   302   1   0.0      8.2290319650796988      64.849055261818009      9.9951533751190329
   303   2  -0.0      6.3961167324013726      64.851981730163558      8.4066210583906056
   304   2  -0.0       9.158340737589949      66.428995934269921      8.4029480183138556
   305   2  -0.0      6.4007708981921052      64.848076467745599       11.59045505365887
   306   2  -0.0      9.1510302174008604      63.270476280570222      11.587038018449483
   307   1   0.0      5.4878110031549392      66.429012205746432      9.9986014964060761
   308   1   0.0      8.2290319650796988      68.012341557329734      9.9951533751190329
   309   2  -0.0      6.3961167324013726      68.015268025675283      8.4066210583906056
   310   2  -0.0       9.158340737589949      69.592282229781659      8.4029480183138556
   311   2  -0.0      6.4007708981921052      68.011362763257324       11.59045505365887
   312   2  -0.0      9.1510302174008604      66.433762576081946      11.587038018449483
   313   1   0.0      5.4878110031549392      69.592298501258171      9.9986014964060761
   314   1   0.0      8.2290319650796988      71.175627852841487      9.9951533751190329
   315   2  -0.0      6.3961167324013726      71.178554321187036      8.4066210583906056
   316   2  -0.0       9.158340737589949      72.755568525293398      8.4029480183138556
   317   2  -0.0      6.4007708981921052      71.174649058769063       11.59045505365887
   318   2  -0.0      9.1510302174008604      69.597048871593685      11.587038018449483
   319   1   0.0      5.4878110031549392      72.755584796769909      9.9986014964060761
   320   1   0.0      8.2290319650796988      74.338914148353211      9.9951533751190329
   321   2  -0.0      6.3961167324013726      74.341840616698761      8.4066210583906056
   322   2  -0.0       9.158340737589949      75.918854820805123      8.4029480183138556
   323   2  -0.0      6.4007708981921052      74.337935354280802       11.59045505365887
   324   2  -0.0      9.1510302174008604       72.76033516710541      11.587038018449483
   325   1   0.0      5.4878110031549392      75.918871092281634      9.9986014964060761
   326   1   0.0      8.2290319650796988      77.502200443864936      9.9951533751190329
   327   2  -0.0      6.3961167324013726        77.5051269122105      8.4066210583906056
   328   2  -0.0       9.158340737589949      79.082141116316862      8.4029480183138556
   329   2  -0.0      6.4007708981921052      77.501221649792527       11.59045505365887
   330   2  -0.0      9.1510302174008604      75.923621462617149      11.587038018449483
   331   1   0.0      5.4878110031549392      79.082157387793373      9.9986014964060761
   332   1   0.0      8.2290319650796988      80.665486739376689      9.9951533751190329
   333   2  -0.0      6.3961167324013726      80.668413207722239      8.4066210583906056
   334   2  -0.0       9.158340737589949      82.245427411828601      8.4029480183138556
   335   2  -0.0      6.4007708981921052       80.66450794530428       11.59045505365887