ITEM: TIMESTEP
0
ITEM: NUMBER OF ATOMS
8280
ITEM: BOX BOUNDS pp pp pp
0 252.4393061451272
0 94.89858886535205
0 20.0
ITEM: ATOMS id type xs ys zs
1 1 0.000000 0.000000 0.504588
2 1 0.010916 0.016681 0.495417
3 2 0.006910 0.000016 0.419102
4 2 0.018472 0.016696 0.421717
5 2 0.004006 0.016697 0.580895
6 2 0.014183 0.000015 0.578280
7 1 0.000000 0.033333 0.504588
8 1 0.010916 0.050014 0.495417
9 2 0.006910 0.033349 0.419102
10 2 0.018472 0.050029 0.421717
11 2 0.004006 0.050030 0.580895
12 2 0.014183 0.033348 0.578280
13 1 0.000000 0.066667 0.504588
14 1 0.010916 0.083348 0.495417
15 2 0.006910 0.066682 0.419102
16 2 0.018472 0.083363 0.421717
17 2 0.004006 0.083364 0.580895
18 2 0.014183 0.066681 0.578280
19 1 0.000000 0.100000 0.504588
20 1 0.010916 0.116681 0.495417
21 2 0.006910 0.100016 0.419102
22 2 0.018472 0.116696 0.421717
23 2 0.004006 0.116697 0.580895
24 2 0.014183 0.100015 0.578280
25 1 0.000000 0.133333 0.504588
26 1 0.010916 0.150014 0.495417
27 2 0.006910 0.133349 0.419102
28 2 0.018472 0.150029 0.421717
29 2 0.004006 0.150030 0.580895
30 2 0.014183 0.133348 0.578280
31 1 0.000000 0.166667 0.504588
32 1 0.010916 0.183348 0.495417
33 2 0.006910 0.166682 0.419102
34 2 0.018472 0.183363 0.421717
35 2 0.004006 0.183364 0.580895
36 2 0.014183 0.166681 0.578280
37 1 0.000000 0.200000 0.504588
38 1 0.010916 0.216681 0.495417
39 2 0.006910 0.200016 0.419102
40 2 0.018472 0.216696 0.421717
41 2 0.004006 0.216697 0.580895
42 2 0.014183 0.200015 0.578280
43 1 0.000000 0.233333 0.504588
44 1 0.010916 0.250014 0.495417
45 2 0.006910 0.233349 0.419102
46 2 0.018472 0.250029 0.421717
47 2 0.004006 0.250030 0.580895
48 2 0.014183 0.233348 0.578280
49 1 0.000000 0.266667 0.504588
50 1 0.010916 0.283348 0.495417
51 2 0.006910 0.266682 0.419102
52 2 0.018472 0.283363 0.421717
53 2 0.004006 0.283364 0.580895
54 2 0.014183 0.266681 0.578280
55 1 0.000000 0.300000 0.504588
56 1 0.010916 0.316681 0.495417
57 2 0.006910 0.300016 0.419102
58 2 0.018472 0.316696 0.421717
59 2 0.004006 0.316697 0.580895
60 2 0.014183 0.300015 0.578280
61 1 0.000000 0.333333 0.504588
62 1 0.010916 0.350014 0.495417
63 2 0.006910 0.333349 0.419102
64 2 0.018472 0.350029 0.421717
65 2 0.004006 0.350030 0.580895
66 2 0.014183 0.333348 0.578280
67 1 0.000000 0.366667 0.504588
68 1 0.010916 0.383348 0.495417
69 2 0.006910 0.366682 0.419102
70 2 0.018472 0.383363 0.421717
71 2 0.004006 0.383364 0.580895
72 2 0.014183 0.366681 0.578280
73 1 0.000000 0.400000 0.504588
74 1 0.010916 0.416681 0.495417
75 2 0.006910 0.400016 0.419102
76 2 0.018472 0.416696 0.421717
77 2 0.004006 0.416697 0.580895
78 2 0.014183 0.400015 0.578280
79 1 0.000000 0.433333 0.504588
80 1 0.010916 0.450014 0.495417
81 2 0.006910 0.433349 0.419102
82 2 0.018472 0.450029 0.421717
83 2 0.004006 0.450030 0.580895
84 2 0.014183 0.433348 0.578280
85 1 0.000000 0.466667 0.504588
86 1 0.010916 0.483348 0.495417
87 2 0.006910 0.466682 0.419102
88 2 0.018472 0.483363 0.421717
89 2 0.004006 0.483364 0.580895
90 2 0.014183 0.466681 0.578280
91 1 0.000000 0.500000 0.504588
92 1 0.010916 0.516681 0.495417
93 2 0.006910 0.500016 0.419102
94 2 0.018472 0.516696 0.421717
95 2 0.004006 0.516697 0.580895
96 2 0.014183 0.500015 0.578280
97 1 0.000000 0.533333 0.504588
98 1 0.010916 0.550014 0.495417
99 2 0.006910 0.533349 0.419102
100 2 0.018472 0.550029 0.421717
101 2 0.004006 0.550030 0.580895
102 2 0.014183 0.533348 0.578280
103 1 0.000000 0.566667 0.504588
104 1 0.010916 0.583348 0.495417
105 2 0.006910 0.566682 0.419102
106 2 0.018472 0.583363 0.421717
107 2 0.004006 0.583364 0.580895
108 2 0.014183 0.566681 0.578280
109 1 0.000000 0.600000 0.504588
110 1 0.010916 0.616681 0.495417
111 2 0.006910 0.600016 0.419102
112 2 0.018472 0.616696 0.421717
113 2 0.004006 0.616697 0.580895
114 2 0.014183 0.600015 0.578280
115 1 0.000000 0.633333 0.504588
116 1 0.010916 0.650014 0.495417
117 2 0.006910 0.633349 0.419102
118 2 0.018472 0.650029 0.421717
119 2 0.004006 0.650030 0.580895
120 2 0.014183 0.633348 0.578280
121 1 0.000000 0.666667 0.504588
122 1 0.010916 0.683348 0.495417
123 2 0.006910 0.666682 0.419102
124 2 0.018472 0.683363 0.421717
125 2 0.004006 0.683364 0.580895
126 2 0.014183 0.666681 0.578280
127 1 0.000000 0.700000 0.504588
128 1 0.010916 0.716681 0.495417
129 2 0.006910 0.700016 0.419102
130 2 0.018472 0.716696 0.421717
131 2 0.004006 0.716697 0.580895
132 2 0.014183 0.700015 0.578280
133 1 0.000000 0.733333 0.504588
134 1 0.010916 0.750014 0.495417
135 2 0.006910 0.733349 0.419102
136 2 0.018472 0.750029 0.421717
137 2 0.004006 0.750030 0.580895
138 2 0.014183 0.733348 0.578280
139 1 0.000000 0.766667 0.504588
140 1 0.010916 0.783348 0.495417
141 2 0.006910 0.766682 0.419102
142 2 0.018472 0.783363 0.421717
143 2 0.004006 0.783364 0.580895
144 2 0.014183 0.766681 0.578280
145 1 0.000000 0.800000 0.504588
146 1 0.010916 0.816681 0.495417
147 2 0.006910 0.800016 0.419102
148 2 0.018472 0.816696 0.421717
149 2 0.004006 0.816697 0.580895
150 2 0.014183 0.800015 0.578280
151 1 0.000000 0.833333 0.504588
152 1 0.010916 0.850014 0.495417
153 2 0.006910 0.833349 0.419102
154 2 0.018472 0.850029 0.421717
155 2 0.004006 0.850030 0.580895
156 2 0.014183 0.833348 0.578280
157 1 0.000000 0.866667 0.504588
158 1 0.010916 0.883348 0.495417
159 2 0.006910 0.866682 0.419102
160 2 0.018472 0.883363 0.421717
161 2 0.004006 0.883364 0.580895
162 2 0.014183 0.866681 0.578280
163 1 0.000000 0.900000 0.504588
164 1 0.010916 0.916681 0.495417
165 2 0.006910 0.900016 0.419102
166 2 0.018472 0.916696 0.421717
167 2 0.004006 0.916697 0.580895
168 2 0.014183 0.900015 0.578280
169 1 0.000000 0.933333 0.504588
170 1 0.010916 0.950014 0.495417
171 2 0.006910 0.933349 0.419102
172 2 0.018472 0.950029 0.421717
173 2 0.004006 0.950030 0.580895
174 2 0.014183 0.933348 0.578280
175 1 0.000000 0.966667 0.504588
176 1 0.010916 0.983348 0.495417
177 2 0.006910 0.966682 0.419102
178 2 0.018472 0.983363 0.421717
179 2 0.004006 0.983364 0.580895
180 2 0.014183 0.966681 0.578280
181 1 0.021739 0.000000 0.504588
182 1 0.032656 0.016681 0.495417
183 2 0.028650 0.000016 0.419102
184 2 0.040211 0.016696 0.421717
185 2 0.025745 0.016697 0.580895
186 2 0.035923 0.000015 0.578280
187 1 0.021739 0.033333 0.504588
188 1 0.032656 0.050014 0.495417
189 2 0.028650 0.033349 0.419102
190 2 0.040211 0.050029 0.421717
191 2 0.025745 0.050030 0.580895
192 2 0.035923 0.033348 0.578280
193 1 0.021739 0.066667 0.504588
194 1 0.032656 0.083348 0.495417
195 2 0.028650 0.066682 0.419102
196 2 0.040211 0.083363 0.421717
197 2 0.025745 0.083364 0.580895
198 2 0.035923 0.066681 0.578280
199 1 0.021739 0.100000 0.504588
200 1 0.032656 0.116681 0.495417
201 2 0.028650 0.100016 0.419102
202 2 0.040211 0.116696 0.421717
203 2 0.025745 0.116697 0.580895
204 2 0.035923 0.100015 0.578280
205 1 0.021739 0.133333 0.504588
206 1 0.032656 0.150014 0.495417
207 2 0.028650 0.133349 0.419102
208 2 0.040211 0.150029 0.421717
209 2 0.025745 0.150030 0.580895
210 2 0.035923 0.133348 0.578280
211 1 0.021739 0.166667 0.504588
212 1 0.032656 0.183348 0.495417
213 2 0.028650 0.166682 0.419102
214 2 0.040211 0.183363 0.421717
215 2 0.025745 0.183364 0.580895
216 2 0.035923 0.166681 0.578280
217 1 0.021739 0.200000 0.504588
218 1 0.032656 0.216681 0.495417
219 2 0.028650 0.200016 0.419102
220 2 0.040211 0.216696 0.421717
221 2 0.025745 0.216697 0.580895
222 2 0.035923 0.200015 0.578280
223 1 0.021739 0.233333 0.504588
224 1 0.032656 0.250014 0.495417
225 2 0.028650 0.233349 0.419102
226 2 0.040211 0.250029 0.421717
227 2 0.025745 0.250030 0.580895
228 2 0.035923 0.233348 0.578280
229 1 0.021739 0.266667 0.504588
230 1 0.032656 0.283348 0.495417
231 2 0.028650 0.266682 0.419102
232 2 0.040211 0.283363 0.421717
233 2 0.025745 0.283364 0.580895
234 2 0.035923 0.266681 0.578280
235 1 0.021739 0.300000 0.504588
236 1 0.032656 0.316681 0.495417
237 2 0.028650 0.300016 0.419102
238 2 0.040211 0.316696 0.421717
239 2 0.025745 0.316697 0.580895
240 2 0.035923 0.300015 0.578280
241 1 0.021739 0.333333 0.504588
242 1 0.032656 0.350014 0.495417
243 2 0.028650 0.333349 0.419102
244 2 0.040211 0.350029 0.421717
245 2 0.025745 0.350030 0.580895
246 2 0.035923 0.333348 0.578280
247 1 0.021739 0.366667 0.504588
248 1 0.032656 0.383348 0.495417
249 2 0.028650 0.366682 0.419102
250 2 0.040211 0.383363 0.421717
251 2 0.025745 0.383364 0.580895
252 2 0.035923 0.366681 0.578280
253 1 0.021739 0.400000 0.504588
254 1 0.032656 0.416681 0.495417
255 2 0.028650 0.400016 0.419102
256 2 0.040211 0.416696 0.421717
257 2 0.025745 0.416697 0.580895
258 2 0.035923 0.400015 0.578280
259 1 0.021739 0.433333 0.504588
260 1 0.032656 0.450014 0.495417
261 2 0.028650 0.433349 0.419102
262 2 0.040211 0.450029 0.421717
263 2 0.025745 0.450030 0.580895
264 2 0.035923 0.433348 0.578280
265 1 0.021739 0.466667 0.504588
266 1 0.032656 0.483348 0.495417
267 2 0.028650 0.466682 0.419102
268 2 0.040211 0.483363 0.421717
269 2 0.025745 0.483364 0.580895
270 2 0.035923 0.466681 0.578280
271 1 0.021739 0.500000 0.504588
272 1 0.032656 0.516681 0.495417
273 2 0.028650 0.500016 0.419102
274 2 0.040211 0.516696 0.421717
275 2 0.025745 0.516697 0.580895
276 2 0.035923 0.500015 0.578280
277 1 0.021739 0.533333 0.504588
278 1 0.032656 0.550014 0.495417
279 2 0.028650 0.533349 0.419102
280 2 0.040211 0.550029 0.421717
281 2 0.025745 0.550030 0.580895
282 2 0.035923 0.533348 0.578280
283 1 0.021739 0.566667 0.504588
284 1 0.032656 0.583348 0.495417
285 2 0.028650 0.566682 0.419102
286 2 0.040211 0.583363 0.421717
287 2 0.025745 0.583364 0.580895
288 2 0.035923 0.566681 0.578280
289 1 0.021739 0.600000 0.504588
290 1 0.032656 0.616681 0.495417
291 2 0.028650 0.600016 0.419102
292 2 0.040211 0.616696 0.421717
293 2 0.025745 0.616697 0.580895
294 2 0.035923 0.600015 0.578280
295 1 0.021739 0.633333 0.504588
296 1 0.032656 0.650014 0.495417
297 2 0.028650 0.633349 0.419102
298 2 0.040211 0.650029 0.421717
299 2 0.025745 0.650030 0.580895
300 2 0.035923 0.633348 0.578280
301 1 0.021739 0.666667 0.504588
302 1 0.032656 0.683348 0.495417
303 2 0.028650 0.666682 0.419102
304 2 0.040211 0.683363 0.421717
305 2 0.025745 0.683364 0.580895
306 2 0.035923 0.666681 0.578280
307 1 0.021739 0.700000 0.504588
308 1 0.032656 0.716681 0.495417
309 2 0.028650 0.700016 0.419102
310 2 0.040211 0.716696 0.421717
311 2 0.025745 0.716697 0.580895
312 2 0.035923 0.700015 0.578280
313 1 0.021739 0.733333 0.504588
314 1 0.032656 0.750014 0.495417
315 2 0.028650 0.733349 0.419102
316 2 0.040211 0.750029 0.421717
317 2 0.025745 0.750030 0.580895
318 2 0.035923 0.733348 0.578280
319 1 0.021739 0.766667 0.504588
320 1 0.032656 0.783348 0.495417
321 2 0.028650 0.766682 0.419102
322 2 0.040211 0.783363 0.421717
323 2 0.025745 0.783364 0.580895
324 2 0.035923 0.766681 0.578280
325 1 0.021739 0.800000 0.504588
326 1 0.032656 0.816681 0.495417
327 2 0.028650 0.800016 0.419102
328 2 0.040211 0.816696 0.421717
329 2 0.025745 0.816697 0.580895
330 2 0.035923 0.800015 0.578280
331 1 0.021739 0.833333 0.504588
332 1 0.032656 0.850014 0.495417
333 2 0.028650 0.833349 0.419102
334 2 0.040211 0.850029 0.421717
335 2 0.025745 0.850030 0.580895
336 2 0.035923 0.833348 0.578280
337 1 0.021739 0.866667 0.504588
338 1 0.032656 0.883348 0.495417
339 2 0.028650 0.866682 0.419102
340 2 0.040211 0.883363 0.421717
341 2 0.025745 0.883364 0.580895
342 2 0.035923 0.866681 0.578280
343 1 0.021739 0.900000 0.504588
344 1 0.032656 0.916681 0.495417
345 2 0.028650 0.900016 0.419102
346 2 0.040211 0.916696 0.421717
347 2 0.025745 0.916697 0.580895
348 2 0.035923 0.900015 0.578280
349 1 0.021739 0.933333 0.504588
350 1 0.032656 0.950014 0.495417
351 2 0.028650 0.933349 0.419102
352 2 0.040211 0.950029 0.421717
353 2 0.025745 0.950030 0.580895
354 2 0.035923 0.933348 0.578280
355 1 0.021739 0.966667 0.504588
356 1 0.032656 0.983348 0.495417
357 2 0.028650 0.966682 0.419102
358 2 0.040211 0.983363 0.421717
359 2 0.025745 0.983364 0.580895
360 2 0.035923 0.966681 0.578280
361 1 0.043478 0.000000 0.504588
362 1 0.054395 0.016681 0.495417
363 2 0.050389 0.000016 0.419102
364 2 0.061950 0.016696 0.421717
365 2 0.047484 0.016697 0.580895
366 2 0.057662 0.000015 0.578280
367 1 0.043478 0.033333 0.504588
368 1 0.054395 0.050014 0.495417
369 2 0.050389 0.033349 0.419102
370 2 0.061950 0.050029 0.421717
371 2 0.047484 0.050030 0.580895
372 2 0.057662 0.033348 0.578280
373 1 0.043478 0.066667 0.504588
374 1 0.054395 0.083348 0.495417
375 2 0.050389 0.066682 0.419102
376 2 0.061950 0.083363 0.421717
377 2 0.047484 0.083364 0.580895
378 2 0.057662 0.066681 0.578280
379 1 0.043478 0.100000 0.504588
380 1 0.054395 0.116681 0.495417
381 2 0.050389 0.100016 0.419102
382 2 0.061950 0.116696 0.421717
383 2 0.047484 0.116697 0.580895
384 2 0.057662 0.100015 0.578280
385 1 0.043478 0.133333 0.504588
386 1 0.054395 0.150014 0.495417
387 2 0.050389 0.133349 0.419102
388 2 0.061950 0.150029 0.421717
389 2 0.047484 0.150030 0.580895
390 2 0.057662 0.133348 0.578280
391 1 0.043478 0.166667 0.504588
392 1 0.054395 0.183348 0.495417
393 2 0.050389 0.166682 0.419102
394 2 0.061950 0.183363 0.421717
395 2 0.047484 0.183364 0.580895
396 2 0.057662 0.166681 0.578280
397 1 0.043478 0.200000 0.504588
398 1 0.054395 0.216681 0.495417
399 2 0.050389 0.200016 0.419102
400 2 0.061950 0.216696 0.421717
401 2 0.047484 0.216697 0.580895
402 2 0.057662 0.200015 0.578280
403 1 0.043478 0.233333 0.504588
404 1 0.054395 0.250014 0.495417
405 2 0.050389 0.233349 0.419102
406 2 0.061950 0.250029 0.421717
407 2 0.047484 0.250030 0.580895
408 2 0.057662 0.233348 0.578280
409 1 0.043478 0.266667 0.504588
410 1 0.054395 0.283348 0.495417
411 2 0.050389 0.266682 0.419102
412 2 0.061950 0.283363 0.421717
413 2 0.047484 0.283364 0.580895
414 2 0.057662 0.266681 0.578280
415 1 0.043478 0.300000 0.504588
416 1 0.054395 0.316681 0.495417
417 2 0.050389 0.300016 0.419102
418 2 0.061950 0.316696 0.421717
419 2 0.047484 0.316697 0.580895
420 2 0.057662 0.300015 0.578280
421 1 0.043478 0.333333 0.504588
422 1 0.054395 0.350014 0.495417
423 2 0.050389 0.333349 0.419102
424 2 0.061950 0.350029 0.421717
425 2 0.047484 0.350030 0.580895
426 2 0.057662 0.333348 0.578280
427 1 0.043478 0.366667 0.504588
428 1 0.054395 0.383348 0.495417
429 2 0.050389 0.366682 0.419102
430 2 0.061950 0.383363 0.421717
431 2 0.047484 0.383364 0.580895
432 2 0.057662 0.366681 0.578280
433 1 0.043478 0.400000 0.504588
434 1 0.054395 0.416681 0.495417
435 2 0.050389 0.400016 0.419102
436 2 0.061950 0.416696 0.421717
437 2 0.047484 0.416697 0.580895
438 2 0.057662 0.400015 0.578280
439 1 0.043478 0.433333 0.504588
440 1 0.054395 0.450014 0.495417
441 2 0.050389 0.433349 0.419102
442 2 0.061950 0.450029 0.421717
443 2 0.047484 0.450030 0.580895
444 2 0.057662 0.433348 0.578280
445 1 0.043478 0.466667 0.504588
446 1 0.054395 0.483348 0.495417
447 2 0.050389 0.466682 0.419102
448 2 0.061950 0.483363 0.421717
449 2 0.047484 0.483364 0.580895
450 2 0.057662 0.466681 0.578280
451 1 0.043478 0.500000 0.504588
452 1 0.054395 0.516681 0.495417
453 2 0.050389 0.500016 0.419102
454 2 0.061950 0.516696 0.421717
455 2 0.047484 0.516697 0.580895
456 2 0.057662 0.500015 0.578280
457 1 0.043478 0.533333 0.504588
458 1 0.054395 0.550014 0.495417
459 2 0.050389 0.533349 0.419102
460 2 0.061950 0.550029 0.421717
461 2 0.047484 0.550030 0.580895
462 2 0.057662 0.533348 0.578280
463 1 0.043478 0.566667 0.504588
464 1 0.054395 0.583348 0.495417
465 2 0.050389 0.566682 0.419102
466 2 0.061950 0.583363 0.421717
467 2 0.047484 0.583364 0.580895
468 2 0.057662 0.566681 0.578280
469 1 0.043478 0.600000 0.504588
470 1 0.054395 0.616681 0.495417
471 2 0.050389 0.600016 0.419102
472 2 0.061950 0.616696 0.421717
473 2 0.047484 0.616697 0.580895
474 2 0.057662 0.600015 0.578280
475 1 0.043478 0.633333 0.504588
476 1 0.054395 0.650014 0.495417
477 2 0.050389 0.633349 0.419102
478 2 0.061950 0.650029 0.421717
479 2 0.047484 0.650030 0.580895
480 2 0.057662 0.633348 0.578280
481 1 0.043478 0.666667 0.504588
482 1 0.054395 0.683348 0.495417
483 2 0.050389 0.666682 0.419102
484 2 0.061950 0.683363 0.421717
485 2 0.047484 0.683364 0.580895
486 2 0.057662 0.666681 0.578280
487 1 0.043478 0.700000 0.504588
488 1 0.054395 0.716681 0.495417
489 2 0.050389 0.700016 0.419102
490 2 0.061950 0.716696 0.421717
491 2 0.047484 0.716697 0.580895
492 2 0.057662 0.700015 0.578280
493 1 0.043478 0.733333 0.504588
494 1 0.054395 0.750014 0.495417
495 2 0.050389 0.733349 0.419102
496 2 0.061950 0.750029 0.421717
497 2 0.047484 0.750030 0.580895
498 2 0.057662 0.733348 0.578280
499 1 0.043478 0.766667 0.504588
500 1 0.054395 0.783348 0.495417
501 2 0.050389 0.766682 0.419102
502 2 0.061950 0.783363 0.421717
503 2 0.047484 0.783364 0.580895
504 2 0.057662 0.766681 0.578280
505 1 0.043478 0.800000 0.504588
506 1 0.054395 0.816681 0.495417
507 2 0.050389 0.800016 0.419102
508 2 0.061950 0.816696 0.421717
509 2 0.047484 0.816697 0.580895
510 2 0.057662 0.800015 0.578280
511 1 0.043478 0.833333 0.504588
512 1 0.054395 0.850014 0.495417
513 2 0.050389 0.833349 0.419102
514 2 0.061950 0.850029 0.421717
515 2 0.047484 0.850030 0.580895
516 2 0.057662 0.833348 0.578280
517 1 0.043478 0.866667 0.504588
518 1 0.054395 0.883348 0.495417
519 2 0.050389 0.866682 0.419102
520 2 0.061950 0.883363 0.421717
521 2 0.047484 0.883364 0.580895
522 2 0.057662 0.866681 0.578280
523 1 0.043478 0.900000 0.504588
524 1 0.054395 0.916681 0.495417
525 2 0.050389 0.900016 0.419102
526 2 0.061950 0.916696 0.421717
527 2 0.047484 0.916697 0.580895
528 2 0.057662 0.900015 0.578280
529 1 0.043478 0.933333 0.504588
530 1 0.054395 0.950014 0.495417
531 2 0.050389 0.933349 0.419102
532 2 0.061950 0.950029 0.421717
533 2 0.047484 0.950030 0.580895
534 2 0.057662 0.933348 0.578280
535 1 0.043478 0.966667 0.504588
536 1 0.054395 0.983348 0.495417
537 2 0.050389 0.966682 0.419102
538 2 0.061950 0.983363 0.421717
539 2 0.047484 0.983364 0.580895
540 2 0.057662 0.966681 0.578280
541 1 0.065217 0.000000 0.504588
542 1 0.076134 0.016681 0.495417
543 2 0.072128 0.000016 0.419102
544 2 0.083690 0.016696 0.421717
545 2 0.069223 0.016697 0.580895
546 2 0.079401 0.000015 0.578280
547 1 0.065217 0.033333 0.504588
548 1 0.076134 0.050014 0.495417
549 2 0.072128 0.033349 0.419102
550 2 0.083690 0.050029 0.421717
551 2 0.069223 0.050030 0.580895
552 2 0.079401 0.033348 0.578280
553 1 0.065217 0.066667 0.504588
554 1 0.076134 0.083348 0.495417
555 2 0.072128 0.066682 0.419102
556 2 0.083690 0.083363 0.421717
557 2 0.069223 0.083364 0.580895
558 2 0.079401 0.066681 0.578280
559 1 0.065217 0.100000 0.504588
560 1 0.076134 0.116681 0.495417
561 2 0.072128 0.100016 0.419102
562 2 0.083690 0.116696 0.421717
563 2 0.069223 0.116697 0.580895
564 2 0.079401 0.100015 0.578280
565 1 0.065217 0.133333 0.504588
566 1 0.076134 0.150014 0.495417
567 2 0.072128 0.133349 0.419102
568 2 0.083690 0.150029 0.421717
569 2 0.069223 0.150030 0.580895
570 2 0.079401 0.133348 0.578280
571 1 0.065217 0.166667 0.504588
572 1 0.076134 0.183348 0.495417
573 2 0.072128 0.166682 0.419102
574 2 0.083690 0.183363 0.421717
575 2 0.069223 0.183364 0.580895
576 2 0.079401 0.166681 0.578280
577 1 0.065217 0.200000 0.504588
578 1 0.076134 0.216681 0.495417
579 2 0.072128 0.200016 0.419102
580 2 0.083690 0.216696 0.421717
581 2 0.069223 0.216697 0.580895
582 2 0.079401 0.200015 0.578280
583 1 0.065217 0.233333 0.504588
584 1 0.076134 0.250014 0.495417
585 2 0.072128 0.233349 0.419102
586 2 0.083690 0.250029 0.421717
587 2 0.069223 0.250030 0.580895
588 2 0.079401 0.233348 0.578280
589 1 0.065217 0.266667 0.504588
590 1 0.076134 0.283348 0.495417
591 2 0.072128 0.266682 0.419102
592 2 0.083690 0.283363 0.421717
593 2 0.069223 0.283364 0.580895
594 2 0.079401 0.266681 0.578280
595 1 0.065217 0.300000 0.504588
596 1 0.076134 0.316681 0.495417
597 2 0.072128 0.300016 0.419102
598 2 0.083690 0.316696 0.421717
599 2 0.069223 0.316697 0.580895
600 2 0.079401 0.300015 0.578280
601 1 0.065217 0.333333 0.504588
602 1 0.076134 0.350014 0.495417
603 2 0.072128 0.333349 0.419102
604 2 0.083690 0.350029 0.421717
605 2 0.069223 0.350030 0.580895
606 2 0.079401 0.333348 0.578280
607 1 0.065217 0.366667 0.504588
608 1 0.076134 0.383348 0.495417
609 2 0.072128 0.366682 0.419102
610 2 0.083690 0.383363 0.421717
611 2 0.069223 0.383364 0.580895
612 2 0.079401 0.366681 0.578280
613 1 0.065217 0.400000 0.504588
614 1 0.076134 0.416681 0.495417
615 2 0.072128 0.400016 0.419102
616 2 0.083690 0.416696 0.421717
617 2 0.069223 0.416697 0.580895
618 2 0.079401 0.400015 0.578280
619 1 0.065217 0.433333 0.504588
620 1 0.076134 0.450014 0.495417
621 2 0.072128 0.433349 0.419102
622 2 0.083690 0.450029 0.421717
623 2 0.069223 0.450030 0.580895
624 2 0.079401 0.433348 0.578280
625 1 0.065217 0.466667 0.504588
626 1 0.076134 0.483348 0.495417
627 2 0.072128 0.466682 0.419102
628 2 0.083690 0.483363 0.421717
629 2 0.069223 0.483364 0.580895
630 2 0.079401 0.466681 0.578280
631 1 0.065217 0.500000 0.504588
632 1 0.076134 0.516681 0.495417
633 2 0.072128 0.500016 0.419102
634 2 0.083690 0.516696 0.421717
635 2 0.069223 0.516697 0.580895
636 2 0.079401 0.500015 0.578280
637 1 0.065217 0.533333 0.504588
638 1 0.076134 0.550014 0.495417
639 2 0.072128 0.533349 0.419102
640 2 0.083690 0.550029 0.421717
641 2 0.069223 0.550030 0.580895
642 2 0.079401 0.533348 0.578280
643 1 0.065217 0.566667 0.504588
644 1 0.076134 0.583348 0.495417
645 2 0.072128 0.566682 0.419102
646 2 0.083690 0.583363 0.421717
647 2 0.069223 0.583364 0.580895
648 2 0.079401 0.566681 0.578280
649 1 0.065217 0.600000 0.504588
650 1 0.076134 0.616681 0.495417
651 2 0.072128 0.600016 0.419102
652 2 0.083690 0.616696 0.421717
653 2 0.069223 0.616697 0.580895
654 2 0.079401 0.600015 0.578280
655 1 0.065217 0.633333 0.504588
656 1 0.076134 0.650014 0.495417
657 2 0.072128 0.633349 0.419102
658 2 0.083690 0.650029 0.421717
659 2 0.069223 0.650030 0.580895
660 2 0.079401 0.633348 0.578280
661 1 0.065217 0.666667 0.504588
662 1 0.076134 0.683348 0.495417
663 2 0.072128 0.666682 0.419102
664 2 0.083690 0.683363 0.421717
665 2 0.069223 0.683364 0.580895
666 2 0.079401 0.666681 0.578280
667 1 0.065217 0.700000 0.504588
668 1 0.076134 0.716681 0.495417
669 2 0.072128 0.700016 0.419102
670 2 0.083690 0.716696 0.421717
671 2 0.069223 0.716697 0.580895
672 2 0.079401 0.700015 0.578280
673 1 0.065217 0.733333 0.504588
674 1 0.076134 0.750014 0.495417
675 2 0.072128 0.733349 0.419102
676 2 0.083690 0.750029 0.421717
677 2 0.069223 0.750030 0.580895
678 2 0.079401 0.733348 0.578280
679 1 0.065217 0.766667 0.504588
680 1 0.076134 0.783348 0.495417
681 2 0.072128 0.766682 0.419102
682 2 0.083690 0.783363 0.421717
683 2 0.069223 0.783364 0.580895
684 2 0.079401 0.766681 0.578280
685 1 0.065217 0.800000 0.504588
686 1 0.076134 0.816681 0.495417
687 2 0.072128 0.800016 0.419102
688 2 0.083690 0.816696 0.421717
689 2 0.069223 0.816697 0.580895
690 2 0.079401 0.800015 0.578280
691 1 0.065217 0.833333 0.504588
692 1 0.076134 0.850014 0.495417
693 2 0.072128 0.833349 0.419102
694 2 0.083690 0.850029 0.421717
695 2 0.069223 0.850030 0.580895
696 2 0.079401 0.833348 0.578280
697 1 0.065217 0.866667 0.504588
698 1 0.076134 0.883348 0.495417
699 2 0.072128 0.866682 0.419102
700 2 0.083690 0.883363 0.421717
701 2 0.069223 0.883364 0.580895
702 2 0.079401 0.866681 0.578280
703 1 0.065217 0.900000 0.504588
704 1 0.076134 0.916681 0.495417
705 2 0.072128 0.900016 0.419102
706 2 0.083690 0.916696 0.421717
707 2 0.069223 0.916697 0.580895
708 2 0.079401 0.900015 0.578280
709 1 0.065217 0.933333 0.504588
710 1 0.076134 0.950014 0.495417
711 2 0.072128 0.933349 0.419102
712 2 0.083690 0.950029 0.421717
713 2 0.069223 0.950030 0.580895
714 2 0.079401 0.933348 0.578280
715 1 0.065217 0.966667 0.504588
716 1 0.076134 0.983348 0.495417
717 2 0.072128 0.966682 0.419102
718 2 0.083690 0.983363 0.421717
719 2 0.069223 0.983364 0.580895
720 2 0.079401 0.966681 0.578280
721 1 0.086957 0.000000 0.504588
722 1 0.097873 0.016681 0.495417
723 2 0.093867 0.000016 0.419102
724 2 0.105429 0.016696 0.421717
725 2 0.090962 0.016697 0.580895
726 2 0.101140 0.000015 0.578280
727 1 0.086957 0.033333 0.504588
728 1 0.097873 0.050014 0.495417
729 2 0.093867 0.033349 0.419102
730 2 0.105429 0.050029 0.421717
731 2 0.090962 0.050030 0.580895
732 2 0.101140 0.033348 0.578280
733 1 0.086957 0.066667 0.504588
734 1 0.097873 0.083348 0.495417
735 2 0.093867 0.066682 0.419102
736 2 0.105429 0.083363 0.421717
737 2 0.090962 0.083364 0.580895
738 2 0.101140 0.066681 0.578280
739 1 0.086957 0.100000 0.504588
740 1 0.097873 0.116681 0.495417
741 2 0.093867 0.100016 0.419102
742 2 0.105429 0.116696 0.421717
743 2 0.090962 0.116697 0.580895
744 2 0.101140 0.100015 0.578280
745 1 0.086957 0.133333 0.504588
746 1 0.097873 0.150014 0.495417
747 2 0.093867 0.133349 0.419102
748 2 0.105429 0.150029 0.421717
749 2 0.090962 0.150030 0.580895
750 2 0.101140 0.133348 0.578280
751 1 0.086957 0.166667 0.504588
752 1 0.097873 0.183348 0.495417
753 2 0.093867 0.166682 0.419102
754 2 0.105429 0.183363 0.421717
755 2 0.090962 0.183364 0.580895
756 2 0.101140 0.166681 0.578280
757 1 0.086957 0.200000 0.504588
758 1 0.097873 0.216681 0.495417
759 2 0.093867 0.200016 0.419102
760 2 0.105429 0.216696 0.421717
761 2 0.090962 0.216697 0.580895
762 2 0.101140 0.200015 0.578280
763 1 0.086957 0.233333 0.504588
764 1 0.097873 0.250014 0.495417
765 2 0.093867 0.233349 0.419102
766 2 0.105429 0.250029 0.421717
767 2 0.090962 0.250030 0.580895
768 2 0.101140 0.233348 0.578280
769 1 0.086957 0.266667 0.504588
770 1 0.097873 0.283348 0.495417
771 2 0.093867 0.266682 0.419102
772 2 0.105429 0.283363 0.421717
773 2 0.090962 0.283364 0.580895
774 2 0.101140 0.266681 0.578280
775 1 0.086957 0.300000 0.504588
776 1 0.097873 0.316681 0.495417
777 2 0.093867 0.300016 0.419102
778 2 0.105429 0.316696 0.421717
779 2 0.090962 0.316697 0.580895
780 2 0.101140 0.300015 0.578280
781 1 0.086957 0.333333 0.504588
782 1 0.097873 0.350014 0.495417
783 2 0.093867 0.333349 0.419102
784 2 0.105429 0.350029 0.421717
785 2 0.090962 0.350030 0.580895
786 2 0.101140 0.333348 0.578280
787 1 0.086957 0.366667 0.504588
788 1 0.097873 0.383348 0.495417
789 2 0.093867 0.366682 0.419102
790 2 0.105429 0.383363 0.421717
791 2 0.090962 0.383364 0.580895
792 2 0.101140 0.366681 0.578280
793 1 0.086957 0.400000 0.504588
794 1 0.097873 0.416681 0.495417
795 2 0.093867 0.400016 0.419102
796 2 0.105429 0.416696 0.421717
797 2 0.090962 0.416697 0.580895
798 2 0.101140 0.400015 0.578280
799 1 0.086957 0.433333 0.504588
800 1 0.097873 0.450014 0.495417
801 2 0.093867 0.433349 0.419102
802 2 0.105429 0.450029 0.421717
803 2 0.090962 0.450030 0.580895
804 2 0.101140 0.433348 0.578280
805 1 0.086957 0.466667 0.504588
806 1 0.097873 0.483348 0.495417
807 2 0.093867 0.466682 0.419102
808 2 0.105429 0.483363 0.421717
809 2 0.090962 0.483364 0.580895
810 2 0.101140 0.466681 0.578280
811 1 0.086957 0.500000 0.504588
812 1 0.097873 0.516681 0.495417
813 2 0.093867 0.500016 0.419102
814 2 0.105429 0.516696 0.421717
815 2 0.090962 0.516697 0.580895
816 2 0.101140 0.500015 0.578280
817 1 0.086957 0.533333 0.504588
818 1 0.097873 0.550014 0.495417
819 2 0.093867 0.533349 0.419102
820 2 0.105429 0.550029 0.421717
821 2 0.090962 0.550030 0.580895
822 2 0.101140 0.533348 0.578280
823 1 0.086957 0.566667 0.504588
824 1 0.097873 0.583348 0.495417
825 2 0.093867 0.566682 0.419102
826 2 0.105429 0.583363 0.421717
827 2 0.090962 0.583364 0.580895
828 2 0.101140 0.566681 0.578280
829 1 0.086957 0.600000 0.504588
830 1 0.097873 0.616681 0.495417
831 2 0.093867 0.600016 0.419102
832 2 0.105429 0.616696 0.421717
833 2 0.090962 0.616697 0.580895
834 2 0.101140 0.600015 0.578280
835 1 0.086957 0.633333 0.504588
836 1 0.097873 0.650014 0.495417
837 2 0.093867 0.633349 0.419102
838 2 0.105429 0.650029 0.421717
839 2 0.090962 0.650030 0.580895
840 2 0.101140 0.633348 0.578280
841 1 0.086957 0.666667 0.504588
842 1 0.097873 0.683348 0.495417
843 2 0.093867 0.666682 0.419102
844 2 0.105429 0.683363 0.421717
845 2 0.090962 0.683364 0.580895
846 2 0.101140 0.666681 0.578280
847 1 0.086957 0.700000 0.504588
848 1 0.097873 0.716681 0.495417
849 2 0.093867 0.700016 0.419102
850 2 0.105429 0.716696 0.421717
851 2 0.090962 0.716697 0.580895
852 2 0.101140 0.700015 0.578280
853 1 0.086957 0.733333 0.504588
854 1 0.097873 0.750014 0.495417
855 2 0.093867 0.733349 0.419102
856 2 0.105429 0.750029 0.421717
857 2 0.090962 0.750030 0.580895
858 2 0.101140 0.733348 0.578280
859 1 0.086957 0.766667 0.504588
860 1 0.097873 0.783348 0.495417
861 2 0.093867 0.766682 0.419102
862 2 0.105429 0.783363 0.421717
863 2 0.090962 0.783364 0.580895
864 2 0.101140 0.766681 0.578280
865 1 0.086957 0.800000 0.504588
866 1 0.097873 0.816681 0.495417
867 2 0.093867 0.800016 0.419102
868 2 0.105429 0.816696 0.421717
869 2 0.090962 0.816697 0.580895
870 2 0.101140 0.800015 0.578280
871 1 0.086957 0.833333 0.504588
872 1 0.097873 0.850014 0.495417
873 2 0.093867 0.833349 0.419102
874 2 0.105429 0.850029 0.421717
875 2 0.090962 0.850030 0.580895
876 2 0.101140 0.833348 0.578280
877 1 0.086957 0.866667 0.504588
878 1 0.097873 0.883348 0.495417
879 2 0.093867 0.866682 0.419102
880 2 0.105429 0.883363 0.421717
881 2 0.090962 0.883364 0.580895
882 2 0.101140 0.866681 0.578280
883 1 0.086957 0.900000 0.504588
884 1 0.097873 0.916681 0.495417
885 2 0.093867 0.900016 0.419102
886 2 0.105429 0.916696 0.421717
887 2 0.090962 0.916697 0.580895
888 2 0.101140 0.900015 0.578280
889 1 0.086957 0.933333 0.504588
890 1 0.097873 0.950014 0.495417
891 2 0.093867 0.933349 0.419102
892 2 0.105429 0.950029 0.421717
893 2 0.090962 0.950030 0.580895
894 2 0.101140 0.933348 0.578280
895 1 0.086957 0.966667 0.504588
896 1 0.097873 0.983348 0.495417
897 2 0.093867 0.966682 0.419102
898 2 0.105429 0.983363 0.421717
899 2 0.090962 0.983364 0.580895
900 2 0.101140 0.966681 0.578280
901 1 0.108696 0.000000 0.504588
902 1 0.119612 0.016681 0.495417
903 2 0.115606 0.000016 0.419102
904 2 0.127168 0.016696 0.421717
905 2 0.112702 0.016697 0.580895
906 2 0.122879 0.000015 0.578280
907 1 0.108696 0.033333 0.504588