Automatically generated mesh
      25
Reciprocal lattice
    0.10000000000000    0.10000000000000    0.00000000000000             1
    0.30000000000000    0.10000000000000    0.00000000000000             1
    0.50000000000000    0.10000000000000    0.00000000000000             1
   -0.30000000000000    0.10000000000001    0.00000000000000             1
   -0.10000000000000    0.10000000000001    0.00000000000000             1
    0.10000000000000    0.30000000000000    0.00000000000000             1
    0.30000000000000    0.30000000000000    0.00000000000000             1
    0.50000000000000    0.30000000000000    0.00000000000000             1
   -0.30000000000000    0.30000000000001    0.00000000000000             1
   -0.10000000000000    0.30000000000001    0.00000000000000             1
    0.10000000000000    0.50000000000000    0.00000000000000             1
    0.30000000000000    0.50000000000000    0.00000000000000             1
    0.50000000000000    0.50000000000000    0.00000000000000             1
   -0.30000000000000    0.50000000000001    0.00000000000000             1
   -0.10000000000000    0.50000000000002    0.00000000000000             1
    0.10000000000000   -0.30000000000000    0.00000000000000             1
    0.30000000000000   -0.30000000000000    0.00000000000000             1
    0.50000000000000   -0.30000000000000    0.00000000000000             1
   -0.30000000000000   -0.29999999999999    0.00000000000000             1
   -0.10000000000000   -0.29999999999999    0.00000000000000             1
    0.10000000000000   -0.10000000000000    0.00000000000000             1
    0.30000000000000   -0.10000000000000    0.00000000000000             1
    0.50000000000000   -0.10000000000000    0.00000000000000             1
   -0.30000000000000   -0.09999999999999    0.00000000000000             1
   -0.10000000000000   -0.09999999999999    0.00000000000000             1
