 running on  192 total cores
 distrk:  each k-point on  192 cores,    1 groups
 distr:  one band on   24 cores,    8 groups
 using from now: INCAR     
 vasp.5.4.4.18Apr17-6-g9f103f2a35 (build Oct 01 2024 10:11:53) complex          
  
 POSCAR found type information on POSCAR  Mo S  Te
 POSCAR found :  3 types and       6 ions
 scaLAPACK will be used
 LDA part: xc-table for Pade appr. of Perdew
 WARNING: stress and forces are not correct
 POSCAR, INCAR and KPOINTS ok, starting setup
 FFT: planning ...
 WAVECAR not read
 charge-density read from file: unknown                                 
 WARNING: random wavefunctions but no delay for mixing, default for NELMDL
 entering main loop
       N       E                     dE             d eps       ncg     rms          rms(c)
DAV:   1     0.262010616382E+03    0.26201E+03   -0.12958E+04  3840   0.124E+03
DAV:   2    -0.551444342712E+01   -0.26753E+03   -0.25883E+03  6096   0.206E+02
DAV:   3    -0.383062173871E+02   -0.32792E+02   -0.32398E+02  5032   0.820E+01
DAV:   4    -0.393967964147E+02   -0.10906E+01   -0.10856E+01  5800   0.175E+01
DAV:   5    -0.394229277716E+02   -0.26131E-01   -0.26112E-01  5752   0.256E+00
DAV:   6    -0.394234247677E+02   -0.49700E-03   -0.49680E-03  5912   0.316E-01
DAV:   7    -0.394234366761E+02   -0.11908E-04   -0.11908E-04  5784   0.509E-02
DAV:   8    -0.394234370070E+02   -0.33085E-06   -0.33088E-06  6008   0.700E-03
DAV:   9    -0.394234370149E+02   -0.78826E-08   -0.78725E-08  3920   0.120E-03
   1 F= -.39423437E+02 E0= -.39423437E+02  d E =0.000000E+00
