 vasp.5.4.4.18Apr17-6-g9f103f2a35 (build Oct 01 2024 10:11:53) complex          
  
 executed on              Shaheen date 2025.02.19  15:20:10
 running on  192 total cores
 distrk:  each k-point on  192 cores,    1 groups
 distr:  one band on NCORES_PER_BAND=  24 cores,    8 groups


--------------------------------------------------------------------------------------------------------


 INCAR:
 POTCAR:    PAW_PBE Mo 08Apr2002                  
 POTCAR:    PAW_PBE S 06Sep2000                   
 POTCAR:    PAW_PBE Te 08Apr2002                  
 POTCAR:    PAW_PBE Mo 08Apr2002                  
   VRHFIN =Mo: 4p5s4d                                                           
   LEXCH  = PE                                                                  
   EATOM  =   217.5176 eV,   15.9871 Ry                                         
                                                                                
   TITEL  = PAW_PBE Mo 08Apr2002                                                
   LULTRA =        F    use ultrasoft PP ?                                      
   IUNSCR =        1    unscreen: 0-lin 1-nonlin 2-no                           
   RPACOR =    2.200    partial core radius                                     
   POMASS =   95.940; ZVAL   =    6.000    mass and valenz                      
   RCORE  =    2.750    outmost cutoff radius                                   
   RWIGS  =    2.750; RWIGS  =    1.455    wigner-seitz radius (au A)           
   ENMAX  =  224.584; ENMIN  =  168.438 eV                                      
   RCLOC  =    2.111    cutoff for local pot                                    
   LCOR   =        T    correct aug charges                                     
   LPAW   =        T    paw PP                                                  
   EAUG   =  345.278                                                            
   DEXC   =    0.000                                                            
   RMAX   =    2.821    core radius for proj-oper                               
   RAUG   =    1.300    factor for augmentation sphere                          
   RDEP   =    2.815    radius for radial grids                                 
   RDEPT  =    2.211    core radius for aug-charge                              
                                                                                
   Atomic configuration                                                         
   12 entries                                                                   
     n  l   j            E        occ.                                          
     1  0  0.50    -19819.0341   2.0000                                         
     2  0  0.50     -2799.0127   2.0000                                         
     2  1  1.50     -2502.0276   6.0000                                         
     3  0  0.50      -476.4448   2.0000                                         
     3  1  1.50      -379.1496   6.0000                                         
     3  2  2.50      -220.9367  10.0000                                         
     4  0  0.50       -64.3378   2.0000                                         
     4  1  1.50       -38.4773   6.0000                                         
     4  2  2.50        -3.7535   5.0000                                         
     5  0  0.50        -4.0862   1.0000                                         
     5  1  0.50        -2.7701   0.0000                                         
     4  3  2.50        -1.3606   0.0000                                         
   Description                                                                  
     l       E           TYP  RCUT    TYP  RCUT                                 
     2     -3.7534765     23  2.500                                             
     2     -5.1140591     23  2.500                                             
     0     -4.0861560     23  2.600                                             
     0     13.6058260     23  2.600                                             
     1      5.4423304     23  2.750                                             
     1     27.2116520     23  2.750                                             
  local pseudopotential read in
  partial core-charges read in
  partial kinetic energy density read in
  atomic valenz-charges read in
  non local Contribution for L=           2  read in
    real space projection operators read in
  non local Contribution for L=           2  read in
    real space projection operators read in
  non local Contribution for L=           0  read in
    real space projection operators read in
  non local Contribution for L=           0  read in
    real space projection operators read in
  non local Contribution for L=           1  read in
    real space projection operators read in
  non local Contribution for L=           1  read in
    real space projection operators read in
    PAW grid and wavefunctions read in
 
   number of l-projection  operators is LMAX  =           6
   number of lm-projection operators is LMMAX =          18
 
 POTCAR:    PAW_PBE S 06Sep2000                   
   VRHFIN =S : s2p4                                                             
   LEXCH  = PE                                                                  
   EATOM  =   276.8230 eV,   20.3459 Ry                                         
                                                                                
   TITEL  = PAW_PBE S 06Sep2000                                                 
   LULTRA =        F    use ultrasoft PP ?                                      
   IUNSCR =        1    unscreen: 0-lin 1-nonlin 2-no                           
   RPACOR =    1.500    partial core radius                                     
   POMASS =   32.066; ZVAL   =    6.000    mass and valenz                      
   RCORE  =    1.900    outmost cutoff radius                                   
   RWIGS  =    2.200; RWIGS  =    1.164    wigner-seitz radius (au A)           
   ENMAX  =  258.689; ENMIN  =  194.016 eV                                      
   ICORE  =        2    local potential                                         
   LCOR   =        T    correct aug charges                                     
   LPAW   =        T    paw PP                                                  
   EAUG   =  335.092                                                            
   DEXC   =    0.000                                                            
   RMAX   =    1.942    core radius for proj-oper                               
   RAUG   =    1.300    factor for augmentation sphere                          
   RDEP   =    1.954    radius for radial grids                                 
   RDEPT  =    1.744    core radius for aug-charge                              
                                                                                
   Atomic configuration                                                         
    6 entries                                                                   
     n  l   j            E        occ.                                          
     1  0  0.50     -2405.8406   2.0000                                         
     2  0  0.50      -211.7007   2.0000                                         
     2  1  1.50      -156.4958   6.0000                                         
     3  0  0.50       -17.2562   2.0000                                         
     3  1  0.50        -7.0085   4.0000                                         
     3  2  1.50        -6.8029   0.0000                                         
   Description                                                                  
     l       E           TYP  RCUT    TYP  RCUT                                 
     0    -17.2561641     23  1.900                                             
     0    -15.8743224     23  1.900                                             
     1     -7.0085400     23  1.900                                             
     1     -2.7779785     23  1.900                                             
     2     -6.8029130     23  1.900                                             
  local pseudopotential read in
  partial core-charges read in
  partial kinetic energy density read in
  atomic valenz-charges read in
  non local Contribution for L=           0  read in
    real space projection operators read in
  non local Contribution for L=           0  read in
    real space projection operators read in
  non local Contribution for L=           1  read in
    real space projection operators read in
  non local Contribution for L=           1  read in
    real space projection operators read in
    PAW grid and wavefunctions read in
 
   number of l-projection  operators is LMAX  =           4
   number of lm-projection operators is LMMAX =           8
 
 POTCAR:    PAW_PBE Te 08Apr2002                  
   VRHFIN =Te: s2p4                                                             
   LEXCH  = PE                                                                  
   EATOM  =   223.2721 eV,   16.4100 Ry                                         
                                                                                
   TITEL  = PAW_PBE Te 08Apr2002                                                
   LULTRA =        F    use ultrasoft PP ?                                      
   IUNSCR =        1    unscreen: 0-lin 1-nonlin 2-no                           
   RPACOR =    2.200    partial core radius                                     
   POMASS =  127.600; ZVAL   =    6.000    mass and valenz                      
   RCORE  =    2.300    outmost cutoff radius                                   
   RWIGS  =    2.900; RWIGS  =    1.535    wigner-seitz radius (au A)           
   ENMAX  =  174.982; ENMIN  =  131.236 eV                                      
   ICORE  =        3    local potential                                         
   LCOR   =        T    correct aug charges                                     
   LPAW   =        T    paw PP                                                  
   EAUG   =  368.792                                                            
   DEXC   =    0.000                                                            
   RMAX   =    2.345    core radius for proj-oper                               
   RAUG   =    1.300    factor for augmentation sphere                          
   RDEP   =    2.397    radius for radial grids                                 
   RDEPT  =    2.174    core radius for aug-charge                              
                                                                                
   Atomic configuration                                                         
   13 entries                                                                   
     n  l   j            E        occ.                                          
     1  0  0.50    -31621.2075   2.0000                                         
     2  0  0.50     -4848.7941   2.0000                                         
     2  1  1.50     -4352.1960   6.0000                                         
     3  0  0.50      -964.9612   2.0000                                         
     3  1  1.50      -803.6179   6.0000                                         
     3  2  2.50      -559.8710  10.0000                                         
     4  0  0.50      -164.3522   2.0000                                         
     4  1  1.50      -114.3756   6.0000                                         
     4  2  2.50       -41.6483  10.0000                                         
     5  0  0.50       -15.1072   2.0000                                         
     5  1  0.50        -5.9526   4.0000                                         
     5  2  1.50        -5.4423   0.0000                                         
     4  3  2.50        -5.4423   0.0000                                         
   Description                                                                  
     l       E           TYP  RCUT    TYP  RCUT                                 
     0    -15.1072389     23  2.300                                             
     0    -16.4678215     23  2.300                                             
     1     -5.9526306     23  2.300                                             
     1     -2.4873968     23  2.300                                             
     2     -5.4423304     23  2.300                                             
     3     -1.3605826     23  2.300                                             
  local pseudopotential read in
  partial core-charges read in
  partial kinetic energy density read in
  atomic valenz-charges read in
  non local Contribution for L=           0  read in
    real space projection operators read in
  non local Contribution for L=           0  read in
    real space projection operators read in
  non local Contribution for L=           1  read in
    real space projection operators read in
  non local Contribution for L=           1  read in
    real space projection operators read in
  non local Contribution for L=           2  read in
    real space projection operators read in
    PAW grid and wavefunctions read in
 
   number of l-projection  operators is LMAX  =           5
   number of lm-projection operators is LMMAX =          13
 
  PAW_PBE Mo 08Apr2002                  :
 energy of atom  1       EATOM= -217.5176
 kinetic energy error for atom=    0.0005 (will be added to EATOM!!)
  PAW_PBE S 06Sep2000                   :
 energy of atom  2       EATOM= -276.8230
 kinetic energy error for atom=    0.0009 (will be added to EATOM!!)
  PAW_PBE Te 08Apr2002                  :
 energy of atom  3       EATOM= -223.2721
 kinetic energy error for atom=    0.0004 (will be added to EATOM!!)
 
 
 POSCAR: Generated by VASPKIT code               
  positions in direct lattice
  velocities in cartesian coordinates
 exchange correlation table for  LEXCH =        8
   RHO(1)=    0.500       N(1)  =     2000
   RHO(2)=  100.500       N(2)  =     4000
 


--------------------------------------------------------------------------------------------------------


 ion  position               nearest neighbor table
   1  0.500  0.167  0.507-   3 2.43   4 2.44   4 2.44   5 2.71   6 2.72   6 2.72   2 3.35   2 3.35
                             2 3.35   2 3.35
   2  1.000  0.667  0.507-   4 2.43   3 2.44   3 2.44   6 2.71   5 2.72   5 2.72   1 3.35   1 3.35
                             1 3.35   1 3.35
   3  0.500  0.833  0.580-   1 2.43   2 2.44   2 2.44
   4  1.000  0.333  0.580-   2 2.43   1 2.44   1 2.44
   5  0.500  0.833  0.413-   1 2.71   2 2.72   2 2.72   6 3.35   6 3.35   6 3.35   6 3.35
   6  1.000  0.333  0.413-   2 2.71   1 2.72   1 2.72   5 3.35   5 3.35   5 3.35   5 3.35
 

IMPORTANT INFORMATION: All symmetrisations will be switched off!
NOSYMM: (Re-)initialisation of all symmetry stuff for point group C_1.

 
 
 KPOINTS: K-Spacing Value to Generate K-Mesh: 0.01

Automatic generation of k-mesh.
Space group operators:
 irot       det(A)        alpha          n_x          n_y          n_z        tau_x        tau_y        tau_z
    1     1.000000     0.000000     1.000000     0.000000     0.000000     0.000000     0.000000     0.000000
 
 Subroutine IBZKPT returns following result:
 ===========================================
 
 Found     10 irreducible k-points:
 
 Following reciprocal coordinates:
            Coordinates               Weight
  0.000000  0.000000  0.000000      1.000000
  0.052632  0.000000  0.000000      2.000000
  0.105263  0.000000  0.000000      2.000000
  0.157895  0.000000  0.000000      2.000000
  0.210526  0.000000  0.000000      2.000000
  0.263158  0.000000  0.000000      2.000000
  0.315789  0.000000  0.000000      2.000000
  0.368421  0.000000  0.000000      2.000000
  0.421053  0.000000  0.000000      2.000000
  0.473684  0.000000  0.000000      2.000000
 
 Following cartesian coordinates:
            Coordinates               Weight
  0.000000  0.000000  0.000000      1.000000
  0.015647  0.000000  0.000000      2.000000
  0.031295  0.000000  0.000000      2.000000
  0.046942  0.000000  0.000000      2.000000
  0.062590  0.000000  0.000000      2.000000
  0.078237  0.000000  0.000000      2.000000
  0.093884  0.000000  0.000000      2.000000
  0.109532  0.000000  0.000000      2.000000
  0.125179  0.000000  0.000000      2.000000
  0.140827  0.000000  0.000000      2.000000
 


--------------------------------------------------------------------------------------------------------




 Dimension of arrays:
   k-points           NKPTS =     80   k-points in BZ     NKDIM =     80   number of bands    NBANDS=     24
   number of dos      NEDOS =    301   number of ions     NIONS =      6
   non local maximal  LDIM  =      6   non local SUM 2l+1 LMDIM =     18
   total plane-waves  NPLWV = 217728
   max r-space proj   IRMAX =      1   max aug-charges    IRDMAX=  35560
   dimension x,y,z NGX =    28 NGY =   48 NGZ =  162
   dimension x,y,z NGXF=    56 NGYF=   96 NGZF=  324
   support grid    NGXF=    56 NGYF=   96 NGZF=  324
   ions per type =               2   2   2
   NGX,Y,Z   is equivalent  to a cutoff of  13.84, 13.75, 13.30 a.u.
   NGXF,Y,Z  is equivalent  to a cutoff of  27.68, 27.50, 26.60 a.u.

 SYSTEM =  unknown system                          
 POSCAR =  Generated by VASPKIT code               

 Startparameter for this run:
   NWRITE =      2    write-flag & timer
   PREC   = accura    normal or accurate (medium, high low for compatibility)
   ISTART =      0    job   : 0-new  1-cont  2-samecut
   ICHARG =     11    charge: 1-file 2-atom 10-const
   ISPIN  =      1    spin polarized calculation?
   LNONCOLLINEAR =      F non collinear calculations
   LSORBIT =      F    spin-orbit coupling
   INIWAV =      1    electr: 0-lowe 1-rand  2-diag
   LASPH  =      F    aspherical Exc in radial PAW
   METAGGA=      F    non-selfconsistent MetaGGA calc.

 Electronic Relaxation 1
   ENCUT  =  600.0 eV  44.10 Ry    6.64 a.u.   6.72 11.59 40.45*2*pi/ulx,y,z
   ENINI  =  600.0     initial cutoff
   ENAUG  =  368.8 eV  augmentation charge cutoff
   NELM   =     60;   NELMIN=  2; NELMDL=  0     # of ELM steps 
   EDIFF  = 0.1E-06   stopping-criterion for ELM
   LREAL  =      F    real-space projection
   NLSPLINE    = F    spline interpolate recip. space projectors
   LCOMPAT=      F    compatible to vasp.4.4
   GGA_COMPAT  = T    GGA compatible to vasp.4.4-vasp.4.6
   LMAXPAW     = -100 max onsite density
   LMAXMIX     =    2 max onsite mixed and CHGCAR
   VOSKOWN=      0    Vosko Wilk Nusair interpolation
   ROPT   =    0.00000   0.00000   0.00000
 Ionic relaxation
   EDIFFG = -.1E-02   stopping-criterion for IOM
   NSW    =      0    number of steps for IOM
   NBLOCK =      1;   KBLOCK =      1    inner block; outer block 
   IBRION =     -1    ionic relax: 0-MD 1-quasi-New 2-CG
   NFREE  =      0    steps in history (QN), initial steepest desc. (CG)
   ISIF   =      2    stress and relaxation
   IWAVPR =     10    prediction:  0-non 1-charg 2-wave 3-comb
   ISYM   =      0    0-nonsym 1-usesym 2-fastsym
   LCORR  =      T    Harris-Foulkes like correction to forces

   POTIM  = 0.5000    time-step for ionic-motion
   TEIN   =    0.0    initial temperature
   TEBEG  =    0.0;   TEEND  =   0.0 temperature during run
   SMASS  =  -3.00    Nose mass-parameter (am)
   estimated Nose-frequenzy (Omega)   =  0.10E-29 period in steps =****** mass=  -0.259E-27a.u.
   SCALEE = 1.0000    scale energy and forces
   NPACO  =    256;   APACO  = 16.0  distance and # of slots for P.C.
   PSTRESS=    0.0 pullay stress

  Mass of Ions in am
   POMASS =  95.94 32.07127.60
  Ionic Valenz
   ZVAL   =   6.00  6.00  6.00
  Atomic Wigner-Seitz radii
   RWIGS  =  -1.00 -1.00 -1.00
  virtual crystal weights 
   VCA    =   1.00  1.00  1.00
   NELECT =      36.0000    total number of electrons
   NUPDOWN=      -1.0000    fix difference up-down

 DOS related values:
   EMIN   =  10.00;   EMAX   =-10.00  energy-range for DOS
   EFERMI =   0.00
   ISMEAR =     0;   SIGMA  =   0.00  broadening in eV -4-tet -1-fermi 0-gaus

 Electronic relaxation 2 (details)
   IALGO  =     38    algorithm
   LDIAG  =      T    sub-space diagonalisation (order eigenvalues)
   LSUBROT=      F    optimize rotation matrix (better conditioning)
   TURBO    =      0    0=normal 1=particle mesh
   IRESTART =      0    0=no restart 2=restart with 2 vectors
   NREBOOT  =      0    no. of reboots
   NMIN     =      0    reboot dimension
   EREF     =   0.00    reference energy to select bands
   IMIX   =      4    mixing-type and parameters
     AMIX     =   0.40;   BMIX     =  1.00
     AMIX_MAG =   1.60;   BMIX_MAG =  1.00
     AMIN     =   0.10
     WC   =   100.;   INIMIX=   1;  MIXPRE=   1;  MAXMIX= -45

 Intra band minimization:
   WEIMIN = 0.0000     energy-eigenvalue tresh-hold
   EBREAK =  0.10E-08  absolut break condition
   DEPER  =   0.30     relativ break condition  

   TIME   =   0.40     timestep for ELM

  volume/ion in A,a.u.               =      65.88       444.58
  Fermi-wavevector in a.u.,A,eV,Ry     =   0.736556  1.391890  7.381368  0.542515
  Thomas-Fermi vector in A             =   1.830024
 
 Write flags
   LWAVE        =      F    write WAVECAR
   LDOWNSAMPLE  =      F    k-point downsampling of WAVECAR
   LCHARG       =      T    write CHGCAR
   LVTOT        =      F    write LOCPOT, total local potential
   LVHAR        =      F    write LOCPOT, Hartree potential only
   LELF         =      F    write electronic localiz. function (ELF)
   LORBIT       =      0    0 simple, 1 ext, 2 COOP (PROOUT), +10 PAW based schemes


 Dipole corrections
   LMONO  =      F    monopole corrections only (constant potential shift)
   LDIPOL =      T    correct potential (dipole corrections)
   IDIPOL =      3    1-x, 2-y, 3-z, 4-all directions 
   EPSILON=  1.0000000 bulk dielectric constant

 Exchange correlation treatment:
   GGA     =    PE    GGA type
   LEXCH   =     8    internal setting for exchange type
   VOSKOWN=      0    Vosko Wilk Nusair interpolation
   LHFCALC =     F    Hartree Fock is set to
   LHFONE  =     F    Hartree Fock one center treatment
   AEXX    =    0.0000 exact exchange contribution

 Parameters for Berry phase evaluation:
   LBERRY =      T    evaluation of Berry phase?
   IGPAR  =      2    parallel direction
   NPPSTR =      8    k-mesh size in direction IGPAR
 Linear response parameters
   LEPSILON=     F    determine dielectric tensor
   LRPA    =     F    only Hartree local field effects (RPA)
   LNABLA  =     F    use nabla operator in PAW spheres
   LVEL    =     F    velocity operator in full k-point grid
   LINTERFAST=   F  fast interpolation
   KINTER  =     0    interpolate to denser k-point grid
   CSHIFT  =0.1000    complex shift for real part using Kramers Kronig
   OMEGAMAX=  -1.0    maximum frequency
   DEG_THRESHOLD= 0.2000000E-02 threshold for treating states as degnerate
   RTIME   =   -0.100 relaxation time in fs
  (WPLASMAI=    0.000 imaginary part of plasma frequency in eV, 0.658/RTIME)
   DFIELD  = 0.0000000 0.0000000 0.0000000 field for delta impulse in time
 
 Orbital magnetization related:
   ORBITALMAG=     F  switch on orbital magnetization
   LCHIMAG   =     F  perturbation theory with respect to B field
   DQ        =  0.001000  dq finite difference perturbation B field
   LLRAUG    =     F  two centre corrections for induced B field



--------------------------------------------------------------------------------------------------------


 Static calculation
 charge density and potential remain constant during run
 non-spin polarized calculation
 Variant of blocked Davidson
 Davidson routine will perform the subspace rotation
 perform sub-space diagonalisation
    after iterative eigenvector-optimisation
 no mixing
 using additional bands            6
 reciprocal scheme for non local part
 use partial core corrections
 calculate Harris-corrections to forces 
   (improved forces if not selfconsistent)
 use gradient corrections 
 WARNING: stress and forces are not correct
  (second derivative of E(xc) not defined)
 use of overlap-Matrix (Vanderbilt PP)
 Gauss-broadening in eV      SIGMA  =   0.00


--------------------------------------------------------------------------------------------------------


  energy-cutoff  :      600.00
  volume of cell :      395.28
      direct lattice vectors                 reciprocal lattice vectors
     3.363599539  0.000000000  0.000000000     0.297300552  0.000000000  0.000000000
     0.000000000  5.802622124  0.000000000     0.000000000  0.172335882  0.000000000
     0.000000000  0.000000000 20.252588272     0.000000000  0.000000000  0.049376405

  length of vectors
     3.363599539  5.802622124 20.252588272     0.297300552  0.172335882  0.049376405


 
 k-points in units of 2pi/SCALE and weight: K-Spacing Value to Generate K-Mesh: 0.01
   0.00000000  0.00000000  0.00000000       0.007
   0.00000000  0.02154199  0.00000000       0.007
   0.00000000  0.04308397  0.00000000       0.007
   0.00000000  0.06462596  0.00000000       0.007
   0.00000000  0.08616794  0.00000000       0.007
   0.00000000  0.10770993  0.00000000       0.007
   0.00000000  0.12925191  0.00000000       0.007
   0.00000000  0.15079390  0.00000000       0.007
   0.01564740  0.00000000  0.00000000       0.013
   0.01564740  0.02154199  0.00000000       0.013
   0.01564740  0.04308397  0.00000000       0.013
   0.01564740  0.06462596  0.00000000       0.013
   0.01564740  0.08616794  0.00000000       0.013
   0.01564740  0.10770993  0.00000000       0.013
   0.01564740  0.12925191  0.00000000       0.013
   0.01564740  0.15079390  0.00000000       0.013
   0.03129479  0.00000000  0.00000000       0.013
   0.03129479  0.02154199  0.00000000       0.013
   0.03129479  0.04308397  0.00000000       0.013
   0.03129479  0.06462596  0.00000000       0.013
   0.03129479  0.08616794  0.00000000       0.013
   0.03129479  0.10770993  0.00000000       0.013
   0.03129479  0.12925191  0.00000000       0.013
   0.03129479  0.15079390  0.00000000       0.013
   0.04694219  0.00000000  0.00000000       0.013
   0.04694219  0.02154199  0.00000000       0.013
   0.04694219  0.04308397  0.00000000       0.013
   0.04694219  0.06462596  0.00000000       0.013
   0.04694219  0.08616794  0.00000000       0.013
   0.04694219  0.10770993  0.00000000       0.013
   0.04694219  0.12925191  0.00000000       0.013
   0.04694219  0.15079390  0.00000000       0.013
   0.06258959  0.00000000  0.00000000       0.013
   0.06258959  0.02154199  0.00000000       0.013
   0.06258959  0.04308397  0.00000000       0.013
   0.06258959  0.06462596  0.00000000       0.013
   0.06258959  0.08616794  0.00000000       0.013
   0.06258959  0.10770993  0.00000000       0.013
   0.06258959  0.12925191  0.00000000       0.013
   0.06258959  0.15079390  0.00000000       0.013
   0.07823699  0.00000000  0.00000000       0.013
   0.07823699  0.02154199  0.00000000       0.013
   0.07823699  0.04308397  0.00000000       0.013
   0.07823699  0.06462596  0.00000000       0.013
   0.07823699  0.08616794  0.00000000       0.013
   0.07823699  0.10770993  0.00000000       0.013
   0.07823699  0.12925191  0.00000000       0.013
   0.07823699  0.15079390  0.00000000       0.013
   0.09388438  0.00000000  0.00000000       0.013
   0.09388438  0.02154199  0.00000000       0.013
   0.09388438  0.04308397  0.00000000       0.013
   0.09388438  0.06462596  0.00000000       0.013
   0.09388438  0.08616794  0.00000000       0.013
   0.09388438  0.10770993  0.00000000       0.013
   0.09388438  0.12925191  0.00000000       0.013
   0.09388438  0.15079390  0.00000000       0.013
   0.10953178  0.00000000  0.00000000       0.013
   0.10953178  0.02154199  0.00000000       0.013
   0.10953178  0.04308397  0.00000000       0.013
   0.10953178  0.06462596  0.00000000       0.013
   0.10953178  0.08616794  0.00000000       0.013
   0.10953178  0.10770993  0.00000000       0.013
   0.10953178  0.12925191  0.00000000       0.013
   0.10953178  0.15079390  0.00000000       0.013
   0.12517918  0.00000000  0.00000000       0.013
   0.12517918  0.02154199  0.00000000       0.013
   0.12517918  0.04308397  0.00000000       0.013
   0.12517918  0.06462596  0.00000000       0.013
   0.12517918  0.08616794  0.00000000       0.013
   0.12517918  0.10770993  0.00000000       0.013
   0.12517918  0.12925191  0.00000000       0.013
   0.12517918  0.15079390  0.00000000       0.013
   0.14082658  0.00000000  0.00000000       0.013
   0.14082658  0.02154199  0.00000000       0.013
   0.14082658  0.04308397  0.00000000       0.013
   0.14082658  0.06462596  0.00000000       0.013
   0.14082658  0.08616794  0.00000000       0.013
   0.14082658  0.10770993  0.00000000       0.013
   0.14082658  0.12925191  0.00000000       0.013
   0.14082658  0.15079390  0.00000000       0.013
 
 k-points in reciprocal lattice and weights: K-Spacing Value to Generate K-Mesh: 0.01
   0.00000000  0.00000000  0.00000000       0.007
   0.00000000  0.12500000  0.00000000       0.007
   0.00000000  0.25000000  0.00000000       0.007
   0.00000000  0.37500000  0.00000000       0.007
   0.00000000  0.50000000  0.00000000       0.007
   0.00000000  0.62500000  0.00000000       0.007
   0.00000000  0.75000000  0.00000000       0.007
   0.00000000  0.87500000  0.00000000       0.007
   0.05263158  0.00000000  0.00000000       0.013
   0.05263158  0.12500000  0.00000000       0.013
   0.05263158  0.25000000  0.00000000       0.013
   0.05263158  0.37500000  0.00000000       0.013
   0.05263158  0.50000000  0.00000000       0.013
   0.05263158  0.62500000  0.00000000       0.013
   0.05263158  0.75000000  0.00000000       0.013
   0.05263158  0.87500000  0.00000000       0.013
   0.10526316  0.00000000  0.00000000       0.013
   0.10526316  0.12500000  0.00000000       0.013
   0.10526316  0.25000000  0.00000000       0.013
   0.10526316  0.37500000  0.00000000       0.013
   0.10526316  0.50000000  0.00000000       0.013
   0.10526316  0.62500000  0.00000000       0.013
   0.10526316  0.75000000  0.00000000       0.013
   0.10526316  0.87500000  0.00000000       0.013
   0.15789474  0.00000000  0.00000000       0.013
   0.15789474  0.12500000  0.00000000       0.013
   0.15789474  0.25000000  0.00000000       0.013
   0.15789474  0.37500000  0.00000000       0.013
   0.15789474  0.50000000  0.00000000       0.013
   0.15789474  0.62500000  0.00000000       0.013
   0.15789474  0.75000000  0.00000000       0.013
   0.15789474  0.87500000  0.00000000       0.013
   0.21052632  0.00000000  0.00000000       0.013
   0.21052632  0.12500000  0.00000000       0.013
   0.21052632  0.25000000  0.00000000       0.013
   0.21052632  0.37500000  0.00000000       0.013
   0.21052632  0.50000000  0.00000000       0.013
   0.21052632  0.62500000  0.00000000       0.013
   0.21052632  0.75000000  0.00000000       0.013
   0.21052632  0.87500000  0.00000000       0.013
   0.26315789  0.00000000  0.00000000       0.013
   0.26315789  0.12500000  0.00000000       0.013
   0.26315789  0.25000000  0.00000000       0.013
   0.26315789  0.37500000  0.00000000       0.013
   0.26315789  0.50000000  0.00000000       0.013
   0.26315789  0.62500000  0.00000000       0.013
   0.26315789  0.75000000  0.00000000       0.013
   0.26315789  0.87500000  0.00000000       0.013
   0.31578947  0.00000000  0.00000000       0.013
   0.31578947  0.12500000  0.00000000       0.013
   0.31578947  0.25000000  0.00000000       0.013
   0.31578947  0.37500000  0.00000000       0.013
   0.31578947  0.50000000  0.00000000       0.013
   0.31578947  0.62500000  0.00000000       0.013
   0.31578947  0.75000000  0.00000000       0.013
   0.31578947  0.87500000  0.00000000       0.013
   0.36842105  0.00000000  0.00000000       0.013
   0.36842105  0.12500000  0.00000000       0.013
   0.36842105  0.25000000  0.00000000       0.013
   0.36842105  0.37500000  0.00000000       0.013
   0.36842105  0.50000000  0.00000000       0.013
   0.36842105  0.62500000  0.00000000       0.013
   0.36842105  0.75000000  0.00000000       0.013
   0.36842105  0.87500000  0.00000000       0.013
   0.42105263  0.00000000  0.00000000       0.013
   0.42105263  0.12500000  0.00000000       0.013
   0.42105263  0.25000000  0.00000000       0.013
   0.42105263  0.37500000  0.00000000       0.013
   0.42105263  0.50000000  0.00000000       0.013
   0.42105263  0.62500000  0.00000000       0.013
   0.42105263  0.75000000  0.00000000       0.013
   0.42105263  0.87500000  0.00000000       0.013
   0.47368421  0.00000000  0.00000000       0.013
   0.47368421  0.12500000  0.00000000       0.013
   0.47368421  0.25000000  0.00000000       0.013
   0.47368421  0.37500000  0.00000000       0.013
   0.47368421  0.50000000  0.00000000       0.013
   0.47368421  0.62500000  0.00000000       0.013
   0.47368421  0.75000000  0.00000000       0.013
   0.47368421  0.87500000  0.00000000       0.013
 
 position of ions in fractional coordinates (direct lattice) 
   0.49999999  0.16685327  0.50705120
   0.99999999  0.66685319  0.50705140
   0.49999999  0.83322710  0.57989399
   0.99999999  0.33322689  0.57989392
   0.49999999  0.83325313  0.41305464
   0.99999999  0.33325247  0.41305474
 
 position of ions in cartesian coordinates  (Angst):
   1.68179974  0.96818645 10.26909929
   3.36359950  3.86949704 10.26910330
   1.68179972  4.83490201 11.74435414
   3.36359951  1.93358971 11.74435273
   1.68179975  4.83505303  8.36542546
   3.36359951  1.93373813  8.36542752
 


--------------------------------------------------------------------------------------------------------


 k-point  1 :   0.0000 0.0000 0.0000  plane waves:   13235
 k-point  2 :   0.0000 0.1250 0.0000  plane waves:   13233
 k-point  3 :   0.0000 0.2500 0.0000  plane waves:   13201
 k-point  4 :   0.0000 0.3750 0.0000  plane waves:   13167
 k-point  5 :   0.0000 0.5000 0.0000  plane waves:   13200
 k-point  6 :   0.0000 0.6250 0.0000  plane waves:   13167
 k-point  7 :   0.0000 0.7500 0.0000  plane waves:   13201
 k-point  8 :   0.0000 0.8750 0.0000  plane waves:   13233
 k-point  9 :   0.0526 0.0000 0.0000  plane waves:   13249
 k-point 10 :   0.0526 0.1250 0.0000  plane waves:   13232
 k-point 11 :   0.0526 0.2500 0.0000  plane waves:   13208
 k-point 12 :   0.0526 0.3750 0.0000  plane waves:   13186
 k-point 13 :   0.0526 0.5000 0.0000  plane waves:   13156
 k-point 14 :   0.0526 0.6250 0.0000  plane waves:   13186
 k-point 15 :   0.0526 0.7500 0.0000  plane waves:   13208
 k-point 16 :   0.0526 0.8750 0.0000  plane waves:   13232
 k-point 17 :   0.1053 0.0000 0.0000  plane waves:   13217
 k-point 18 :   0.1053 0.1250 0.0000  plane waves:   13214
 k-point 19 :   0.1053 0.2500 0.0000  plane waves:   13212
 k-point 20 :   0.1053 0.3750 0.0000  plane waves:   13187
 k-point 21 :   0.1053 0.5000 0.0000  plane waves:   13158
 k-point 22 :   0.1053 0.6250 0.0000  plane waves:   13187
 k-point 23 :   0.1053 0.7500 0.0000  plane waves:   13212
 k-point 24 :   0.1053 0.8750 0.0000  plane waves:   13214
 k-point 25 :   0.1579 0.0000 0.0000  plane waves:   13201
 k-point 26 :   0.1579 0.1250 0.0000  plane waves:   13194
 k-point 27 :   0.1579 0.2500 0.0000  plane waves:   13200
 k-point 28 :   0.1579 0.3750 0.0000  plane waves:   13188
 k-point 29 :   0.1579 0.5000 0.0000  plane waves:   13168
 k-point 30 :   0.1579 0.6250 0.0000  plane waves:   13188
 k-point 31 :   0.1579 0.7500 0.0000  plane waves:   13200
 k-point 32 :   0.1579 0.8750 0.0000  plane waves:   13194
 k-point 33 :   0.2105 0.0000 0.0000  plane waves:   13205
 k-point 34 :   0.2105 0.1250 0.0000  plane waves:   13198
 k-point 35 :   0.2105 0.2500 0.0000  plane waves:   13201
 k-point 36 :   0.2105 0.3750 0.0000  plane waves:   13188
 k-point 37 :   0.2105 0.5000 0.0000  plane waves:   13152
 k-point 38 :   0.2105 0.6250 0.0000  plane waves:   13188
 k-point 39 :   0.2105 0.7500 0.0000  plane waves:   13201
 k-point 40 :   0.2105 0.8750 0.0000  plane waves:   13198
 k-point 41 :   0.2632 0.0000 0.0000  plane waves:   13179
 k-point 42 :   0.2632 0.1250 0.0000  plane waves:   13198
 k-point 43 :   0.2632 0.2500 0.0000  plane waves:   13189
 k-point 44 :   0.2632 0.3750 0.0000  plane waves:   13164
 k-point 45 :   0.2632 0.5000 0.0000  plane waves:   13192
 k-point 46 :   0.2632 0.6250 0.0000  plane waves:   13164
 k-point 47 :   0.2632 0.7500 0.0000  plane waves:   13189
 k-point 48 :   0.2632 0.8750 0.0000  plane waves:   13198
 k-point 49 :   0.3158 0.0000 0.0000  plane waves:   13198
 k-point 50 :   0.3158 0.1250 0.0000  plane waves:   13165
 k-point 51 :   0.3158 0.2500 0.0000  plane waves:   13176
 k-point 52 :   0.3158 0.3750 0.0000  plane waves:   13167
 k-point 53 :   0.3158 0.5000 0.0000  plane waves:   13170
 k-point 54 :   0.3158 0.6250 0.0000  plane waves:   13167
 k-point 55 :   0.3158 0.7500 0.0000  plane waves:   13176
 k-point 56 :   0.3158 0.8750 0.0000  plane waves:   13165
 k-point 57 :   0.3684 0.0000 0.0000  plane waves:   13198
 k-point 58 :   0.3684 0.1250 0.0000  plane waves:   13198
 k-point 59 :   0.3684 0.2500 0.0000  plane waves:   13186
 k-point 60 :   0.3684 0.3750 0.0000  plane waves:   13187
 k-point 61 :   0.3684 0.5000 0.0000  plane waves:   13196
 k-point 62 :   0.3684 0.6250 0.0000  plane waves:   13187
 k-point 63 :   0.3684 0.7500 0.0000  plane waves:   13186
 k-point 64 :   0.3684 0.8750 0.0000  plane waves:   13198
 k-point 65 :   0.4211 0.0000 0.0000  plane waves:   13202
 k-point 66 :   0.4211 0.1250 0.0000  plane waves:   13203
 k-point 67 :   0.4211 0.2500 0.0000  plane waves:   13178
 k-point 68 :   0.4211 0.3750 0.0000  plane waves:   13197
 k-point 69 :   0.4211 0.5000 0.0000  plane waves:   13206
 k-point 70 :   0.4211 0.6250 0.0000  plane waves:   13197
 k-point 71 :   0.4211 0.7500 0.0000  plane waves:   13178
 k-point 72 :   0.4211 0.8750 0.0000  plane waves:   13203
 k-point 73 :   0.4737 0.0000 0.0000  plane waves:   13182
 k-point 74 :   0.4737 0.1250 0.0000  plane waves:   13182
 k-point 75 :   0.4737 0.2500 0.0000  plane waves:   13172
 k-point 76 :   0.4737 0.3750 0.0000  plane waves:   13206
 k-point 77 :   0.4737 0.5000 0.0000  plane waves:   13224
 k-point 78 :   0.4737 0.6250 0.0000  plane waves:   13206
 k-point 79 :   0.4737 0.7500 0.0000  plane waves:   13172
 k-point 80 :   0.4737 0.8750 0.0000  plane waves:   13182

 maximum and minimum number of plane-waves per node :       575      525

 maximum number of plane-waves:     13249
 maximum index in each direction: 
   IXMAX=    6   IYMAX=   11   IZMAX=   40
   IXMIN=   -7   IYMIN=  -12   IZMIN=  -40


 parallel 3D FFT for wavefunctions:
    minimum data exchange during FFTs selected (reduces bandwidth)
 parallel 3D FFT for charge:
    minimum data exchange during FFTs selected (reduces bandwidth)


 total amount of memory used by VASP MPI-rank0    55685. kBytes
=======================================================================

   base      :      30000. kBytes
   nonl-proj :      19407. kBytes
   fftplans  :       1398. kBytes
   grid      :       2623. kBytes
   one-center:         15. kBytes
   wavefun   :       2242. kBytes
 
     INWAV:  cpu time    0.0000: real time    0.0000
 initial charge density was supplied:
 number of electron      36.0000000 magnetization 
 keeping initial charge density in first step


--------------------------------------------------------------------------------------------------------


 Maximum index for augmentation-charges         1256 (set IRDMAX)


--------------------------------------------------------------------------------------------------------


 First call to EWALD:  gamma=   0.242
 Maximum number of real-space cells 5x 3x 1
 Maximum number of reciprocal cells 2x 2x 7

    FEWALD:  cpu time    0.0016: real time    0.0016


--------------------------------------- Iteration      1(   1)  ---------------------------------------


    POTLOK:  cpu time    0.0208: real time    0.0371
    SETDIJ:  cpu time    0.0056: real time    0.0056
     EDDAV:  cpu time    0.9070: real time    0.9074
       DOS:  cpu time    0.0011: real time    0.0011
    --------------------------------------------
      LOOP:  cpu time    0.9345: real time    0.9512

 eigenvalue-minimisations  :  3840
 total energy-change (2. order) : 0.2620106E+03  (-0.1295825E+04)
 number of electron      36.0000000 magnetization 
 augmentation part       36.0000000 magnetization 

 DIPCOR: dipole corrections for dipol
 direction  3 min pos     1,
 dipolmoment           0.000000      0.000000      0.158844 electrons x Angstroem
 Tr[quadrupol]      -125.188618

 energy correction for charged system         0.000000 eV
 dipol+quadrupol energy correction           -0.005775 eV
 added-field ion interaction          0.000001 eV  (added to PSCEN)


 Free energy of the ion-electron system (eV)
  ---------------------------------------------------
  alpha Z        PSCENC =        26.20333852
  Ewald energy   TEWEN  =      4195.82854132
  -Hartree energ DENC   =     -5540.60234022
  -exchange      EXHF   =         0.00000000
  -V(xc)+E(xc)   XCENC  =      -151.22909731
  PAW double counting   =      2989.83873920    -2767.10847155
  entropy T*S    EENTRO =        -0.00000074
  eigenvalues    EBANDS =        73.85816409
  atomic energy  EATOM  =      1435.22174307
  Solvation  Ediel_sol  =         0.00000000
  ---------------------------------------------------
  free energy    TOTEN  =       262.01061638 eV

  energy without entropy =      262.01061712  energy(sigma->0) =      262.01061675


--------------------------------------------------------------------------------------------------------




--------------------------------------- Iteration      1(   2)  ---------------------------------------


     EDDAV:  cpu time    1.0863: real time    1.0865
       DOS:  cpu time    0.0006: real time    0.0006
    --------------------------------------------
      LOOP:  cpu time    1.0869: real time    1.0871

 eigenvalue-minimisations  :  6096
 total energy-change (2. order) :-0.2675251E+03  (-0.2588315E+03)
 number of electron      36.0000000 magnetization 
 augmentation part       36.0000000 magnetization 

 DIPCOR: dipole corrections for dipol
 direction  3 min pos     1,
 dipolmoment           0.000000      0.000000      0.158844 electrons x Angstroem
 Tr[quadrupol]      -125.188618

 energy correction for charged system         0.000000 eV
 dipol+quadrupol energy correction           -0.005775 eV
 added-field ion interaction          0.000001 eV  (added to PSCEN)


 Free energy of the ion-electron system (eV)
  ---------------------------------------------------
  alpha Z        PSCENC =        26.20333852
  Ewald energy   TEWEN  =      4195.82854132
  -Hartree energ DENC   =     -5540.60234022
  -exchange      EXHF   =         0.00000000
  -V(xc)+E(xc)   XCENC  =      -151.22909731
  PAW double counting   =      2989.83873920    -2767.10847155
  entropy T*S    EENTRO =         0.00000000
  eigenvalues    EBANDS =      -193.66689646
  atomic energy  EATOM  =      1435.22174307
  Solvation  Ediel_sol  =         0.00000000
  ---------------------------------------------------
  free energy    TOTEN  =        -5.51444343 eV

  energy without entropy =       -5.51444343  energy(sigma->0) =       -5.51444343


--------------------------------------------------------------------------------------------------------




--------------------------------------- Iteration      1(   3)  ---------------------------------------


     EDDAV:  cpu time    0.9699: real time    0.9701
       DOS:  cpu time    0.0006: real time    0.0006
    --------------------------------------------
      LOOP:  cpu time    0.9705: real time    0.9707

 eigenvalue-minimisations  :  5032
 total energy-change (2. order) :-0.3279177E+02  (-0.3239768E+02)
 number of electron      36.0000000 magnetization 
 augmentation part       36.0000000 magnetization 

 DIPCOR: dipole corrections for dipol
 direction  3 min pos     1,
 dipolmoment           0.000000      0.000000      0.158844 electrons x Angstroem
 Tr[quadrupol]      -125.188618

 energy correction for charged system         0.000000 eV
 dipol+quadrupol energy correction           -0.005775 eV
 added-field ion interaction          0.000001 eV  (added to PSCEN)


 Free energy of the ion-electron system (eV)
  ---------------------------------------------------
  alpha Z        PSCENC =        26.20333852
  Ewald energy   TEWEN  =      4195.82854132
  -Hartree energ DENC   =     -5540.60234022
  -exchange      EXHF   =         0.00000000
  -V(xc)+E(xc)   XCENC  =      -151.22909731
  PAW double counting   =      2989.83873920    -2767.10847155
  entropy T*S    EENTRO =         0.00000000
  eigenvalues    EBANDS =      -226.45867042
  atomic energy  EATOM  =      1435.22174307
  Solvation  Ediel_sol  =         0.00000000
  ---------------------------------------------------
  free energy    TOTEN  =       -38.30621739 eV

  energy without entropy =      -38.30621739  energy(sigma->0) =      -38.30621739


--------------------------------------------------------------------------------------------------------




--------------------------------------- Iteration      1(   4)  ---------------------------------------


     EDDAV:  cpu time    1.0456: real time    1.0459
       DOS:  cpu time    0.0006: real time    0.0006
    --------------------------------------------
      LOOP:  cpu time    1.0463: real time    1.0466

 eigenvalue-minimisations  :  5800
 total energy-change (2. order) :-0.1090579E+01  (-0.1085644E+01)
 number of electron      36.0000000 magnetization 
 augmentation part       36.0000000 magnetization 

 DIPCOR: dipole corrections for dipol
 direction  3 min pos     1,
 dipolmoment           0.000000      0.000000      0.158844 electrons x Angstroem
 Tr[quadrupol]      -125.188618

 energy correction for charged system         0.000000 eV
 dipol+quadrupol energy correction           -0.005775 eV
 added-field ion interaction          0.000001 eV  (added to PSCEN)


 Free energy of the ion-electron system (eV)
  ---------------------------------------------------
  alpha Z        PSCENC =        26.20333852
  Ewald energy   TEWEN  =      4195.82854132
  -Hartree energ DENC   =     -5540.60234022
  -exchange      EXHF   =         0.00000000
  -V(xc)+E(xc)   XCENC  =      -151.22909731
  PAW double counting   =      2989.83873920    -2767.10847155
  entropy T*S    EENTRO =         0.00000000
  eigenvalues    EBANDS =      -227.54924945
  atomic energy  EATOM  =      1435.22174307
  Solvation  Ediel_sol  =         0.00000000
  ---------------------------------------------------
  free energy    TOTEN  =       -39.39679641 eV

  energy without entropy =      -39.39679641  energy(sigma->0) =      -39.39679641


--------------------------------------------------------------------------------------------------------




--------------------------------------- Iteration      1(   5)  ---------------------------------------


     EDDAV:  cpu time    1.0545: real time    1.0547
       DOS:  cpu time    0.0006: real time    0.0006
    --------------------------------------------
      LOOP:  cpu time    1.0551: real time    1.0553

 eigenvalue-minimisations  :  5752
 total energy-change (2. order) :-0.2613136E-01  (-0.2611189E-01)
 number of electron      36.0000000 magnetization 
 augmentation part       36.0000000 magnetization 

 DIPCOR: dipole corrections for dipol
 direction  3 min pos     1,
 dipolmoment           0.000000      0.000000      0.158844 electrons x Angstroem
 Tr[quadrupol]      -125.188618

 energy correction for charged system         0.000000 eV
 dipol+quadrupol energy correction           -0.005775 eV
 added-field ion interaction          0.000001 eV  (added to PSCEN)


 Free energy of the ion-electron system (eV)
  ---------------------------------------------------
  alpha Z        PSCENC =        26.20333852
  Ewald energy   TEWEN  =      4195.82854132
  -Hartree energ DENC   =     -5540.60234022
  -exchange      EXHF   =         0.00000000
  -V(xc)+E(xc)   XCENC  =      -151.22909731
  PAW double counting   =      2989.83873920    -2767.10847155
  entropy T*S    EENTRO =         0.00000000
  eigenvalues    EBANDS =      -227.57538081
  atomic energy  EATOM  =      1435.22174307
  Solvation  Ediel_sol  =         0.00000000
  ---------------------------------------------------
  free energy    TOTEN  =       -39.42292777 eV

  energy without entropy =      -39.42292777  energy(sigma->0) =      -39.42292777


--------------------------------------------------------------------------------------------------------




--------------------------------------- Iteration      1(   6)  ---------------------------------------


     EDDAV:  cpu time    1.0708: real time    1.0711
       DOS:  cpu time    0.0006: real time    0.0006
    --------------------------------------------
      LOOP:  cpu time    1.0715: real time    1.0718

 eigenvalue-minimisations  :  5912
 total energy-change (2. order) :-0.4969961E-03  (-0.4968001E-03)
 number of electron      36.0000000 magnetization 
 augmentation part       36.0000000 magnetization 

 DIPCOR: dipole corrections for dipol
 direction  3 min pos     1,
 dipolmoment           0.000000      0.000000      0.158844 electrons x Angstroem
 Tr[quadrupol]      -125.188618

 energy correction for charged system         0.000000 eV
 dipol+quadrupol energy correction           -0.005775 eV
 added-field ion interaction          0.000001 eV  (added to PSCEN)


 Free energy of the ion-electron system (eV)
  ---------------------------------------------------
  alpha Z        PSCENC =        26.20333852
  Ewald energy   TEWEN  =      4195.82854132
  -Hartree energ DENC   =     -5540.60234022
  -exchange      EXHF   =         0.00000000
  -V(xc)+E(xc)   XCENC  =      -151.22909731
  PAW double counting   =      2989.83873920    -2767.10847155
  entropy T*S    EENTRO =         0.00000000
  eigenvalues    EBANDS =      -227.57587780
  atomic energy  EATOM  =      1435.22174307
  Solvation  Ediel_sol  =         0.00000000
  ---------------------------------------------------
  free energy    TOTEN  =       -39.42342477 eV

  energy without entropy =      -39.42342477  energy(sigma->0) =      -39.42342477


--------------------------------------------------------------------------------------------------------




--------------------------------------- Iteration      1(   7)  ---------------------------------------


     EDDAV:  cpu time    1.0422: real time    1.0424
       DOS:  cpu time    0.0005: real time    0.0005
    --------------------------------------------
      LOOP:  cpu time    1.0427: real time    1.0429

 eigenvalue-minimisations  :  5784
 total energy-change (2. order) :-0.1190845E-04  (-0.1190751E-04)
 number of electron      36.0000000 magnetization 
 augmentation part       36.0000000 magnetization 

 DIPCOR: dipole corrections for dipol
 direction  3 min pos     1,
 dipolmoment           0.000000      0.000000      0.158844 electrons x Angstroem
 Tr[quadrupol]      -125.188618

 energy correction for charged system         0.000000 eV
 dipol+quadrupol energy correction           -0.005775 eV
 added-field ion interaction          0.000001 eV  (added to PSCEN)


 Free energy of the ion-electron system (eV)
  ---------------------------------------------------
  alpha Z        PSCENC =        26.20333852
  Ewald energy   TEWEN  =      4195.82854132
  -Hartree energ DENC   =     -5540.60234022
  -exchange      EXHF   =         0.00000000
  -V(xc)+E(xc)   XCENC  =      -151.22909731
  PAW double counting   =      2989.83873920    -2767.10847155
  entropy T*S    EENTRO =         0.00000000
  eigenvalues    EBANDS =      -227.57588971
  atomic energy  EATOM  =      1435.22174307
  Solvation  Ediel_sol  =         0.00000000
  ---------------------------------------------------
  free energy    TOTEN  =       -39.42343668 eV

  energy without entropy =      -39.42343668  energy(sigma->0) =      -39.42343668


--------------------------------------------------------------------------------------------------------




--------------------------------------- Iteration      1(   8)  ---------------------------------------


     EDDAV:  cpu time    1.0669: real time    1.0672
       DOS:  cpu time    0.0006: real time    0.0006
    --------------------------------------------
      LOOP:  cpu time    1.0675: real time    1.0677

 eigenvalue-minimisations  :  6008
 total energy-change (2. order) :-0.3308460E-06  (-0.3308787E-06)
 number of electron      36.0000000 magnetization 
 augmentation part       36.0000000 magnetization 

 DIPCOR: dipole corrections for dipol
 direction  3 min pos     1,
 dipolmoment           0.000000      0.000000      0.158844 electrons x Angstroem
 Tr[quadrupol]      -125.188618

 energy correction for charged system         0.000000 eV
 dipol+quadrupol energy correction           -0.005775 eV
 added-field ion interaction          0.000001 eV  (added to PSCEN)


 Free energy of the ion-electron system (eV)
  ---------------------------------------------------
  alpha Z        PSCENC =        26.20333852
  Ewald energy   TEWEN  =      4195.82854132
  -Hartree energ DENC   =     -5540.60234022
  -exchange      EXHF   =         0.00000000
  -V(xc)+E(xc)   XCENC  =      -151.22909731
  PAW double counting   =      2989.83873920    -2767.10847155
  entropy T*S    EENTRO =         0.00000000
  eigenvalues    EBANDS =      -227.57589004
  atomic energy  EATOM  =      1435.22174307
  Solvation  Ediel_sol  =         0.00000000
  ---------------------------------------------------
  free energy    TOTEN  =       -39.42343701 eV

  energy without entropy =      -39.42343701  energy(sigma->0) =      -39.42343701


--------------------------------------------------------------------------------------------------------




--------------------------------------- Iteration      1(   9)  ---------------------------------------


     EDDAV:  cpu time    0.8615: real time    0.8617
       DOS:  cpu time    0.0005: real time    0.0005
    --------------------------------------------
      LOOP:  cpu time    0.8620: real time    0.8622

 eigenvalue-minimisations  :  3920
 total energy-change (2. order) :-0.7882591E-08  (-0.7872468E-08)
 number of electron      36.0000000 magnetization 
 augmentation part       36.0000000 magnetization 

 DIPCOR: dipole corrections for dipol
 direction  3 min pos     1,
 dipolmoment           0.000000      0.000000      0.158844 electrons x Angstroem
 Tr[quadrupol]      -125.188618

 energy correction for charged system         0.000000 eV
 dipol+quadrupol energy correction           -0.005775 eV
 added-field ion interaction          0.000001 eV  (added to PSCEN)


 Free energy of the ion-electron system (eV)
  ---------------------------------------------------
  alpha Z        PSCENC =        26.20333852
  Ewald energy   TEWEN  =      4195.82854132
  -Hartree energ DENC   =     -5540.60234022
  -exchange      EXHF   =         0.00000000
  -V(xc)+E(xc)   XCENC  =      -151.22909731
  PAW double counting   =      2989.83873920    -2767.10847155
  entropy T*S    EENTRO =         0.00000000
  eigenvalues    EBANDS =      -227.57589005
  atomic energy  EATOM  =      1435.22174307
  Solvation  Ediel_sol  =         0.00000000
  ---------------------------------------------------
  free energy    TOTEN  =       -39.42343701 eV

  energy without entropy =      -39.42343701  energy(sigma->0) =      -39.42343701


--------------------------------------------------------------------------------------------------------




 average (electrostatic) potential at core
  the test charge radii are     1.2296  0.9698  1.1897
  (the norm of the test charge is              1.0000)
       1 -44.9764       2 -44.9761       3 -92.8524       4 -92.8525       5 -95.9472
       6 -95.9472
 
 
 
 E-fermi :  -1.3948     XC(G=0):  -3.9457     alpha+bet : -3.9756


 k-point     1 :       0.0000    0.0000    0.0000
  band No.  band energies     occupation 
      1     -15.0673      2.00000
      2     -14.0696      2.00000
      3     -13.6889      2.00000
      4     -12.2056      2.00000
      5      -7.4716      2.00000
      6      -6.8912      2.00000
      7      -6.2723      2.00000
      8      -5.2342      2.00000
      9      -4.5054      2.00000
     10      -4.1704      2.00000
     11      -4.1389      2.00000
     12      -3.9509      2.00000
     13      -3.4671      2.00000
     14      -2.4668      2.00000
     15      -2.4378      2.00000
     16      -2.2007      2.00000
     17      -2.1011      2.00000
     18      -1.4225      2.00000
     19       0.1378      0.00000
     20       0.2956      0.00000
     21       1.0764      0.00000
     22       1.0978      0.00000
     23       1.6793      0.00000
     24       2.1471      0.00000

 k-point     2 :       0.0000    0.1250    0.0000
  band No.  band energies     occupation 
      1     -15.0151      2.00000
      2     -14.0327      2.00000
      3     -13.7374      2.00000
      4     -12.3521      2.00000
      5      -7.2547      2.00000
      6      -6.8307      2.00000
      7      -6.1952      2.00000
      8      -5.2269      2.00000
      9      -4.4716      2.00000
     10      -4.3458      2.00000
     11      -4.1448      2.00000
     12      -3.8497      2.00000
     13      -3.4687      2.00000
     14      -2.5186      2.00000
     15      -2.5179      2.00000
     16      -2.2663      2.00000
     17      -2.1476      2.00000
     18      -1.4353      2.00000
     19       0.1561      0.00000
     20       0.1977      0.00000
     21       1.0102      0.00000
     22       1.1094      0.00000
     23       1.7053      0.00000
     24       1.7930      0.00000

 k-point     3 :       0.0000    0.2500    0.0000
  band No.  band energies     occupation 
      1     -14.8643      2.00000
      2     -13.9215      2.00000
      3     -13.8774      2.00000
      4     -12.7033      2.00000
      5      -6.7469      2.00000
      6      -6.6589      2.00000
      7      -5.9445      2.00000
      8      -5.2312      2.00000
      9      -4.6902      2.00000
     10      -4.3768      2.00000
     11      -4.0877      2.00000
     12      -3.8277      2.00000
     13      -3.4564      2.00000
     14      -2.7374      2.00000
     15      -2.6310      2.00000
     16      -2.3611      2.00000
     17      -2.2815      2.00000
     18      -1.5235      2.00000
     19       0.0155      0.00000
     20       0.2330      0.00000
     21       0.8167      0.00000
     22       1.0704      0.00000
     23       1.1214      0.00000
     24       1.6310      0.00000

 k-point     4 :       0.0000    0.3750    0.0000
  band No.  band energies     occupation 
      1     -14.6342      2.00000
      2     -14.0940      2.00000
      3     -13.7333      2.00000
      4     -13.1067      2.00000
      5      -6.4135      2.00000
      6      -6.2990      2.00000
      7      -5.5645      2.00000
      8      -5.1405      2.00000
      9      -5.0636      2.00000
     10      -4.2431      2.00000
     11      -4.0585      2.00000
     12      -4.0336      2.00000
     13      -3.3902      2.00000
     14      -3.0245      2.00000
     15      -2.7001      2.00000
     16      -2.4702      2.00000
     17      -2.3139      2.00000
     18      -1.7553      2.00000
     19      -0.1133      0.00000
     20       0.2652      0.00000
     21       0.4018      0.00000
     22       0.9471      0.00000
     23       0.9644      0.00000
     24       1.4092      0.00000

 k-point     5 :       0.0000    0.5000    0.0000
  band No.  band energies     occupation 
      1     -14.3609      2.00000
      2     -14.3608      2.00000
      3     -13.4619      2.00000
      4     -13.4618      2.00000
      5      -6.2058      2.00000
      6      -6.2058      2.00000
      7      -5.3802      2.00000
      8      -5.3802      2.00000
      9      -4.5568      2.00000
     10      -4.5567      2.00000
     11      -4.1162      2.00000
     12      -4.1161      2.00000
     13      -3.2521      2.00000
     14      -3.2520      2.00000
     15      -2.6396      2.00000
     16      -2.6396      2.00000
     17      -2.0749      2.00000
     18      -2.0749      2.00000
     19      -0.0736      0.00000
     20      -0.0736      0.00000
     21       0.6596      0.00000
     22       0.6597      0.00000
     23       1.1476      0.00000
     24       1.1477      0.00000

 k-point     6 :       0.0000    0.6250    0.0000
  band No.  band energies     occupation 
      1     -14.6342      2.00000
      2     -14.0940      2.00000
      3     -13.7333      2.00000
      4     -13.1067      2.00000
      5      -6.4135      2.00000
      6      -6.2990      2.00000
      7      -5.5645      2.00000
      8      -5.1405      2.00000
      9      -5.0636      2.00000
     10      -4.2431      2.00000
     11      -4.0585      2.00000
     12      -4.0336      2.00000
     13      -3.3902      2.00000
     14      -3.0245      2.00000
     15      -2.7001      2.00000
     16      -2.4702      2.00000
     17      -2.3139      2.00000
     18      -1.7553      2.00000
     19      -0.1133      0.00000
     20       0.2652      0.00000
     21       0.4018      0.00000
     22       0.9471      0.00000
     23       0.9644      0.00000
     24       1.4098      0.00000

 k-point     7 :       0.0000    0.7500    0.0000
  band No.  band energies     occupation 
      1     -14.8643      2.00000
      2     -13.9215      2.00000
      3     -13.8774      2.00000
      4     -12.7033      2.00000
      5      -6.7469      2.00000
      6      -6.6589      2.00000
      7      -5.9445      2.00000
      8      -5.2312      2.00000
      9      -4.6902      2.00000
     10      -4.3768      2.00000
     11      -4.0877      2.00000
     12      -3.8277      2.00000
     13      -3.4564      2.00000
     14      -2.7374      2.00000
     15      -2.6310      2.00000
     16      -2.3611      2.00000
     17      -2.2815      2.00000
     18      -1.5235      2.00000
     19       0.0155      0.00000
     20       0.2330      0.00000
     21       0.8167      0.00000
     22       1.0704      0.00000
     23       1.1214      0.00000
     24       1.6298      0.00000

 k-point     8 :       0.0000    0.8750    0.0000
  band No.  band energies     occupation 
      1     -15.0151      2.00000
      2     -14.0327      2.00000
      3     -13.7374      2.00000
      4     -12.3521      2.00000
      5      -7.2547      2.00000
      6      -6.8307      2.00000
      7      -6.1952      2.00000
      8      -5.2269      2.00000
      9      -4.4716      2.00000
     10      -4.3458      2.00000
     11      -4.1448      2.00000
     12      -3.8497      2.00000
     13      -3.4687      2.00000
     14      -2.5186      2.00000
     15      -2.5179      2.00000
     16      -2.2663      2.00000
     17      -2.1476      2.00000
     18      -1.4353      2.00000
     19       0.1561      0.00000
     20       0.1977      0.00000
     21       1.0102      0.00000
     22       1.1094      0.00000
     23       1.7047      0.00000
     24       1.7767      0.00000

 k-point     9 :       0.0526    0.0000    0.0000
  band No.  band energies     occupation 
      1     -15.0397      2.00000
      2     -14.0503      2.00000
      3     -13.6815      2.00000
      4     -12.1881      2.00000
      5      -7.4372      2.00000
      6      -6.8591      2.00000
      7      -6.2667      2.00000
      8      -5.2313      2.00000
      9      -4.5278      2.00000
     10      -4.2906      2.00000
     11      -4.1258      2.00000
     12      -3.8858      2.00000
     13      -3.4593      2.00000
     14      -2.5522      2.00000
     15      -2.5076      2.00000
     16      -2.4672      2.00000
     17      -1.9249      2.00000
     18      -1.4291      2.00000
     19       0.1080      0.00000
     20       0.3580      0.00000
     21       1.0292      0.00000
     22       1.1163      0.00000
     23       1.7154      0.00000
     24       1.9090      0.00000

 k-point    10 :       0.0526    0.1250    0.0000
  band No.  band energies     occupation 
      1     -14.9880      2.00000
      2     -14.0134      2.00000
      3     -13.7292      2.00000
      4     -12.3333      2.00000
      5      -7.2238      2.00000
      6      -6.7994      2.00000
      7      -6.1891      2.00000
      8      -5.2222      2.00000
      9      -4.5056      2.00000
     10      -4.4292      2.00000
     11      -4.1228      2.00000
     12      -3.8321      2.00000
     13      -3.4485      2.00000
     14      -2.5938      2.00000
     15      -2.5799      2.00000
     16      -2.5213      2.00000
     17      -1.9843      2.00000
     18      -1.4464      2.00000
     19       0.1001      0.00000
     20       0.2725      0.00000
     21       0.9663      0.00000
     22       1.1268      0.00000
     23       1.6004      0.00000
     24       1.7093      0.00000

 k-point    11 :       0.0526    0.2500    0.0000
  band No.  band energies     occupation 
      1     -14.8388      2.00000
      2     -13.9020      2.00000
      3     -13.8670      2.00000
      4     -12.6825      2.00000
      5      -6.7251      2.00000
      6      -6.6297      2.00000
      7      -5.9354      2.00000
      8      -5.2252      2.00000
      9      -4.7359      2.00000
     10      -4.4381      2.00000
     11      -4.0990      2.00000
     12      -3.8176      2.00000
     13      -3.4071      2.00000
     14      -2.8064      2.00000
     15      -2.6719      2.00000
     16      -2.6193      2.00000
     17      -2.1022      2.00000
     18      -1.5349      2.00000
     19      -0.0215      0.00000
     20       0.2553      0.00000
     21       0.8055      0.00000
     22       0.9149      0.00000
     23       1.1669      0.00000
     24       1.5821      0.00000

 k-point    12 :       0.0526    0.3750    0.0000
  band No.  band energies     occupation 
      1     -14.6115      2.00000
      2     -14.0799      2.00000
      3     -13.7132      2.00000
      4     -13.0850      2.00000
      5      -6.3873      2.00000
      6      -6.2842      2.00000
      7      -5.5535      2.00000
      8      -5.1411      2.00000
      9      -5.0891      2.00000
     10      -4.3253      2.00000
     11      -4.1425      2.00000
     12      -3.9817      2.00000
     13      -3.3204      2.00000
     14      -3.0689      2.00000
     15      -2.7148      2.00000
     16      -2.7075      2.00000
     17      -2.1584      2.00000
     18      -1.7470      2.00000
     19      -0.1442      0.00000
     20       0.2333      0.00000
     21       0.3807      0.00000
     22       0.8639      0.00000
     23       0.9556      0.00000
     24       1.3455      0.00000

 k-point    13 :       0.0526    0.5000    0.0000
  band No.  band energies     occupation 
      1     -14.3422      2.00000
      2     -14.3422      2.00000
      3     -13.4408      2.00000
      4     -13.4408      2.00000
      5      -6.1844      2.00000
      6      -6.1843      2.00000
      7      -5.3895      2.00000
      8      -5.3895      2.00000
      9      -4.5596      2.00000
     10      -4.5595      2.00000
     11      -4.1876      2.00000
     12      -4.1875      2.00000
     13      -3.2125      2.00000
     14      -3.2125      2.00000
     15      -2.7390      2.00000
     16      -2.7389      2.00000
     17      -2.0183      2.00000
     18      -2.0183      2.00000
     19      -0.0994      0.00000
     20      -0.0994      0.00000
     21       0.6100      0.00000
     22       0.6101      0.00000
     23       1.0905      0.00000
     24       1.0905      0.00000

 k-point    14 :       0.0526    0.6250    0.0000
  band No.  band energies     occupation 
      1     -14.6115      2.00000
      2     -14.0799      2.00000
      3     -13.7132      2.00000
      4     -13.0850      2.00000
      5      -6.3873      2.00000
      6      -6.2842      2.00000
      7      -5.5535      2.00000
      8      -5.1411      2.00000
      9      -5.0891      2.00000
     10      -4.3253      2.00000
     11      -4.1425      2.00000
     12      -3.9817      2.00000
     13      -3.3204      2.00000
     14      -3.0689      2.00000
     15      -2.7148      2.00000
     16      -2.7075      2.00000
     17      -2.1584      2.00000
     18      -1.7470      2.00000
     19      -0.1442      0.00000
     20       0.2333      0.00000
     21       0.3807      0.00000
     22       0.8639      0.00000
     23       0.9556      0.00000
     24       1.3455      0.00000

 k-point    15 :       0.0526    0.7500    0.0000
  band No.  band energies     occupation 
      1     -14.8388      2.00000
      2     -13.9020      2.00000
      3     -13.8670      2.00000
      4     -12.6825      2.00000
      5      -6.7251      2.00000
      6      -6.6297      2.00000
      7      -5.9354      2.00000
      8      -5.2252      2.00000
      9      -4.7359      2.00000
     10      -4.4381      2.00000
     11      -4.0990      2.00000
     12      -3.8176      2.00000
     13      -3.4071      2.00000
     14      -2.8064      2.00000
     15      -2.6719      2.00000
     16      -2.6193      2.00000
     17      -2.1022      2.00000
     18      -1.5349      2.00000
     19      -0.0215      0.00000
     20       0.2553      0.00000
     21       0.8055      0.00000
     22       0.9149      0.00000
     23       1.1669      0.00000
     24       1.5820      0.00000

 k-point    16 :       0.0526    0.8750    0.0000
  band No.  band energies     occupation 
      1     -14.9880      2.00000
      2     -14.0134      2.00000
      3     -13.7292      2.00000
      4     -12.3333      2.00000
      5      -7.2238      2.00000
      6      -6.7994      2.00000
      7      -6.1891      2.00000
      8      -5.2222      2.00000
      9      -4.5056      2.00000
     10      -4.4292      2.00000
     11      -4.1228      2.00000
     12      -3.8321      2.00000
     13      -3.4485      2.00000
     14      -2.5938      2.00000
     15      -2.5799      2.00000
     16      -2.5213      2.00000
     17      -1.9843      2.00000
     18      -1.4464      2.00000
     19       0.1001      0.00000
     20       0.2725      0.00000
     21       0.9662      0.00000
     22       1.1268      0.00000
     23       1.6004      0.00000
     24       1.7104      0.00000

 k-point    17 :       0.1053    0.0000    0.0000
  band No.  band energies     occupation 
      1     -14.9585      2.00000
      2     -13.9922      2.00000
      3     -13.6604      2.00000
      4     -12.1375      2.00000
      5      -7.3356      2.00000
      6      -6.7653      2.00000
      7      -6.2559      2.00000
      8      -5.2244      2.00000
      9      -4.5776      2.00000
     10      -4.5137      2.00000
     11      -4.0970      2.00000
     12      -3.8233      2.00000
     13      -3.4493      2.00000
     14      -3.0976      2.00000
     15      -2.6298      2.00000
     16      -2.5388      2.00000
     17      -1.8408      2.00000
     18      -1.4627      2.00000
     19       0.0443      0.00000
     20       0.4906      0.00000
     21       0.9263      0.00000
     22       1.1358      0.00000
     23       1.4355      0.00000
     24       1.6989      0.00000

 k-point    18 :       0.1053    0.1250    0.0000
  band No.  band energies     occupation 
      1     -14.9083      2.00000
      2     -13.9552      2.00000
      3     -13.7060      2.00000
      4     -12.2788      2.00000
      5      -7.1336      2.00000
      6      -6.7083      2.00000
      7      -6.1780      2.00000
      8      -5.2090      2.00000
      9      -4.6196      2.00000
     10      -4.5814      2.00000
     11      -4.0801      2.00000
     12      -3.8241      2.00000
     13      -3.4137      2.00000
     14      -3.1104      2.00000
     15      -2.6983      2.00000
     16      -2.5781      2.00000
     17      -1.9043      2.00000
     18      -1.4952      2.00000
     19       0.0357      0.00000
     20       0.3824      0.00000
     21       0.8679      0.00000
     22       1.1394      0.00000
     23       1.1989      0.00000
     24       1.5849      0.00000

 k-point    19 :       0.1053    0.2500    0.0000
  band No.  band energies     occupation 
      1     -14.7640      2.00000
      2     -13.8432      2.00000
      3     -13.8373      2.00000
      4     -12.6212      2.00000
      5      -6.6654      2.00000
      6      -6.5462      2.00000
      7      -5.9196      2.00000
      8      -5.2070      2.00000
      9      -4.8670      2.00000
     10      -4.5654      2.00000
     11      -4.1068      2.00000
     12      -3.8368      2.00000
     13      -3.3226      2.00000
     14      -3.1180      2.00000
     15      -2.9306      2.00000
     16      -2.6379      2.00000
     17      -2.0116      2.00000
     18      -1.5915      2.00000
     19      -0.0891      0.00000
     20       0.3048      0.00000
     21       0.6049      0.00000
     22       0.8348      0.00000
     23       1.1070      0.00000
     24       1.4226      0.00000

 k-point    20 :       0.1053    0.3750    0.0000
  band No.  band energies     occupation 
      1     -14.5454      2.00000
      2     -14.0396      2.00000
      3     -13.6527      2.00000
      4     -13.0205      2.00000
      5      -6.3154      2.00000
      6      -6.2508      2.00000
      7      -5.5248      2.00000
      8      -5.1675      2.00000
      9      -5.1566      2.00000
     10      -4.4827      2.00000
     11      -4.2311      2.00000
     12      -4.0105      2.00000
     13      -3.1952      2.00000
     14      -3.1466      2.00000
     15      -3.0821      2.00000
     16      -2.7419      2.00000
     17      -2.0421      2.00000
     18      -1.7549      2.00000
     19      -0.2233      0.00000
     20       0.1218      0.00000
     21       0.3534      0.00000
     22       0.7932      0.00000
     23       0.8422      0.00000
     24       1.1981      0.00000

 k-point    21 :       0.1053    0.5000    0.0000
  band No.  band energies     occupation 
      1     -14.2885      2.00000
      2     -14.2885      2.00000
      3     -13.3775      2.00000
      4     -13.3775      2.00000
      5      -6.1317      2.00000
      6      -6.1316      2.00000
      7      -5.4158      2.00000
      8      -5.4158      2.00000
      9      -4.5906      2.00000
     10      -4.5906      2.00000
     11      -4.3389      2.00000
     12      -4.3388      2.00000
     13      -3.1588      2.00000
     14      -3.1588      2.00000
     15      -2.9279      2.00000
     16      -2.9279      2.00000
     17      -1.9400      2.00000
     18      -1.9400      2.00000
     19      -0.1773      0.00000
     20      -0.1773      0.00000
     21       0.5115      0.00000
     22       0.5115      0.00000
     23       0.9753      0.00000
     24       0.9753      0.00000

 k-point    22 :       0.1053    0.6250    0.0000
  band No.  band energies     occupation 
      1     -14.5454      2.00000
      2     -14.0396      2.00000
      3     -13.6527      2.00000
      4     -13.0205      2.00000
      5      -6.3154      2.00000
      6      -6.2508      2.00000
      7      -5.5248      2.00000
      8      -5.1675      2.00000
      9      -5.1566      2.00000
     10      -4.4827      2.00000
     11      -4.2311      2.00000
     12      -4.0105      2.00000
     13      -3.1952      2.00000
     14      -3.1466      2.00000
     15      -3.0821      2.00000
     16      -2.7419      2.00000
     17      -2.0421      2.00000
     18      -1.7549      2.00000
     19      -0.2233      0.00000
     20       0.1218      0.00000
     21       0.3534      0.00000
     22       0.7932      0.00000
     23       0.8422      0.00000
     24       1.1981      0.00000

 k-point    23 :       0.1053    0.7500    0.0000
  band No.  band energies     occupation 
      1     -14.7640      2.00000
      2     -13.8432      2.00000
      3     -13.8373      2.00000
      4     -12.6212      2.00000
      5      -6.6654      2.00000
      6      -6.5462      2.00000
      7      -5.9196      2.00000
      8      -5.2070      2.00000
      9      -4.8670      2.00000
     10      -4.5654      2.00000
     11      -4.1068      2.00000
     12      -3.8368      2.00000
     13      -3.3226      2.00000
     14      -3.1180      2.00000
     15      -2.9306      2.00000
     16      -2.6379      2.00000
     17      -2.0116      2.00000
     18      -1.5915      2.00000
     19      -0.0891      0.00000
     20       0.3048      0.00000
     21       0.6049      0.00000
     22       0.8348      0.00000
     23       1.1070      0.00000
     24       1.4235      0.00000

 k-point    24 :       0.1053    0.8750    0.0000
  band No.  band energies     occupation 
      1     -14.9083      2.00000
      2     -13.9552      2.00000
      3     -13.7060      2.00000
      4     -12.2788      2.00000
      5      -7.1336      2.00000
      6      -6.7083      2.00000
      7      -6.1780      2.00000
      8      -5.2090      2.00000
      9      -4.6196      2.00000
     10      -4.5814      2.00000
     11      -4.0801      2.00000
     12      -3.8241      2.00000
     13      -3.4137      2.00000
     14      -3.1104      2.00000
     15      -2.6983      2.00000
     16      -2.5781      2.00000
     17      -1.9043      2.00000
     18      -1.4952      2.00000
     19       0.0357      0.00000
     20       0.3824      0.00000
     21       0.8679      0.00000
     22       1.1393      0.00000
     23       1.1985      0.00000
     24       1.5849      0.00000

 k-point    25 :       0.1579    0.0000    0.0000
  band No.  band energies     occupation 
      1     -14.8286      2.00000
      2     -13.8949      2.00000
      3     -13.6298      2.00000
      4     -12.0607      2.00000
      5      -7.1725      2.00000
      6      -6.6177      2.00000
      7      -6.2541      2.00000
      8      -5.2188      2.00000
      9      -4.7687      2.00000
     10      -4.6191      2.00000
     11      -4.0896      2.00000
     12      -3.8165      2.00000
     13      -3.7670      2.00000
     14      -3.4079      2.00000
     15      -2.8338      2.00000
     16      -2.6125      2.00000
     17      -1.8288      2.00000
     18      -1.5452      2.00000
     19      -0.0524      0.00000
     20       0.6297      0.00000
     21       0.8050      0.00000
     22       0.8469      0.00000
     23       1.1765      0.00000
     24       1.3553      0.00000

 k-point    26 :       0.1579    0.1250    0.0000
  band No.  band energies     occupation 
      1     -14.7813      2.00000
      2     -13.8576      2.00000
      3     -13.6719      2.00000
      4     -12.1948      2.00000
      5      -6.9935      2.00000
      6      -6.5665      2.00000
      7      -6.1813      2.00000
      8      -5.1869      2.00000
      9      -4.8554      2.00000
     10      -4.6494      2.00000
     11      -4.0504      2.00000
     12      -3.8798      2.00000
     13      -3.7574      2.00000
     14      -3.3410      2.00000
     15      -2.8729      2.00000
     16      -2.6431      2.00000
     17      -1.9005      2.00000
     18      -1.6041      2.00000
     19      -0.0381      0.00000
     20       0.4957      0.00000
     21       0.5959      0.00000
     22       0.9352      0.00000
     23       1.1031      0.00000
     24       1.3405      0.00000

 k-point    27 :       0.1579    0.2500    0.0000
  band No.  band energies     occupation 
      1     -14.6456      2.00000
[...]
     15      -3.3669      2.00000
     16      -3.1672      2.00000
     17      -1.9258      2.00000
     18      -1.8583      2.00000
     19      -0.0095      0.00000
     20       0.0091      0.00000
     21       0.3323      0.00000
     22       0.4969      0.00000
     23       1.4515      0.00000
     24       1.5330      0.00000

 k-point    76 :       0.4737    0.3750    0.0000
  band No.  band energies     occupation 
      1     -13.7245      2.00000
      2     -13.6853      2.00000
      3     -12.3134      2.00000
      4     -12.1998      2.00000
      5      -7.3971      2.00000
      6      -7.3004      2.00000
      7      -6.2562      2.00000
      8      -6.2138      2.00000
      9      -5.2301      2.00000
     10      -5.2286      2.00000
     11      -4.5159      2.00000
     12      -4.4753      2.00000
     13      -3.4725      2.00000
     14      -3.4700      2.00000
     15      -2.7584      2.00000
     16      -2.5411      2.00000
     17      -1.9567      2.00000
     18      -1.8692      2.00000
     19       0.0815      0.00000
     20       0.1126      0.00000
     21       0.2772      0.00000
     22       0.3994      0.00000
     23       1.7187      0.00000
     24       1.7536      0.00000

 k-point    77 :       0.4737    0.5000    0.0000
  band No.  band energies     occupation 
      1     -13.7038      2.00000
      2     -13.7038      2.00000
      3     -12.2455      2.00000
      4     -12.2455      2.00000
      5      -7.4520      2.00000
      6      -7.4520      2.00000
      7      -6.2624      2.00000
      8      -6.2624      2.00000
      9      -5.2356      2.00000
     10      -5.2356      2.00000
     11      -4.4675      2.00000
     12      -4.4675      2.00000
     13      -3.4856      2.00000
     14      -3.4855      2.00000
     15      -2.2565      2.00000
     16      -2.2564      2.00000
     17      -2.0387      2.00000
     18      -2.0387      2.00000
     19       0.1368      0.00000
     20       0.1369      0.00000
     21       0.2845      0.00000
     22       0.2845      0.00000
     23       1.6836      0.00000
     24       1.6838      0.00000

 k-point    78 :       0.4737    0.6250    0.0000
  band No.  band energies     occupation 
      1     -13.7245      2.00000
      2     -13.6853      2.00000
      3     -12.3134      2.00000
      4     -12.1998      2.00000
      5      -7.3971      2.00000
      6      -7.3004      2.00000
      7      -6.2562      2.00000
      8      -6.2138      2.00000
      9      -5.2301      2.00000
     10      -5.2286      2.00000
     11      -4.5159      2.00000
     12      -4.4753      2.00000
     13      -3.4725      2.00000
     14      -3.4700      2.00000
     15      -2.7584      2.00000
     16      -2.5411      2.00000
     17      -1.9567      2.00000
     18      -1.8692      2.00000
     19       0.0815      0.00000
     20       0.1126      0.00000
     21       0.2772      0.00000
     22       0.3994      0.00000
     23       1.7192      0.00000
     24       1.7579      0.00000

 k-point    79 :       0.4737    0.7500    0.0000
  band No.  band energies     occupation 
      1     -13.7442      2.00000
      2     -13.6715      2.00000
      3     -12.3850      2.00000
      4     -12.1807      2.00000
      5      -7.1482      2.00000
      6      -6.9876      2.00000
      7      -6.2122      2.00000
      8      -6.1136      2.00000
      9      -5.2105      2.00000
     10      -5.2054      2.00000
     11      -4.5939      2.00000
     12      -4.5673      2.00000
     13      -3.5361      2.00000
     14      -3.4024      2.00000
     15      -3.3669      2.00000
     16      -3.1672      2.00000
     17      -1.9258      2.00000
     18      -1.8583      2.00000
     19      -0.0095      0.00000
     20       0.0091      0.00000
     21       0.3323      0.00000
     22       0.4969      0.00000
     23       1.4516      0.00000
     24       1.5312      0.00000

 k-point    80 :       0.4737    0.8750    0.0000
  band No.  band energies     occupation 
      1     -13.7584      2.00000
      2     -13.6631      2.00000
      3     -12.4382      2.00000
      4     -12.1783      2.00000
      5      -6.7958      2.00000
      6      -6.6294      2.00000
      7      -6.1725      2.00000
      8      -6.0003      2.00000
      9      -5.1505      2.00000
     10      -5.1469      2.00000
     11      -4.6815      2.00000
     12      -4.6800      2.00000
     13      -4.2196      2.00000
     14      -3.8811      2.00000
     15      -3.3210      2.00000
     16      -3.2160      2.00000
     17      -1.9929      2.00000
     18      -1.9307      2.00000
     19      -0.1080      0.00000
     20      -0.1052      0.00000
     21       0.3651      0.00000
     22       0.5081      0.00000
     23       1.2195      0.00000
     24       1.2366      0.00000


--------------------------------------------------------------------------------------------------------


 soft charge-density along one line, spin component           1
         0         1         2         3         4         5         6         7         8         9
 total charge-density along one line
 
 pseudopotential strength for first ion, spin component:           1
 -9.495   0.000  -0.000   0.001  -0.000  -9.685   0.000  -0.000
  0.000  -9.499  -0.000   0.000   0.001   0.000  -9.690  -0.000
 -0.000  -0.000  -9.496   0.000   0.001  -0.000  -0.000  -9.687
  0.001   0.000   0.000  -9.500   0.000   0.001   0.000   0.000
 -0.000   0.001   0.001   0.000  -9.495  -0.000   0.001   0.001
 -9.685   0.000  -0.000   0.001  -0.000  -9.866   0.000  -0.000
  0.000  -9.690  -0.000   0.000   0.001   0.000  -9.870  -0.000
 -0.000  -0.000  -9.687   0.000   0.001  -0.000  -0.000  -9.867
  0.001   0.000   0.000  -9.691   0.000   0.001   0.000   0.000
 -0.000   0.001   0.001   0.000  -9.685  -0.000   0.001   0.001
 -0.000  -0.000   0.001  -0.000   0.000  -0.000  -0.000   0.001
 -0.000  -0.000   0.002  -0.000   0.001  -0.000  -0.000   0.002
  0.000  -0.028   0.000  -0.000   0.003   0.000  -0.029   0.000
 -0.000  -0.000  -0.030   0.000  -0.000  -0.000  -0.000  -0.030
  0.003  -0.000  -0.000  -0.029   0.000   0.003  -0.000  -0.000
  0.000  -0.035   0.000  -0.000   0.004   0.000  -0.036   0.000
 -0.000  -0.000  -0.038   0.000  -0.000  -0.000  -0.000  -0.038
  0.004  -0.000  -0.000  -0.036   0.000   0.004  -0.000  -0.000
 total augmentation occupancy for first ion, spin component:           1
  1.000   0.000   0.000   0.000   0.000   0.000   0.000   0.000   0.000   0.000   0.000   0.000   0.000   0.000   0.000   0.000
  0.000   1.000   0.000   0.000   0.000   0.000   0.000   0.000   0.000   0.000   0.000   0.000   0.000   0.000   0.000   0.000
  0.000   0.000   1.000   0.000   0.000   0.000   0.000   0.000   0.000   0.000   0.000   0.000   0.000   0.000   0.000   0.000
  0.000   0.000   0.000   1.000   0.000   0.000   0.000   0.000   0.000   0.000   0.000   0.000   0.000   0.000   0.000   0.000
  0.000   0.000   0.000   0.000   1.000   0.000   0.000   0.000   0.000   0.000   0.000   0.000   0.000   0.000   0.000   0.000
  0.000   0.000   0.000   0.000   0.000   0.000   0.000   0.000   0.000   0.000   0.000   0.000   0.000   0.000   0.000   0.000
  0.000   0.000   0.000   0.000   0.000   0.000   0.000   0.000   0.000   0.000   0.000   0.000   0.000   0.000   0.000   0.000
  0.000   0.000   0.000   0.000   0.000   0.000   0.000   0.000   0.000   0.000   0.000   0.000   0.000   0.000   0.000   0.000
  0.000   0.000   0.000   0.000   0.000   0.000   0.000   0.000   0.000   0.000   0.000   0.000   0.000   0.000   0.000   0.000
  0.000   0.000   0.000   0.000   0.000   0.000   0.000   0.000   0.000   0.000   0.000   0.000   0.000   0.000   0.000   0.000
  0.000   0.000   0.000   0.000   0.000   0.000   0.000   0.000   0.000   0.000   1.000   0.000   0.000   0.000   0.000   0.000
  0.000   0.000   0.000   0.000   0.000   0.000   0.000   0.000   0.000   0.000   0.000   0.000   0.000   0.000   0.000   0.000
  0.000   0.000   0.000   0.000   0.000   0.000   0.000   0.000   0.000   0.000   0.000   0.000   0.000   0.000   0.000   0.000
  0.000   0.000   0.000   0.000   0.000   0.000   0.000   0.000   0.000   0.000   0.000   0.000   0.000   0.000   0.000   0.000
  0.000   0.000   0.000   0.000   0.000   0.000   0.000   0.000   0.000   0.000   0.000   0.000   0.000   0.000   0.000   0.000
  0.000   0.000   0.000   0.000   0.000   0.000   0.000   0.000   0.000   0.000   0.000   0.000   0.000   0.000   0.000   0.000
  0.000   0.000   0.000   0.000   0.000   0.000   0.000   0.000   0.000   0.000   0.000   0.000   0.000   0.000   0.000   0.000
  0.000   0.000   0.000   0.000   0.000   0.000   0.000   0.000   0.000   0.000   0.000   0.000   0.000   0.000   0.000   0.000


------------------------ aborting loop because EDIFF is reached ----------------------------------------


    CHARGE:  cpu time    0.0334: real time    0.0334
    FORLOC:  cpu time    0.0003: real time    0.0003
    FORNL :  cpu time    0.0491: real time    0.0491
    STRESS:  cpu time    0.2418: real time    0.2418
    FORCOR:  cpu time    0.0141: real time    0.0141
    FORHAR:  cpu time    0.0026: real time    0.0026
    OFIELD:  cpu time    0.0000: real time    0.0000

  FORCE on cell =-STRESS in cart. coord.  units (eV):
  Direction    XX          YY          ZZ          XY          YZ          ZX
  --------------------------------------------------------------------------------------
  Alpha Z    26.20911    26.20911    26.20911
  Ewald    5271.41777  5272.41632 -6348.00664     0.00000    -0.21488     0.00000
  Hartree  5479.78787  5480.15416 -5419.25079    -0.00000    -0.08448    -0.00000
  E(xc)    -145.45479  -145.47930  -147.26764     0.00000    -0.00164    -0.00000
  Local  -11307.53017-11308.88120 11198.74502     0.00000     0.30853     0.00000
  n-local   324.01907   323.94102   339.11461     0.00001    -0.01756    -0.00000
  augment   -67.63819   -67.60409   -71.25731    -0.00000     0.00587     0.00000
  Kinetic   419.35727   419.81604   421.70425     0.00000     0.00476     0.00000
  Fock        0.00000     0.00000     0.00000     0.00000     0.00000     0.00000
  -------------------------------------------------------------------------------------
  Total       0.16794     0.57206    -0.00939     0.00001     0.00059     0.00000
  in kB       0.68070     2.31871    -0.03807     0.00002     0.00238     0.00001
  external pressure =        0.99 kB  Pullay stress =        0.00 kB


 VOLUME and BASIS-vectors are now :
 -----------------------------------------------------------------------------
  energy-cutoff  :      600.00
  volume of cell :      395.28
      direct lattice vectors                 reciprocal lattice vectors
     3.363599539  0.000000000  0.000000000     0.297300552  0.000000000  0.000000000
     0.000000000  5.802622124  0.000000000     0.000000000  0.172335882  0.000000000
     0.000000000  0.000000000 20.252588272     0.000000000  0.000000000  0.049376405

  length of vectors
     3.363599539  5.802622124 20.252588272     0.297300552  0.172335882  0.049376405


 FORCES acting on ions
    electron-ion (+dipol)            ewald-force                    non-local-force                 convergence-correction
 -----------------------------------------------------------------------------------------------
   0.133E-05 -.343E+00 -.371E+01   0.122E-06 0.341E+00 0.611E+01   0.122E-05 0.115E-02 -.236E+01   -.223E-05 0.681E-03 -.423E-01
   0.117E-05 -.342E+00 -.371E+01   -.266E-06 0.341E+00 0.611E+01   0.115E-05 0.121E-02 -.236E+01   -.177E-05 -.405E-03 -.419E-01
   0.137E-04 0.233E+00 -.468E+03   0.431E-06 -.224E+00 0.474E+03   -.882E-05 -.622E-02 -.552E+01   -.597E-05 -.254E-02 -.167E-01
   0.138E-04 0.228E+00 -.468E+03   -.434E-07 -.224E+00 0.474E+03   -.825E-05 -.639E-02 -.553E+01   -.489E-05 0.260E-02 -.159E-01
   0.573E-05 0.121E+00 0.475E+03   -.308E-06 -.118E+00 -.480E+03   -.306E-05 -.120E-02 0.457E+01   -.973E-06 -.178E-02 -.282E-01
   0.280E-05 0.116E+00 0.475E+03   0.647E-07 -.117E+00 -.480E+03   -.190E-05 -.112E-02 0.457E+01   -.747E-06 0.180E-02 -.290E-01
 -----------------------------------------------------------------------------------------------
   0.385E-04 0.121E-01 0.681E+01   -.130E-13 0.150E-14 0.114E-12   -.197E-04 -.126E-01 -.663E+01   -.166E-04 0.359E-03 -.174E+00
 
 
 POSITION                                       TOTAL-FORCE (eV/Angst)
 -----------------------------------------------------------------------------------
      1.68180      0.96819     10.26910         0.000000     -0.000102     -0.001134
      3.36360      3.86950     10.26910        -0.000000     -0.000077     -0.000982
      1.68180      4.83490     11.74435        -0.000001      0.000255     -0.001190
      3.36360      1.93359     11.74435         0.000000      0.000080     -0.001266
      1.68180      4.83505      8.36543         0.000001     -0.000018      0.002249
      3.36360      1.93374      8.36543        -0.000000     -0.000138      0.002323
 -----------------------------------------------------------------------------------
    total drift:                                0.000002     -0.000064      0.001310


--------------------------------------------------------------------------------------------------------



  FREE ENERGIE OF THE ION-ELECTRON SYSTEM (eV)
  ---------------------------------------------------
  free  energy   TOTEN  =       -39.42343701 eV

  energy  without entropy=      -39.42343701  energy(sigma->0) =      -39.42343701
 


--------------------------------------------------------------------------------------------------------


    POTLOK:  cpu time    0.0147: real time    0.0147

 Berry-Phase calculation of electronic polarization

   IGPAR = 2   NPPSTR =    8


k-mesh defined as follows:

IGPAR =    2
NKPTS =   80  NSTR =   10  NPPSTR =    8
 

Average Det|M_k|=  (   0.38831   0.64841 )
 
K-point string #    1 weight=  0.05263158
  0.000000  0.000000  0.000000
  0.000000  0.125000  0.000000
  0.000000  0.250000  0.000000
  0.000000  0.375000  0.000000
  0.000000  0.500000  0.000000
  0.000000  0.625000  0.000000
  0.000000  0.750000  0.000000
  0.000000  0.875000  0.000000
                     Det|M_k|=  (   1.00000  -0.00086 )
              Im ln[Det|M_k|]=      0.00014 electrons
Im ln[Det|M_k|/<Det|M_k|>_av]=      1.03208
 
K-point string #    2 weight=  0.10526316
  0.052632  0.000000  0.000000
  0.052632  0.125000  0.000000
  0.052632  0.250000  0.000000
  0.052632  0.375000  0.000000
  0.052632  0.500000  0.000000
  0.052632  0.625000  0.000000
  0.052632  0.750000  0.000000
  0.052632  0.875000  0.000000
                     Det|M_k|=  (   0.99735   0.07278 )
              Im ln[Det|M_k|]=     -0.01159 electrons
Im ln[Det|M_k|/<Det|M_k|>_av]=      0.95837
 
K-point string #    3 weight=  0.10526316
  0.105263  0.000000  0.000000
  0.105263  0.125000  0.000000
  0.105263  0.250000  0.000000
  0.105263  0.375000  0.000000
  0.105263  0.500000  0.000000
  0.105263  0.625000  0.000000
  0.105263  0.750000  0.000000
  0.105263  0.875000  0.000000
                     Det|M_k|=  (   0.96349   0.26774 )
              Im ln[Det|M_k|]=     -0.04314 electrons
Im ln[Det|M_k|/<Det|M_k|>_av]=      0.76017
 
K-point string #    4 weight=  0.10526316
  0.157895  0.000000  0.000000
  0.157895  0.125000  0.000000
  0.157895  0.250000  0.000000
  0.157895  0.375000  0.000000
  0.157895  0.500000  0.000000
  0.157895  0.625000  0.000000
  0.157895  0.750000  0.000000
  0.157895  0.875000  0.000000
                     Det|M_k|=  (   0.86244   0.50617 )
              Im ln[Det|M_k|]=     -0.08447 electrons
Im ln[Det|M_k|/<Det|M_k|>_av]=      0.50048
 
K-point string #    5 weight=  0.10526316
  0.210526  0.000000  0.000000
  0.210526  0.125000  0.000000
  0.210526  0.250000  0.000000
  0.210526  0.375000  0.000000
  0.210526  0.500000  0.000000
  0.210526  0.625000  0.000000
  0.210526  0.750000  0.000000
  0.210526  0.875000  0.000000
                     Det|M_k|=  (   0.70100   0.71317 )
              Im ln[Det|M_k|]=     -0.12637 electrons
Im ln[Det|M_k|/<Det|M_k|>_av]=      0.23721
 
K-point string #    6 weight=  0.10526316
  0.263158  0.000000  0.000000
  0.263158  0.125000  0.000000
  0.263158  0.250000  0.000000
  0.263158  0.375000  0.000000
  0.263158  0.500000  0.000000
  0.263158  0.625000  0.000000
  0.263158  0.750000  0.000000
  0.263158  0.875000  0.000000
                     Det|M_k|=  (   0.49220   0.87048 )
              Im ln[Det|M_k|]=     -0.16810 electrons
Im ln[Det|M_k|/<Det|M_k|>_av]=      0.02496
 
K-point string #    7 weight=  0.10526316
  0.315789  0.000000  0.000000
  0.315789  0.125000  0.000000
  0.315789  0.250000  0.000000
  0.315789  0.375000  0.000000
  0.315789  0.500000  0.000000
  0.315789  0.625000  0.000000
  0.315789  0.750000  0.000000
  0.315789  0.875000  0.000000
                     Det|M_k|=  (   0.21905   0.97571 )
              Im ln[Det|M_k|]=     -0.21485 electrons
Im ln[Det|M_k|/<Det|M_k|>_av]=      0.31874
 
K-point string #    8 weight=  0.10526316
  0.368421  0.000000  0.000000
  0.368421  0.125000  0.000000
  0.368421  0.250000  0.000000
  0.368421  0.375000  0.000000
  0.368421  0.500000  0.000000
  0.368421  0.625000  0.000000
  0.368421  0.750000  0.000000
  0.368421  0.875000  0.000000
                     Det|M_k|=  (  -0.11224   0.99368 )
              Im ln[Det|M_k|]=     -0.26790 electrons
Im ln[Det|M_k|/<Det|M_k|>_av]=      0.65205
 
K-point string #    9 weight=  0.10526316
  0.421053  0.000000  0.000000
  0.421053  0.125000  0.000000
  0.421053  0.250000  0.000000
  0.421053  0.375000  0.000000
  0.421053  0.500000  0.000000
  0.421053  0.625000  0.000000
  0.421053  0.750000  0.000000
  0.421053  0.875000  0.000000
                     Det|M_k|=  (  -0.39439   0.91894 )
              Im ln[Det|M_k|]=     -0.31452 electrons
Im ln[Det|M_k|/<Det|M_k|>_av]=      0.94498
 
K-point string #   10 weight=  0.10526316
  0.473684  0.000000  0.000000
  0.473684  0.125000  0.000000
  0.473684  0.250000  0.000000
  0.473684  0.375000  0.000000
  0.473684  0.500000  0.000000
  0.473684  0.625000  0.000000
  0.473684  0.750000  0.000000
  0.473684  0.875000  0.000000
                     Det|M_k|=  (  -0.53998   0.84168 )
              Im ln[Det|M_k|]=     -0.34078 electrons
Im ln[Det|M_k|/<Det|M_k|>_av]=      1.10999
 
 
                                e<r>_ev=(    -0.00000     0.00061    -0.00807 ) e*Angst
                                e<r>_bp=(     0.00000    -1.91994     0.00000 ) e*Angst
 
 Total electronic dipole moment: p[elc]=(    -0.00000    -1.91933    -0.00807 ) e*Angst
 
            ionic dipole moment: p[ion]=(   -30.27239    -5.80260     0.00001 ) e*Angst
 


--------------------------------------------------------------------------------------------------------


     LOOP+:  cpu time   10.7133: real time   10.7476
    4ORBIT:  cpu time    0.0000: real time    0.0000

 total amount of memory used by VASP MPI-rank0    55685. kBytes
=======================================================================

   base      :      30000. kBytes
   nonl-proj :      19407. kBytes
   fftplans  :       1398. kBytes
   grid      :       2623. kBytes
   one-center:         15. kBytes
   wavefun   :       2242. kBytes
 
  
  
 General timing and accounting informations for this job:
 ========================================================
  
                  Total CPU time used (sec):       16.496
                            User time (sec):       14.026
                          System time (sec):        2.470
                         Elapsed time (sec):       16.570
  
                   Maximum memory used (kb):      156056.
                   Average memory used (kb):           0.
  
                          Minor page faults:        21855
                          Major page faults:          310
                 Voluntary context switches:         1226
