
     Program PWSCF v.6.6 starts on  8May2023 at  6:23:50 

     This program is part of the open-source Quantum ESPRESSO suite
     for quantum simulation of materials; please cite
         "P. Giannozzi et al., J. Phys.:Condens. Matter 21 395502 (2009);
         "P. Giannozzi et al., J. Phys.:Condens. Matter 29 465901 (2017);
          URL http://www.quantum-espresso.org", 
     in publications or presentations arising from this work. More details at
     http://www.quantum-espresso.org/quote

     Parallel version (MPI), running on    24 processors

     MPI processes distributed on     1 nodes
     R & G space division:  proc/nbgrp/npool/nimage =      24
     Fft bands division:     nmany     =       1
     Reading input from INCAR-relax.pw
Warning: card &CELL ignored
Warning: card     CELL_DYNAMICS  = "BFGS" ignored
Warning: card     ! CELL_DOFREE = "XY" ignored
Warning: card / ignored

     Current dimensions of program PWSCF are:
     Max number of different atomic species (ntypx) = 10
     Max number of k-points (npk) =  40000
     Max angular momentum in pseudopotentials (lmaxx) =  3

     Subspace diagonalization in iterative solution of the eigenvalue problem:
     a serial algorithm will be used

     Message from routine setup:
     using ibrav=0 with symmetry is DISCOURAGED, use correct ibrav instead
 
     Parallelization info
     --------------------
     sticks:   dense  smooth     PW     G-vecs:    dense   smooth      PW
     Min         133      70     20                26099    10158    1500
     Max         134      71     21                26105    10171    1505
     Sum        3195    1701    485               626469   243999   36041
 


     bravais-lattice index     =            0
     lattice parameter (alat)  =       8.2436  a.u.
     unit-cell volume          =    2524.4304 (a.u.)^3
     number of atoms/cell      =            4
     number of atomic types    =            2
     number of electrons       =        40.00
     number of Kohn-Sham states=           24
     kinetic-energy cutoff     =      80.0000  Ry
     charge density cutoff     =     600.0000  Ry
     convergence threshold     =      1.0E-10
     mixing beta               =       0.7000
     number of iterations used =            8  plain     mixing
     Exchange-correlation= SLA  PW   PBE  PBE
                           (   1   4   3   4   0   0   0)
     nstep                     =          100


     celldm(1)=   8.243577  celldm(2)=   0.000000  celldm(3)=   0.000000
     celldm(4)=   0.000000  celldm(5)=   0.000000  celldm(6)=   0.000000

     crystal axes: (cart. coord. in units of alat)
               a(1) = (   1.000000   0.000000   0.000000 )  
               a(2) = (   0.000000   0.982886   0.000000 )  
               a(3) = (   0.000000   0.000000   4.584724 )  

     reciprocal axes: (cart. coord. in units 2 pi/alat)
               b(1) = (  1.000000  0.000000  0.000000 )  
               b(2) = (  0.000000  1.017412  0.000000 )  
               b(3) = (  0.000000  0.000000  0.218116 )  


     PseudoPot. # 1 for Sn read from file:
     ./Sn_pbe_v1.uspp.F.UPF
     MD5 check sum: 4cf58ce39ec5d5d420df3dd08604eb00
     Pseudo is Ultrasoft + core correction, Zval = 14.0
     Generated by new atomic code, or converted to UPF format
     Using radial grid of  891 points,  6 beta functions with: 
                l(1) =   0
                l(2) =   0
                l(3) =   1
                l(4) =   1
                l(5) =   2
                l(6) =   2
     Q(r) pseudized with  6 coefficients,  rinner =    1.200   1.200   1.200
                                                       1.200   1.200

     PseudoPot. # 2 for Se read from file:
     ./Se_pbe_v1.uspp.F.UPF
     MD5 check sum: 1b3568f3a8ae88f9a2a0ad0698632c85
     Pseudo is Ultrasoft + core correction, Zval =  6.0
     Generated by new atomic code, or converted to UPF format
     Using radial grid of  877 points,  6 beta functions with: 
                l(1) =   0
                l(2) =   0
                l(3) =   1
                l(4) =   1
                l(5) =   2
                l(6) =   2
     Q(r) pseudized with  8 coefficients,  rinner =    1.300   1.300   1.300
                                                       1.300   1.300

     atomic species   valence    mass     pseudopotential
        Sn            14.00   118.71000     Sn( 1.00)
        Se             6.00    78.96000     Se( 1.00)

      2 Sym. Ops. (no inversion) found ( 1 have fractional translation)



   Cartesian axes

     site n.     atom                  positions (alat units)
         1           Sn  tau(   1) = (   0.5839905   0.7371645   0.6627505  )
         2           Sn  tau(   2) = (   0.0839891   0.2457215   0.0302115  )
         3           Se  tau(   3) = (   0.0301155   0.2457215   0.6524944  )
         4           Se  tau(   4) = (   0.5301129   0.7371645   0.0404599  )

     number of k points=    64  Marzari-Vanderbilt smearing, width (Ry)=  0.0100
                       cart. coord. in units 2pi/alat
        k(    1) = (   0.0000000   0.0000000   0.0000000), wk =   0.0088889
        k(    2) = (   0.0000000   0.0678275   0.0000000), wk =   0.0177778
        k(    3) = (   0.0000000   0.1356549   0.0000000), wk =   0.0177778
        k(    4) = (   0.0000000   0.2034824   0.0000000), wk =   0.0177778
        k(    5) = (   0.0000000   0.2713099   0.0000000), wk =   0.0177778
        k(    6) = (   0.0000000   0.3391373   0.0000000), wk =   0.0177778
        k(    7) = (   0.0000000   0.4069648   0.0000000), wk =   0.0177778
        k(    8) = (   0.0000000   0.4747923   0.0000000), wk =   0.0177778
        k(    9) = (   0.0666667   0.0000000   0.0000000), wk =   0.0177778
        k(   10) = (   0.0666667   0.0678275   0.0000000), wk =   0.0355556
        k(   11) = (   0.0666667   0.1356549   0.0000000), wk =   0.0355556
        k(   12) = (   0.0666667   0.2034824   0.0000000), wk =   0.0355556
        k(   13) = (   0.0666667   0.2713099   0.0000000), wk =   0.0355556
        k(   14) = (   0.0666667   0.3391373   0.0000000), wk =   0.0355556
        k(   15) = (   0.0666667   0.4069648   0.0000000), wk =   0.0355556
        k(   16) = (   0.0666667   0.4747923   0.0000000), wk =   0.0355556
        k(   17) = (   0.1333333   0.0000000   0.0000000), wk =   0.0177778
        k(   18) = (   0.1333333   0.0678275   0.0000000), wk =   0.0355556
        k(   19) = (   0.1333333   0.1356549   0.0000000), wk =   0.0355556
        k(   20) = (   0.1333333   0.2034824   0.0000000), wk =   0.0355556
        k(   21) = (   0.1333333   0.2713099   0.0000000), wk =   0.0355556
        k(   22) = (   0.1333333   0.3391373   0.0000000), wk =   0.0355556
        k(   23) = (   0.1333333   0.4069648   0.0000000), wk =   0.0355556
        k(   24) = (   0.1333333   0.4747923   0.0000000), wk =   0.0355556
        k(   25) = (   0.2000000   0.0000000   0.0000000), wk =   0.0177778
        k(   26) = (   0.2000000   0.0678275   0.0000000), wk =   0.0355556
        k(   27) = (   0.2000000   0.1356549   0.0000000), wk =   0.0355556
        k(   28) = (   0.2000000   0.2034824   0.0000000), wk =   0.0355556
        k(   29) = (   0.2000000   0.2713099   0.0000000), wk =   0.0355556
        k(   30) = (   0.2000000   0.3391373   0.0000000), wk =   0.0355556
        k(   31) = (   0.2000000   0.4069648   0.0000000), wk =   0.0355556
        k(   32) = (   0.2000000   0.4747923   0.0000000), wk =   0.0355556
        k(   33) = (   0.2666667   0.0000000   0.0000000), wk =   0.0177778
        k(   34) = (   0.2666667   0.0678275   0.0000000), wk =   0.0355556
        k(   35) = (   0.2666667   0.1356549   0.0000000), wk =   0.0355556
        k(   36) = (   0.2666667   0.2034824   0.0000000), wk =   0.0355556
        k(   37) = (   0.2666667   0.2713099   0.0000000), wk =   0.0355556
        k(   38) = (   0.2666667   0.3391373   0.0000000), wk =   0.0355556
        k(   39) = (   0.2666667   0.4069648   0.0000000), wk =   0.0355556
        k(   40) = (   0.2666667   0.4747923   0.0000000), wk =   0.0355556
        k(   41) = (   0.3333333   0.0000000   0.0000000), wk =   0.0177778
        k(   42) = (   0.3333333   0.0678275   0.0000000), wk =   0.0355556
        k(   43) = (   0.3333333   0.1356549   0.0000000), wk =   0.0355556
        k(   44) = (   0.3333333   0.2034824   0.0000000), wk =   0.0355556
        k(   45) = (   0.3333333   0.2713099   0.0000000), wk =   0.0355556
        k(   46) = (   0.3333333   0.3391373   0.0000000), wk =   0.0355556
        k(   47) = (   0.3333333   0.4069648   0.0000000), wk =   0.0355556
        k(   48) = (   0.3333333   0.4747923   0.0000000), wk =   0.0355556
        k(   49) = (   0.4000000   0.0000000   0.0000000), wk =   0.0177778
        k(   50) = (   0.4000000   0.0678275   0.0000000), wk =   0.0355556
        k(   51) = (   0.4000000   0.1356549   0.0000000), wk =   0.0355556
        k(   52) = (   0.4000000   0.2034824   0.0000000), wk =   0.0355556
        k(   53) = (   0.4000000   0.2713099   0.0000000), wk =   0.0355556
        k(   54) = (   0.4000000   0.3391373   0.0000000), wk =   0.0355556
        k(   55) = (   0.4000000   0.4069648   0.0000000), wk =   0.0355556
        k(   56) = (   0.4000000   0.4747923   0.0000000), wk =   0.0355556
        k(   57) = (   0.4666667   0.0000000   0.0000000), wk =   0.0177778
        k(   58) = (   0.4666667   0.0678275   0.0000000), wk =   0.0355556
        k(   59) = (   0.4666667   0.1356549   0.0000000), wk =   0.0355556
        k(   60) = (   0.4666667   0.2034824   0.0000000), wk =   0.0355556
        k(   61) = (   0.4666667   0.2713099   0.0000000), wk =   0.0355556
        k(   62) = (   0.4666667   0.3391373   0.0000000), wk =   0.0355556
        k(   63) = (   0.4666667   0.4069648   0.0000000), wk =   0.0355556
        k(   64) = (   0.4666667   0.4747923   0.0000000), wk =   0.0355556

     Dense  grid:   626469 G-vectors     FFT dimensions: (  72,  64, 300)

     Smooth grid:   243999 G-vectors     FFT dimensions: (  48,  48, 216)

     Estimated max dynamical RAM per process >     127.08 MB

     Estimated total dynamical RAM >       2.98 GB

     Initial potential from superposition of free atoms

     starting charge   37.99977, renormalised to   40.00000

     negative rho (up, down):  2.831E-03 0.000E+00
     Starting wfcs are   26 randomized atomic wfcs

     total cpu time spent up to now is        2.6 secs

     Self-consistent Calculation

     iteration #  1     ecut=    80.00 Ry     beta= 0.70
     Davidson diagonalization with overlap
     ethr =  1.00E-02,  avg # of iterations =  3.7

     negative rho (up, down):  5.604E-04 0.000E+00

     total cpu time spent up to now is        7.6 secs

     total energy              =    -413.24333732 Ry
     estimated scf accuracy    <       1.34322102 Ry

     iteration #  2     ecut=    80.00 Ry     beta= 0.70
     Davidson diagonalization with overlap
     ethr =  3.36E-03,  avg # of iterations =  2.2

     negative rho (up, down):  1.113E-04 0.000E+00

     total cpu time spent up to now is       12.4 secs

     total energy              =    -413.64096659 Ry
     estimated scf accuracy    <       0.65575408 Ry

     iteration #  3     ecut=    80.00 Ry     beta= 0.70
     Davidson diagonalization with overlap
     ethr =  1.64E-03,  avg # of iterations =  2.0

     negative rho (up, down):  2.468E-05 0.000E+00

     total cpu time spent up to now is       16.5 secs

     total energy              =    -413.79944445 Ry
     estimated scf accuracy    <       0.02302286 Ry

     iteration #  4     ecut=    80.00 Ry     beta= 0.70
     Davidson diagonalization with overlap
     ethr =  5.76E-05,  avg # of iterations =  3.0

     negative rho (up, down):  2.329E-05 0.000E+00

     total cpu time spent up to now is       20.8 secs

     total energy              =    -413.80337849 Ry
     estimated scf accuracy    <       0.00097791 Ry

     iteration #  5     ecut=    80.00 Ry     beta= 0.70
     Davidson diagonalization with overlap
     ethr =  2.44E-06,  avg # of iterations =  6.4

     negative rho (up, down):  2.804E-05 0.000E+00

     total cpu time spent up to now is       26.1 secs

     total energy              =    -413.80356987 Ry
     estimated scf accuracy    <       0.00066341 Ry

     iteration #  6     ecut=    80.00 Ry     beta= 0.70
     Davidson diagonalization with overlap
     ethr =  1.66E-06,  avg # of iterations =  2.6

     negative rho (up, down):  2.767E-05 0.000E+00

     total cpu time spent up to now is       30.3 secs

     total energy              =    -413.80366940 Ry
     estimated scf accuracy    <       0.00005581 Ry

     iteration #  7     ecut=    80.00 Ry     beta= 0.70
     Davidson diagonalization with overlap
     ethr =  1.40E-07,  avg # of iterations =  3.8

     negative rho (up, down):  2.781E-05 0.000E+00

     total cpu time spent up to now is       34.9 secs

     total energy              =    -413.80368134 Ry
     estimated scf accuracy    <       0.00002401 Ry

     iteration #  8     ecut=    80.00 Ry     beta= 0.70
     Davidson diagonalization with overlap
     ethr =  6.00E-08,  avg # of iterations =  2.2

     negative rho (up, down):  2.806E-05 0.000E+00

     total cpu time spent up to now is       38.9 secs

     total energy              =    -413.80368529 Ry
     estimated scf accuracy    <       0.00000028 Ry

     iteration #  9     ecut=    80.00 Ry     beta= 0.70
     Davidson diagonalization with overlap
     ethr =  7.10E-10,  avg # of iterations =  6.2

     negative rho (up, down):  2.824E-05 0.000E+00

     total cpu time spent up to now is       45.7 secs

     total energy              =    -413.80368611 Ry
     estimated scf accuracy    <       0.00000017 Ry

     iteration # 10     ecut=    80.00 Ry     beta= 0.70
     Davidson diagonalization with overlap
     ethr =  4.24E-10,  avg # of iterations =  2.0

     negative rho (up, down):  2.823E-05 0.000E+00

     total cpu time spent up to now is       49.7 secs

     total energy              =    -413.80368615 Ry
     estimated scf accuracy    <          4.4E-09 Ry

     iteration # 11     ecut=    80.00 Ry     beta= 0.70
     Davidson diagonalization with overlap
     ethr =  1.11E-11,  avg # of iterations =  3.9

     negative rho (up, down):  2.823E-05 0.000E+00

     total cpu time spent up to now is       54.7 secs

     total energy              =    -413.80368615 Ry
     estimated scf accuracy    <          4.5E-10 Ry

     iteration # 12     ecut=    80.00 Ry     beta= 0.70
     Davidson diagonalization with overlap
     ethr =  1.13E-12,  avg # of iterations =  3.5

     negative rho (up, down):  2.823E-05 0.000E+00

     total cpu time spent up to now is       59.7 secs

     End of self-consistent calculation

          k = 0.0000 0.0000 0.0000 ( 30567 PWs)   bands (ev):

   -22.1521 -22.1440 -22.1439 -22.1408 -22.1375 -22.1157 -22.1101 -22.1082
   -22.0976 -22.0950 -14.2286 -13.1913  -7.1252  -6.1077  -4.3360  -3.9482
    -3.9253  -2.7606  -2.6917  -1.4574   0.6405   2.4187   2.8985   3.0832

          k = 0.0000 0.0678 0.0000 ( 30551 PWs)   bands (ev):

   -22.1516 -22.1443 -22.1435 -22.1408 -22.1374 -22.1158 -22.1101 -22.1079
   -22.0979 -22.0950 -14.2086 -13.1871  -7.1962  -6.1899  -4.3410  -3.9355
    -3.8496  -2.7347  -2.5928  -1.4708   0.6514   2.4982   2.8946   2.9373

          k = 0.0000 0.1357 0.0000 ( 30571 PWs)   bands (ev):

   -22.1501 -22.1452 -22.1425 -22.1412 -22.1370 -22.1162 -22.1101 -22.1071
   -22.0987 -22.0951 -14.1496 -13.1770  -7.3829  -6.4187  -4.3244  -3.8555
    -3.6828  -2.6717  -2.3296  -1.5161   0.6908   2.4264   2.6698   2.6833

          k = 0.0000 0.2035 0.0000 ( 30563 PWs)   bands (ev):

   -22.1482 -22.1465 -22.1421 -22.1411 -22.1357 -22.1168 -22.1100 -22.1059
   -22.1000 -22.0952 -14.0550 -13.1678  -7.6260  -6.7452  -4.2478  -3.7131
    -3.4608  -2.5824  -1.9780  -1.6003   0.7746   1.7826   2.2232   2.6855

          k = 0.0000 0.2713 0.0000 ( 30489 PWs)   bands (ev):

   -22.1479 -22.1471 -22.1424 -22.1396 -22.1335 -22.1177 -22.1097 -22.1044
   -22.1015 -22.0955 -13.9306 -13.1698  -7.8639  -7.1103  -4.1058  -3.5201
    -3.2217  -2.4881  -1.7094  -1.5897   0.9186   1.1339   1.7435   2.3614

          k = 0.0000 0.3391 0.0000 ( 30503 PWs)   bands (ev):

   -22.1491 -22.1478 -22.1412 -22.1384 -22.1309 -22.1189 -22.1092 -22.1031
   -22.1027 -22.0960 -13.7852 -13.1954  -8.0467  -7.4643  -3.9095  -3.2961
    -3.0259  -2.4239  -1.7790  -1.2079   0.5500   1.1268   1.3561   1.8543

          k = 0.0000 0.4070 0.0000 ( 30467 PWs)   bands (ev):

   -22.1500 -22.1491 -22.1396 -22.1377 -22.1280 -22.1206 -22.1084 -22.1046
   -22.1009 -22.0968 -13.6304 -13.2548  -8.1393  -7.7691  -3.6753  -3.1200
    -2.9159  -2.4324  -1.6932  -0.9546   0.1734   1.1378   1.2244   1.4653

          k = 0.0000 0.4748 0.0000 ( 30420 PWs)   bands (ev):

   -22.1503 -22.1500 -22.1384 -22.1377 -22.1252 -22.1227 -22.1073 -22.1061
   -22.0993 -22.0978 -13.4809 -13.3516  -8.1231  -7.9958  -3.4261  -3.2039
    -2.7287  -2.5399  -1.4224  -1.0858   0.2806   0.7173   1.1297   1.3233

          k = 0.0667 0.0000 0.0000 ( 30547 PWs)   bands (ev):

   -22.1519 -22.1442 -22.1437 -22.1401 -22.1378 -22.1158 -22.1099 -22.1081
   -22.0977 -22.0952 -14.2101 -13.1895  -7.1952  -6.1915  -4.3356  -3.9173
    -3.8561  -2.7394  -2.5824  -1.4759   0.6530   2.4711   2.7886   3.0105

          k = 0.0667 0.0678 0.0000 ( 30544 PWs)   bands (ev):

   -22.1514 -22.1446 -22.1433 -22.1404 -22.1375 -22.1159 -22.1100 -22.1078
   -22.0980 -22.0952 -14.1902 -13.1853  -7.2547  -6.2641  -4.3328  -4.0461
    -3.6508  -2.8223  -2.3953  -1.4864   0.6658   2.5402   2.5407   2.9914

          k = 0.0667 0.1357 0.0000 ( 30544 PWs)   bands (ev):

   -22.1499 -22.1455 -22.1423 -22.1412 -22.1367 -22.1162 -22.1101 -22.1069
   -22.0989 -22.0952 -14.1316 -13.1749  -7.4157  -6.4695  -4.3058  -4.1014
    -3.3787  -2.8510  -2.0873  -1.5214   0.7096   1.9887   2.6512   2.9506

          k = 0.0667 0.2035 0.0000 ( 30529 PWs)   bands (ev):

   -22.1482 -22.1468 -22.1423 -22.1408 -22.1351 -22.1168 -22.1101 -22.1057
   -22.1002 -22.0953 -14.0376 -13.1650  -7.6332  -6.7704  -4.2267  -4.0533
    -3.1044  -2.7984  -1.7629  -1.5831   0.7972   1.3976   2.4247   2.5895

          k = 0.0667 0.2713 0.0000 ( 30532 PWs)   bands (ev):

   -22.1483 -22.1475 -22.1423 -22.1393 -22.1330 -22.1177 -22.1098 -22.1042
   -22.1017 -22.0955 -13.9141 -13.1662  -7.8528  -7.1150  -4.0876  -3.9139
    -2.8759  -2.7015  -1.6470  -1.4804   0.8923   0.9379   1.8953   2.1123

          k = 0.0667 0.3391 0.0000 ( 30496 PWs)   bands (ev):

   -22.1496 -22.1484 -22.1409 -22.1381 -22.1304 -22.1189 -22.1093 -22.1033
   -22.1025 -22.0960 -13.7699 -13.1904  -8.0246  -7.4546  -3.8963  -3.7049
    -2.7675  -2.6167  -1.6411  -1.2986   0.5631   1.0821   1.4096   1.6745

          k = 0.0667 0.4070 0.0000 ( 30453 PWs)   bands (ev):

   -22.1505 -22.1497 -22.1392 -22.1374 -22.1277 -22.1206 -22.1085 -22.1048
   -22.1007 -22.0967 -13.6169 -13.2479  -8.1121  -7.7499  -3.6697  -3.4639
    -2.8176  -2.6197  -1.5150  -1.2338   0.4208   0.7999   1.4209   1.4957

          k = 0.0667 0.4748 0.0000 ( 30436 PWs)   bands (ev):

   -22.1509 -22.1506 -22.1380 -22.1374 -22.1250 -22.1226 -22.1075 -22.1062
   -22.0991 -22.0977 -13.4695 -13.3425  -8.0952  -7.9707  -3.4396  -3.3133
    -2.8808  -2.7476  -1.3458  -1.2452   0.3804   0.4919   1.4791   1.7528

          k = 0.1333 0.0000 0.0000 ( 30519 PWs)   bands (ev):

   -22.1513 -22.1448 -22.1433 -22.1388 -22.1382 -22.1158 -22.1093 -22.1080
   -22.0980 -22.0959 -14.1555 -13.1862  -7.3768  -6.4207  -4.3086  -3.8255
    -3.6713  -2.6793  -2.2999  -1.5345   0.6968   2.3139   2.5714   2.8219

          k = 0.1333 0.0678 0.0000 ( 30558 PWs)   bands (ev):

   -22.1508 -22.1451 -22.1429 -22.1401 -22.1369 -22.1159 -22.1096 -22.1075
   -22.0984 -22.0958 -14.1360 -13.1816  -7.4108  -6.4703  -4.2942  -4.0869
    -3.3633  -2.8538  -2.0685  -1.5345   0.7143   1.9633   2.5816   2.9948

          k = 0.1333 0.1357 0.0000 ( 30530 PWs)   bands (ev):

   -22.1495 -22.1462 -22.1418 -22.1416 -22.1354 -22.1162 -22.1100 -22.1064
   -22.0994 -22.0956 -14.0784 -13.1703  -7.5095  -6.6172  -4.3150  -4.2486
    -3.0373  -3.0035  -1.7369  -1.5321   0.7683   1.4286   2.3935   3.0904

          k = 0.1333 0.2035 0.0000 ( 30530 PWs)   bands (ev):

   -22.1483 -22.1477 -22.1425 -22.1403 -22.1335 -22.1168 -22.1102 -22.1051
   -22.1007 -22.0955 -13.9863 -13.1588  -7.6579  -6.8486  -4.4157  -4.1651
    -3.1059  -2.7209  -1.5134  -1.5125   0.8591   1.0027   1.8783   2.9677

          k = 0.1333 0.2713 0.0000 ( 30505 PWs)   bands (ev):

   -22.1493 -22.1486 -22.1418 -22.1387 -22.1315 -22.1177 -22.1100 -22.1036
   -22.1022 -22.0956 -13.8657 -13.1571  -7.8228  -7.1331  -4.3830  -4.0361
    -3.0747  -2.5886  -1.5111  -1.4470   0.8365   0.9353   1.3978   2.6089

          k = 0.1333 0.3391 0.0000 ( 30480 PWs)   bands (ev):

   -22.1508 -22.1500 -22.1400 -22.1373 -22.1291 -22.1189 -22.1096 -22.1037
   -22.1019 -22.0959 -13.7256 -13.1770  -7.9606  -7.4286  -4.2339  -3.8626
    -3.0104  -2.6307  -1.6841  -1.3571   0.7325   0.9193   1.3752   2.2049

          k = 0.1333 0.4070 0.0000 ( 30440 PWs)   bands (ev):

   -22.1519 -22.1513 -22.1383 -22.1366 -22.1268 -22.1205 -22.1088 -22.1052
   -22.1003 -22.0965 -13.5778 -13.2288  -8.0320  -7.6943  -3.9972  -3.6648
    -3.0282  -2.7943  -1.8021  -1.3564   0.5530   1.0154   1.6203   1.9567

          k = 0.1333 0.4748 0.0000 ( 30471 PWs)   bands (ev):

   -22.1525 -22.1522 -22.1371 -22.1365 -22.1244 -22.1223 -22.1077 -22.1065
   -22.0987 -22.0975 -13.4367 -13.3167  -8.0128  -7.8968  -3.7195  -3.5443
    -3.1222  -3.0032  -1.7125  -1.5088   0.6286   0.8614   1.9225   2.0461

          k = 0.2000 0.0000 0.0000 ( 30555 PWs)   bands (ev):

   -22.1503 -22.1456 -22.1427 -22.1403 -22.1352 -22.1160 -22.1085 -22.1076
   -22.0984 -22.0969 -14.0680 -13.1871  -7.6092  -6.7412  -4.2247  -3.6766
    -3.4204  -2.5915  -1.9225  -1.6343   0.7873   1.7061   2.2989   2.5401

          k = 0.2000 0.0678 0.0000 ( 30562 PWs)   bands (ev):

   -22.1499 -22.1460 -22.1423 -22.1411 -22.1345 -22.1161 -22.1091 -22.1069
   -22.0990 -22.0966 -14.0490 -13.1821  -7.6178  -6.7659  -4.2052  -4.0264
    -3.0664  -2.8081  -1.7122  -1.6103   0.8093   1.3678   2.3428   2.6172

          k = 0.2000 0.1357 0.0000 ( 30541 PWs)   bands (ev):

   -22.1490 -22.1472 -22.1424 -22.1411 -22.1330 -22.1164 -22.1097 -22.1056
   -22.1002 -22.0961 -13.9933 -13.1690  -7.6474  -6.8442  -4.4040  -4.1500
    -3.1195  -2.7002  -1.5223  -1.4760   0.8687   0.9892   1.8538   2.9852

          k = 0.2000 0.2035 0.0000 ( 30508 PWs)   bands (ev):

   -22.1489 -22.1489 -22.1426 -22.1395 -22.1312 -22.1169 -22.1101 -22.1042
   -22.1015 -22.0958 -13.9045 -13.1543  -7.7043  -6.9823  -4.6595  -4.0672
    -3.3267  -2.5124  -1.5303  -1.3595   0.9021   0.9288   1.3967   3.0977

          k = 0.2000 0.2713 0.0000 ( 30492 PWs)   bands (ev):

   -22.1508 -22.1503 -22.1410 -22.1378 -22.1293 -22.1177 -22.1102 -22.1030
   -22.1027 -22.0957 -13.7889 -13.1474  -7.7841  -7.1745  -4.7596  -3.9628
    -3.3991  -2.5111  -1.8556  -1.2269   0.7176   1.1803   1.3587   2.8892

          k = 0.2000 0.3391 0.0000 ( 30484 PWs)   bands (ev):

   -22.1526 -22.1521 -22.1389 -22.1363 -22.1273 -22.1189 -22.1098 -22.1044
   -22.1011 -22.0959 -13.6557 -13.1600  -7.8625  -7.3957  -4.7042  -3.8319
    -3.4025  -2.6368  -2.2156  -1.3009   0.6370   1.5432   1.5693   2.5656

          k = 0.2000 0.4070 0.0000 ( 30441 PWs)   bands (ev):

   -22.1540 -22.1537 -22.1371 -22.1354 -22.1254 -22.1203 -22.1090 -22.1057
   -22.0996 -22.0963 -13.5171 -13.2021  -7.9039  -7.6088  -4.5167  -3.7218
    -3.4481  -2.8403  -2.3656  -1.5844   0.8149   1.7415   1.8548   2.3628

          k = 0.2000 0.4748 0.0000 ( 30433 PWs)   bands (ev):

   -22.1547 -22.1546 -22.1358 -22.1352 -22.1236 -22.1219 -22.1080 -22.1069
   -22.0982 -22.0971 -13.3869 -13.2786  -7.8796  -7.7784  -4.2331  -3.9102
    -3.3234  -3.0834  -2.2277  -1.9310   1.1346   1.4968   2.1641   2.3883

          k = 0.2667 0.0000 0.0000 ( 30548 PWs)   bands (ev):

   -22.1490 -22.1464 -22.1423 -22.1421 -22.1317 -22.1163 -22.1074 -22.1071
   -22.0991 -22.0982 -13.9526 -13.2012  -7.8323  -7.0941  -4.0801  -3.4774
    -3.1598  -2.4976  -1.7524  -1.5056   0.9386   1.0804   1.8018   2.2422

          k = 0.2667 0.0678 0.0000 ( 30525 PWs)   bands (ev):

   -22.1488 -22.1469 -22.1426 -22.1419 -22.1312 -22.1163 -22.1084 -22.1060
   -22.0999 -22.0976 -13.9345 -13.1952  -7.8224  -7.0987  -4.0609  -3.8791
    -2.8234  -2.7235  -1.6758  -1.3852   0.8540   0.9609   1.8396   2.1458

          k = 0.2667 0.1357 0.0000 ( 30527 PWs)   bands (ev):

   -22.1487 -22.1483 -22.1431 -22.1406 -22.1299 -22.1166 -22.1093 -22.1046
   -22.1012 -22.0969 -13.8816 -13.1794  -7.7969  -7.1177  -4.3661  -4.0074
    -3.1166  -2.5623  -1.4427  -1.4198   0.8093   0.9645   1.3581   2.6307

          k = 0.2667 0.2035 0.0000 ( 30481 PWs)   bands (ev):

   -22.1503 -22.1500 -22.1421 -22.1388 -22.1283 -22.1171 -22.1099 -22.1032
   -22.1026 -22.0963 -13.7978 -13.1596  -7.7678  -7.1636  -4.7566  -3.9374
    -3.4431  -2.5041  -1.8030  -1.2105   0.7243   1.1735   1.3495   2.9046

          k = 0.2667 0.2713 0.0000 ( 30481 PWs)   bands (ev):

   -22.1526 -22.1522 -22.1400 -22.1370 -22.1267 -22.1178 -22.1101 -22.1039
   -22.1017 -22.0960 -13.6896 -13.1450  -7.7491  -7.2483  -4.9977  -3.8920
    -3.6166  -2.5754  -2.2967  -1.2630   0.6832   1.5744   1.7119   2.8697

          k = 0.2667 0.3391 0.0000 ( 30479 PWs)   bands (ev):

   -22.1547 -22.1544 -22.1378 -22.1354 -22.1252 -22.1188 -22.1098 -22.1051
   -22.1002 -22.0960 -13.5668 -13.1467  -7.7447  -7.3694  -5.0629  -3.8637
    -3.7158  -2.7394  -2.6672  -1.5811   0.9239   1.8851   2.2484   2.6717

          k = 0.2667 0.4070 0.0000 ( 30464 PWs)   bands (ev):

   -22.1563 -22.1562 -22.1359 -22.1343 -22.1238 -22.1200 -22.1091 -22.1061
   -22.0988 -22.0962 -13.4413 -13.1748  -7.7385  -7.5052  -4.9568  -3.9972
    -3.7330  -2.9777  -2.7337  -1.9581   1.2616   2.2422   2.3120   2.7537

          k = 0.2667 0.4748 0.0000 ( 30435 PWs)   bands (ev):

   -22.1572 -22.1571 -22.1346 -22.1341 -22.1226 -22.1213 -22.1082 -22.1072
   -22.0976 -22.0967 -13.3266 -13.2351  -7.7039  -7.6246  -4.7099  -4.3662
    -3.5273  -3.2575  -2.5694  -2.2972   1.6198   1.9784   2.5949   2.8443

          k = 0.3333 0.0000 0.0000 ( 30508 PWs)   bands (ev):

   -22.1476 -22.1471 -22.1439 -22.1423 -22.1281 -22.1168 -22.1063 -22.1061
   -22.1000 -22.0996 -13.8173 -13.2381  -8.0000  -7.4328  -3.8841  -3.2397
    -2.9750  -2.4319  -1.8084  -1.0951   0.5064   1.1563   1.4111   1.7712

          k = 0.3333 0.0678 0.0000 ( 30535 PWs)   bands (ev):

   -22.1477 -22.1477 -22.1440 -22.1417 -22.1277 -22.1169 -22.1075 -22.1049
   -22.1011 -22.0987 -13.8005 -13.2308  -7.9788  -7.4231  -3.8678  -3.6659
    -2.7304  -2.6537  -1.6391  -1.1535   0.5053   1.1351   1.3447   1.7265

          k = 0.3333 0.1357 0.0000 ( 30509 PWs)   bands (ev):

   -22.1493 -22.1489 -22.1432 -22.1403 -22.1267 -22.1171 -22.1086 -22.1035
   -22.1024 -22.0977 -13.7514 -13.2108  -7.9183  -7.3981  -4.2188  -3.8242
    -3.0927  -2.6173  -1.5386  -1.3115   0.7421   0.8811   1.3553   2.2423

          k = 0.3333 0.2035 0.0000 ( 30494 PWs)   bands (ev):

   -22.1517 -22.1512 -22.1414 -22.1385 -22.1254 -22.1174 -22.1093 -22.1037
   -22.1021 -22.0970 -13.6744 -13.1838  -7.8276  -7.3689  -4.7077  -3.7794
    -3.5127  -2.6296  -2.1057  -1.2574   0.6447   1.5366   1.5627   2.5839

          k = 0.3333 0.2713 0.0000 ( 30471 PWs)   bands (ev):

   -22.1542 -22.1540 -22.1390 -22.1365 -22.1242 -22.1180 -22.1097 -22.1048
   -22.1007 -22.0964 -13.5764 -13.1585  -7.7236  -7.3523  -5.0729  -3.8880
    -3.7263  -2.7319  -2.6154  -1.5649   0.9347   1.8858   2.2568   2.6806

          k = 0.3333 0.3391 0.0000 ( 30504 PWs)   bands (ev):

   -22.1567 -22.1566 -22.1367 -22.1347 -22.1232 -22.1188 -22.1095 -22.1058
   -22.0993 -22.0962 -13.4673 -13.1456  -7.6282  -7.3624  -5.2704  -4.0833
    -3.8968  -2.9384  -2.8628  -1.9399   1.3049   2.3094   2.6142   2.9461

          k = 0.3333 0.4070 0.0000 ( 30510 PWs)   bands (ev):

   -22.1586 -22.1585 -22.1348 -22.1336 -22.1223 -22.1197 -22.1089 -22.1066
   -22.0981 -22.0961 -13.3591 -13.1554  -7.5565  -7.4001  -5.2755  -4.3910
    -3.9770  -3.2405  -2.8304  -2.2425   1.6440   2.4571   2.7625   3.4308

          k = 0.3333 0.4748 0.0000 ( 30489 PWs)   bands (ev):

   -22.1596 -22.1595 -22.1336 -22.1332 -22.1215 -22.1206 -22.1082 -22.1074
   -22.0971 -22.0965 -13.2647 -13.1948  -7.5028  -7.4515  -5.0991  -4.7826
    -3.8339  -3.5664  -2.6782  -2.4794   1.9505   2.2260   3.1626   3.4375

          k = 0.4000 0.0000 0.0000 ( 30476 PWs)   bands (ev):

   -22.1474 -22.1461 -22.1455 -22.1427 -22.1246 -22.1178 -22.1053 -22.1048
   -22.1011 -22.1011 -13.6723 -13.3052  -8.0816  -7.7229  -3.6499  -2.9827
    -2.9775  -2.4370  -1.6784  -0.8242   0.1342   1.1917   1.2411   1.4413

          k = 0.4000 0.0678 0.0000 ( 30493 PWs)   bands (ev):

   -22.1481 -22.1473 -22.1444 -22.1420 -22.1243 -22.1178 -22.1064 -22.1037
   -22.1024 -22.0998 -13.6571 -13.2961  -8.0551  -7.7037  -3.6392  -3.4191
    -2.8195  -2.6657  -1.4597  -1.0619   0.3508   0.8046   1.4802   1.4879

          k = 0.4000 0.1357 0.0000 ( 30500 PWs)   bands (ev):

   -22.1501 -22.1495 -22.1427 -22.1405 -22.1236 -22.1179 -22.1076 -22.1037
   -22.1023 -22.0987 -13.6131 -13.2708  -7.9772  -7.6488  -3.9891  -3.6172
    -3.1403  -2.7961  -1.6269  -1.2643   0.5456   0.9695   1.6074   2.0047

          k = 0.4000 0.2035 0.0000 ( 30514 PWs)   bands (ev):

   -22.1527 -22.1524 -22.1405 -22.1385 -22.1228 -22.1180 -22.1085 -22.1049
   -22.1009 -22.0978 -13.5448 -13.2345  -7.8540  -7.5660  -4.5348  -3.7136
    -3.5327  -2.8315  -2.2300  -1.5197   0.8304   1.7428   1.8479   2.3666

          k = 0.4000 0.2713 0.0000 ( 30509 PWs)   bands (ev):

   -22.1555 -22.1554 -22.1381 -22.1364 -22.1220 -22.1184 -22.1089 -22.1058
   -22.0996 -22.0970 -13.4595 -13.1957  -7.6981  -7.4697  -4.9873  -4.1192
    -3.6470  -2.9546  -2.6762  -1.9342   1.2845   2.2474   2.3401   2.7553

          k = 0.4000 0.3391 0.0000 ( 30504 PWs)   bands (ev):

   -22.1582 -22.1581 -22.1358 -22.1345 -22.1214 -22.1189 -22.1089 -22.1065
   -22.0984 -22.0965 -13.3675 -13.1647  -7.5329  -7.3792  -5.3002  -4.4776
    -3.8954  -3.2185  -2.8235  -2.2410   1.6560   2.4684   2.7721   3.4698

          k = 0.4000 0.4070 0.0000 ( 30525 PWs)   bands (ev):

   -22.1603 -22.1602 -22.1341 -22.1332 -22.1210 -22.1195 -22.1085 -22.1070
   -22.0974 -22.0962 -13.2807 -13.1524  -7.3932  -7.3142  -5.4326  -4.8080
    -4.1038  -3.5729  -2.7784  -2.4201   1.9478   2.4550   3.2715   3.9009

          k = 0.4000 0.4748 0.0000 ( 30490 PWs)   bands (ev):

   -22.1614 -22.1614 -22.1330 -22.1327 -22.1206 -22.1201 -22.1080 -22.1075
   -22.0967 -22.0963 -13.2107 -13.1668  -7.3102  -7.2879  -5.3653  -5.1303
    -4.0965  -3.8957  -2.6722  -2.5512   2.1818   2.3545   3.6414   3.8751

          k = 0.4667 0.0000 0.0000 ( 30478 PWs)   bands (ev):

   -22.1473 -22.1466 -22.1447 -22.1435 -22.1217 -22.1194 -22.1040 -22.1035
   -22.1026 -22.1022 -13.5303 -13.4043  -8.0617  -7.9387  -3.3956  -3.1512
    -2.7364  -2.5416  -1.3658  -0.9930   0.2792   0.7244   1.1823   1.3778

          k = 0.4667 0.0678 0.0000 ( 30485 PWs)   bands (ev):

   -22.1482 -22.1478 -22.1437 -22.1427 -22.1215 -22.1194 -22.1052 -22.1038
   -22.1024 -22.1011 -13.5171 -13.3932  -8.0342  -7.9138  -3.3999  -3.2534
    -2.9259  -2.7933  -1.2386  -1.0917   0.3310   0.4744   1.5359   1.7324

          k = 0.4667 0.1357 0.0000 ( 30511 PWs)   bands (ev):

   -22.1503 -22.1501 -22.1418 -22.1411 -22.1211 -22.1192 -22.1064 -22.1051
   -22.1010 -22.0999 -13.4791 -13.3617  -7.9530  -7.8405  -3.7162  -3.5062
    -3.2074  -3.0251  -1.5526  -1.3798   0.6124   0.8319   1.8979   2.0400

          k = 0.4667 0.2035 0.0000 ( 30516 PWs)   bands (ev):

   -22.1532 -22.1530 -22.1396 -22.1389 -22.1206 -22.1191 -22.1074 -22.1061
   -22.0998 -22.0987 -13.4210 -13.3147  -7.8227  -7.7244  -4.2718  -3.9672
    -3.3189  -3.0718  -2.1152  -1.8457   1.1558   1.5153   2.1482   2.3585

          k = 0.4667 0.2713 0.0000 ( 30515 PWs)   bands (ev):

   -22.1562 -22.1561 -22.1373 -22.1367 -22.1203 -22.1191 -22.1080 -22.1069
   -22.0986 -22.0978 -13.3506 -13.2603  -7.6534  -7.5762  -4.7673  -4.4558
    -3.4577  -3.2114  -2.5295  -2.2681   1.6495   2.0091   2.6008   2.8456

          k = 0.4667 0.3391 0.0000 ( 30507 PWs)   bands (ev):

   -22.1591 -22.1590 -22.1351 -22.1347 -22.1201 -22.1193 -22.1081 -22.1073
   -22.0977 -22.0970 -13.2784 -13.2090  -7.4645  -7.4149  -5.1534  -4.8618
    -3.7589  -3.5161  -2.6765  -2.4798   1.9695   2.2449   3.1793   3.4621

          k = 0.4667 0.4070 0.0000 ( 30526 PWs)   bands (ev):

   -22.1612 -22.1612 -22.1336 -22.1333 -22.1201 -22.1196 -22.1080 -22.1074
   -22.0969 -22.0965 -13.2158 -13.1719  -7.2914  -7.2699  -5.3952  -5.1690
    -4.0621  -3.8707  -2.6744  -2.5538   2.1900   2.3629   3.6364   3.8617

          k = 0.4667 0.4748 0.0000 ( 30504 PWs)   bands (ev):

   -22.1624 -22.1624 -22.1327 -22.1326 -22.1200 -22.1199 -22.1077 -22.1076
   -22.0964 -22.0963 -13.1734 -13.1584  -7.1846  -7.1805  -5.4672  -5.3778
    -4.2050  -4.1299  -2.6341  -2.5933   2.3335   2.3924   3.8507   3.9619

     the Fermi energy is    -0.7626 ev

!    total energy              =    -413.80368616 Ry
     estimated scf accuracy    <          3.5E-11 Ry
     smearing contrib. (-TS)   =       0.00009358 Ry
     internal energy E=F+TS    =    -413.80377973 Ry

     The total energy is F=E-TS. E is the sum of the following terms:
     one-electron contribution =   -1193.50440459 Ry
     hartree contribution      =     608.99314770 Ry
     xc contribution           =    -154.42795435 Ry
     ewald contribution        =     325.13543151 Ry

     convergence has been achieved in  12 iterations

     negative rho (up, down):  2.823E-05 0.000E+00

     Forces acting on atoms (cartesian axes, Ry/au):

     atom    1 type  1   force =    -0.00145444    0.00000000    0.00096922
     atom    2 type  1   force =    -0.00145705    0.00000000   -0.00097306
     atom    3 type  2   force =     0.00145493    0.00000000    0.00060515
     atom    4 type  2   force =     0.00145656    0.00000000   -0.00060131

     Total force =     0.003330     Total SCF correction =     0.000014

     BFGS Geometry Optimization

     number of scf cycles    =   1
     number of bfgs steps    =   0

     energy   new            =    -413.8036861551 Ry

     new trust radius        =       0.0017520969 bohr
     new conv_thr            =            1.0E-10 Ry


ATOMIC_POSITIONS (crystal)
Sn            0.5838140561        0.7500000000        0.1445819027
Sn            0.0838123276        0.2500000000        0.0065638595
Se            0.0302920357        0.2500000000        0.1423352580
Se            0.5302895545        0.7500000000        0.0088090337



     Writing output data file ./wfc-out/pwscf.save/
     NEW-OLD atomic charge density approx. for the potential

     negative rho (up, down):  5.300E-05 0.000E+00

     total cpu time spent up to now is       65.5 secs

     Self-consistent Calculation

     iteration #  1     ecut=    80.00 Ry     beta= 0.70
     Davidson diagonalization with overlap
     ethr =  1.00E-06,  avg # of iterations =  2.0

     Threshold (ethr) on eigenvalues was too large:
     Diagonalizing with lowered threshold

     Davidson diagonalization with overlap
     ethr =  7.64E-10,  avg # of iterations =  6.3

     negative rho (up, down):  3.198E-05 0.000E+00

     total cpu time spent up to now is       76.3 secs

     total energy              =    -413.80369673 Ry
     estimated scf accuracy    <       0.00000046 Ry

     iteration #  2     ecut=    80.00 Ry     beta= 0.70
     Davidson diagonalization with overlap
     ethr =  1.14E-09,  avg # of iterations =  2.2

     negative rho (up, down):  2.888E-05 0.000E+00

     total cpu time spent up to now is       80.5 secs

     total energy              =    -413.80369670 Ry
     estimated scf accuracy    <       0.00000032 Ry

     iteration #  3     ecut=    80.00 Ry     beta= 0.70
     Davidson diagonalization with overlap
     ethr =  7.97E-10,  avg # of iterations =  2.0

     negative rho (up, down):  2.838E-05 0.000E+00

     total cpu time spent up to now is       84.6 secs

     total energy              =    -413.80369677 Ry
     estimated scf accuracy    <       0.00000002 Ry

     iteration #  4     ecut=    80.00 Ry     beta= 0.70
     Davidson diagonalization with overlap
     ethr =  5.83E-11,  avg # of iterations =  3.5

     negative rho (up, down):  2.827E-05 0.000E+00

     total cpu time spent up to now is       89.2 secs

     total energy              =    -413.80369677 Ry
     estimated scf accuracy    <       0.00000005 Ry

     iteration #  5     ecut=    80.00 Ry     beta= 0.70
     Davidson diagonalization with overlap
     ethr =  5.83E-11,  avg # of iterations =  2.5

     negative rho (up, down):  2.824E-05 0.000E+00

     total cpu time spent up to now is       93.3 secs

     total energy              =    -413.80369678 Ry
     estimated scf accuracy    <          3.0E-09 Ry

     iteration #  6     ecut=    80.00 Ry     beta= 0.70
     Davidson diagonalization with overlap
     ethr =  7.41E-12,  avg # of iterations =  2.4

     negative rho (up, down):  2.823E-05 0.000E+00

     total cpu time spent up to now is       97.4 secs

     total energy              =    -413.80369677 Ry
     estimated scf accuracy    <          1.6E-10 Ry

     iteration #  7     ecut=    80.00 Ry     beta= 0.70
     Davidson diagonalization with overlap
     ethr =  3.99E-13,  avg # of iterations =  3.5

     negative rho (up, down):  2.823E-05 0.000E+00

     total cpu time spent up to now is      101.9 secs

     End of self-consistent calculation

          k = 0.0000 0.0000 0.0000 ( 30567 PWs)   bands (ev):

   -22.1523 -22.1441 -22.1441 -22.1409 -22.1376 -22.1159 -22.1103 -22.1085
   -22.0979 -22.0953 -14.2257 -13.1895  -7.1235  -6.1074  -4.3350  -3.9451
    -3.9246  -2.7585  -2.6923  -1.4572   0.6395   2.4246   2.8989   3.0868

          k = 0.0000 0.0678 0.0000 ( 30551 PWs)   bands (ev):

   -22.1517 -22.1445 -22.1437 -22.1409 -22.1376 -22.1160 -22.1103 -22.1082
   -22.0982 -22.0953 -14.2057 -13.1853  -7.1945  -6.1896  -4.3399  -3.9334
    -3.8480  -2.7336  -2.5925  -1.4706   0.6504   2.5040   2.8964   2.9383

          k = 0.0000 0.1357 0.0000 ( 30571 PWs)   bands (ev):

   -22.1502 -22.1453 -22.1427 -22.1413 -22.1372 -22.1163 -22.1104 -22.1074
   -22.0990 -22.0954 -14.1467 -13.1752  -7.3811  -6.4183  -4.3230  -3.8535
    -3.6809  -2.6709  -2.3291  -1.5159   0.6897   2.4271   2.6748   2.6847

          k = 0.0000 0.2035 0.0000 ( 30563 PWs)   bands (ev):

   -22.1483 -22.1466 -22.1422 -22.1412 -22.1358 -22.1169 -22.1103 -22.1062
   -22.1002 -22.0955 -14.0522 -13.1659  -7.6241  -6.7446  -4.2461  -3.7110
    -3.4587  -2.5815  -1.9775  -1.6001   0.7735   1.7828   2.2235   2.6880

          k = 0.0000 0.2713 0.0000 ( 30489 PWs)   bands (ev):

   -22.1480 -22.1472 -22.1425 -22.1398 -22.1337 -22.1178 -22.1100 -22.1047
   -22.1017 -22.0958 -13.9279 -13.1679  -7.8620  -7.1095  -4.1040  -3.5178
    -3.2197  -2.4867  -1.7092  -1.5892   0.9175   1.1338   1.7428   2.3614

          k = 0.0000 0.3391 0.0000 ( 30503 PWs)   bands (ev):

   -22.1492 -22.1479 -22.1413 -22.1386 -22.1310 -22.1191 -22.1094 -22.1034
   -22.1030 -22.0963 -13.7825 -13.1934  -8.0449  -7.4633  -3.9076  -3.2934
    -3.0239  -2.4219  -1.7788  -1.2071   0.5493   1.1257   1.3545   1.8531

          k = 0.0000 0.4070 0.0000 ( 30467 PWs)   bands (ev):

   -22.1501 -22.1491 -22.1398 -22.1379 -22.1281 -22.1208 -22.1087 -22.1049
   -22.1012 -22.0970 -13.6279 -13.2527  -8.1375  -7.7679  -3.6733  -3.1167
    -2.9142  -2.4300  -1.6928  -0.9532   0.1719   1.1355   1.2235   1.4635

          k = 0.0000 0.4748 0.0000 ( 30420 PWs)   bands (ev):

   -22.1504 -22.1501 -22.1386 -22.1379 -22.1253 -22.1229 -22.1076 -22.1063
   -22.0995 -22.0981 -13.4785 -13.3494  -8.1214  -7.9944  -3.4239  -3.2013
    -2.7264  -2.5373  -1.4215  -1.0844   0.2789   0.7158   1.1272   1.3209

          k = 0.0667 0.0000 0.0000 ( 30547 PWs)   bands (ev):

   -22.1520 -22.1443 -22.1439 -22.1402 -22.1379 -22.1159 -22.1101 -22.1084
   -22.0980 -22.0955 -14.2072 -13.1876  -7.1936  -6.1912  -4.3346  -3.9141
    -3.8553  -2.7373  -2.5830  -1.4757   0.6519   2.4770   2.7914   3.0110

          k = 0.0667 0.0678 0.0000 ( 30544 PWs)   bands (ev):

   -22.1515 -22.1447 -22.1435 -22.1405 -22.1377 -22.1160 -22.1102 -22.1081
   -22.0983 -22.0955 -14.1873 -13.1834  -7.2530  -6.2637  -4.3316  -4.0440
    -3.6490  -2.8212  -2.3949  -1.4861   0.6647   2.5421   2.5466   2.9910

          k = 0.0667 0.1357 0.0000 ( 30544 PWs)   bands (ev):

   -22.1501 -22.1456 -22.1425 -22.1414 -22.1368 -22.1164 -22.1103 -22.1072
   -22.0992 -22.0955 -14.1287 -13.1730  -7.4139  -6.4691  -4.3043  -4.0994
    -3.3767  -2.8503  -2.0867  -1.5212   0.7085   1.9893   2.6559   2.9515

          k = 0.0667 0.2035 0.0000 ( 30529 PWs)   bands (ev):

   -22.1483 -22.1469 -22.1424 -22.1410 -22.1353 -22.1169 -22.1103 -22.1060
   -22.1004 -22.0956 -14.0347 -13.1632  -7.6314  -6.7698  -4.2250  -4.0513
    -3.1022  -2.7976  -1.7621  -1.5829   0.7960   1.3973   2.4255   2.5901

          k = 0.0667 0.2713 0.0000 ( 30532 PWs)   bands (ev):

   -22.1484 -22.1476 -22.1425 -22.1395 -22.1331 -22.1178 -22.1101 -22.1045
   -22.1019 -22.0958 -13.9113 -13.1642  -7.8509  -7.1142  -4.0857  -3.9119
    -2.8735  -2.7005  -1.6468  -1.4794   0.8913   0.9368   1.8942   2.1121

          k = 0.0667 0.3391 0.0000 ( 30496 PWs)   bands (ev):

   -22.1497 -22.1485 -22.1410 -22.1383 -22.1305 -22.1191 -22.1096 -22.1035
   -22.1028 -22.0963 -13.7673 -13.1884  -8.0227  -7.4535  -3.8944  -3.7027
    -2.7652  -2.6152  -1.6406  -1.2974   0.5618   1.0811   1.4077   1.6735

          k = 0.0667 0.4070 0.0000 ( 30453 PWs)   bands (ev):

   -22.1506 -22.1498 -22.1394 -22.1376 -22.1278 -22.1207 -22.1088 -22.1051
   -22.1010 -22.0970 -13.6144 -13.2458  -8.1103  -7.7486  -3.6677  -3.4614
    -2.8156  -2.6176  -1.5141  -1.2329   0.4195   0.7982   1.4192   1.4941

          k = 0.0667 0.4748 0.0000 ( 30436 PWs)   bands (ev):

   -22.1510 -22.1507 -22.1382 -22.1376 -22.1251 -22.1228 -22.1077 -22.1065
   -22.0994 -22.0980 -13.4671 -13.3403  -8.0936  -7.9693  -3.4373  -3.3106
    -2.8790  -2.7454  -1.3446  -1.2442   0.3789   0.4900   1.4770   1.7507

          k = 0.1333 0.0000 0.0000 ( 30519 PWs)   bands (ev):

   -22.1514 -22.1449 -22.1435 -22.1390 -22.1383 -22.1160 -22.1096 -22.1082
   -22.0982 -22.0962 -14.1526 -13.1842  -7.3755  -6.4206  -4.3076  -3.8223
    -3.6703  -2.6771  -2.3004  -1.5341   0.6956   2.3166   2.5773   2.8221

          k = 0.1333 0.0678 0.0000 ( 30558 PWs)   bands (ev):

   -22.1509 -22.1453 -22.1430 -22.1402 -22.1371 -22.1161 -22.1099 -22.1077
   -22.0987 -22.0960 -14.1330 -13.1797  -7.4094  -6.4701  -4.2930  -4.0846
    -3.3613  -2.8524  -2.0682  -1.5342   0.7130   1.9647   2.5870   2.9954

          k = 0.1333 0.1357 0.0000 ( 30530 PWs)   bands (ev):

   -22.1496 -22.1463 -22.1420 -22.1417 -22.1355 -22.1164 -22.1102 -22.1067
   -22.0997 -22.0959 -14.0755 -13.1684  -7.5080  -6.6169  -4.3129  -4.2472
    -3.0363  -3.0013  -1.7361  -1.5317   0.7671   1.4288   2.3956   3.0906

          k = 0.1333 0.2035 0.0000 ( 30530 PWs)   bands (ev):

   -22.1484 -22.1478 -22.1427 -22.1404 -22.1337 -22.1170 -22.1104 -22.1054
   -22.1010 -22.0958 -13.9834 -13.1568  -7.6562  -6.8480  -4.4137  -4.1634
    -3.1052  -2.7186  -1.5121  -1.5121   0.8579   1.0019   1.8778   2.9679

          k = 0.1333 0.2713 0.0000 ( 30505 PWs)   bands (ev):

   -22.1494 -22.1487 -22.1420 -22.1388 -22.1316 -22.1178 -22.1103 -22.1038
   -22.1025 -22.0959 -13.8629 -13.1551  -7.8210  -7.1323  -4.3811  -4.0341
    -3.0740  -2.5863  -1.5096  -1.4464   0.8351   0.9343   1.3961   2.6089

          k = 0.1333 0.3391 0.0000 ( 30480 PWs)   bands (ev):

   -22.1509 -22.1501 -22.1402 -22.1375 -22.1293 -22.1191 -22.1098 -22.1040
   -22.1022 -22.0962 -13.7229 -13.1750  -7.9587  -7.4275  -4.2320  -3.8605
    -3.0094  -2.6285  -1.6832  -1.3561   0.7309   0.9179   1.3736   2.2043

          k = 0.1333 0.4070 0.0000 ( 30440 PWs)   bands (ev):

   -22.1520 -22.1514 -22.1385 -22.1367 -22.1269 -22.1206 -22.1090 -22.1054
   -22.1005 -22.0968 -13.5753 -13.2267  -8.0302  -7.6930  -3.9952  -3.6625
    -3.0267  -2.7923  -1.8019  -1.3555   0.5514   1.0146   1.6188   1.9554

          k = 0.1333 0.4748 0.0000 ( 30471 PWs)   bands (ev):

   -22.1525 -22.1523 -22.1372 -22.1366 -22.1246 -22.1225 -22.1080 -22.1068
   -22.0990 -22.0978 -13.4343 -13.3145  -8.0111  -7.8952  -3.7172  -3.5418
    -3.1206  -3.0014  -1.7125  -1.5084   0.6274   0.8606   1.9209   2.0442

          k = 0.2000 0.0000 0.0000 ( 30555 PWs)   bands (ev):

   -22.1504 -22.1457 -22.1429 -22.1405 -22.1354 -22.1161 -22.1087 -22.1079
   -22.0987 -22.0972 -14.0650 -13.1851  -7.6081  -6.7412  -4.2236  -3.6733
    -3.4191  -2.5891  -1.9227  -1.6338   0.7858   1.7084   2.2988   2.5447

          k = 0.2000 0.0678 0.0000 ( 30562 PWs)   bands (ev):

   -22.1500 -22.1461 -22.1425 -22.1412 -22.1347 -22.1162 -22.1093 -22.1071
   -22.0993 -22.0969 -14.0461 -13.1800  -7.6167  -6.7658  -4.2040  -4.0239
    -3.0644  -2.8063  -1.7118  -1.6098   0.8079   1.3688   2.3455   2.6179

          k = 0.2000 0.1357 0.0000 ( 30541 PWs)   bands (ev):

   -22.1491 -22.1473 -22.1425 -22.1413 -22.1331 -22.1165 -22.1100 -22.1059
   -22.1004 -22.0964 -13.9904 -13.1670  -7.6462  -6.8440  -4.4018  -4.1485
    -3.1181  -2.6980  -1.5217  -1.4750   0.8673   0.9891   1.8541   2.9856

          k = 0.2000 0.2035 0.0000 ( 30508 PWs)   bands (ev):

   -22.1490 -22.1490 -22.1427 -22.1397 -22.1313 -22.1171 -22.1104 -22.1045
   -22.1018 -22.0961 -13.9016 -13.1522  -7.7028  -6.9818  -4.6574  -4.0654
    -3.3258  -2.5102  -1.5291  -1.3588   0.9009   0.9279   1.3956   3.0967

          k = 0.2000 0.2713 0.0000 ( 30492 PWs)   bands (ev):

   -22.1509 -22.1504 -22.1412 -22.1380 -22.1294 -22.1179 -22.1104 -22.1032
   -22.1030 -22.0960 -13.7861 -13.1454  -7.7824  -7.1737  -4.7578  -3.9606
    -3.3984  -2.5089  -1.8547  -1.2260   0.7163   1.1791   1.3573   2.8883

          k = 0.2000 0.3391 0.0000 ( 30484 PWs)   bands (ev):

   -22.1527 -22.1522 -22.1391 -22.1365 -22.1275 -22.1190 -22.1100 -22.1046
   -22.1014 -22.0962 -13.6531 -13.1579  -7.8606  -7.3946  -4.7025  -3.8294
    -3.4016  -2.6346  -2.2154  -1.3004   0.6358   1.5421   1.5679   2.5647

          k = 0.2000 0.4070 0.0000 ( 30441 PWs)   bands (ev):

   -22.1541 -22.1538 -22.1372 -22.1356 -22.1256 -22.1204 -22.1093 -22.1059
   -22.0999 -22.0966 -13.5146 -13.1999  -7.9020  -7.6074  -4.5150  -3.7194
    -3.4466  -2.8382  -2.3662  -1.5845   0.8141   1.7411   1.8535   2.3612

          k = 0.2000 0.4748 0.0000 ( 30433 PWs)   bands (ev):

   -22.1548 -22.1547 -22.1360 -22.1354 -22.1237 -22.1220 -22.1083 -22.1071
   -22.0985 -22.0974 -13.3844 -13.2763  -7.8778  -7.7767  -4.2314  -3.9083
    -3.3213  -3.0813  -2.2286  -1.9316   1.1341   1.4966   2.1627   2.3866

          k = 0.2667 0.0000 0.0000 ( 30548 PWs)   bands (ev):

   -22.1492 -22.1465 -22.1425 -22.1422 -22.1319 -22.1164 -22.1076 -22.1074
   -22.0994 -22.0985 -13.9497 -13.1990  -7.8315  -7.0942  -4.0789  -3.4741
    -3.1582  -2.4947  -1.7517  -1.5056   0.9370   1.0823   1.8012   2.2450

          k = 0.2667 0.0678 0.0000 ( 30525 PWs)   bands (ev):

   -22.1489 -22.1470 -22.1427 -22.1420 -22.1314 -22.1165 -22.1086 -22.1062
   -22.1002 -22.0979 -13.9316 -13.1931  -7.8215  -7.0987  -4.0596  -3.8764
    -2.8212  -2.7211  -1.6751  -1.3847   0.8548   0.9592   1.8404   2.1460

          k = 0.2667 0.1357 0.0000 ( 30527 PWs)   bands (ev):

   -22.1488 -22.1484 -22.1432 -22.1407 -22.1301 -22.1168 -22.1096 -22.1049
   -22.1015 -22.0971 -13.8787 -13.1772  -7.7959  -7.1175  -4.3637  -4.0060
    -3.1146  -2.5602  -1.4418  -1.4190   0.8092   0.9631   1.3577   2.6307

          k = 0.2667 0.2035 0.0000 ( 30481 PWs)   bands (ev):

   -22.1504 -22.1501 -22.1423 -22.1390 -22.1285 -22.1172 -22.1101 -22.1035
   -22.1028 -22.0966 -13.7949 -13.1574  -7.7666  -7.1632  -4.7544  -3.9356
    -3.4416  -2.5020  -1.8025  -1.2096   0.7232   1.1730   1.3484   2.9033

          k = 0.2667 0.2713 0.0000 ( 30481 PWs)   bands (ev):

   -22.1527 -22.1523 -22.1402 -22.1371 -22.1269 -22.1180 -22.1103 -22.1041
   -22.1020 -22.0963 -13.6869 -13.1428  -7.7475  -7.2475  -4.9958  -3.8895
    -3.6156  -2.5733  -2.2967  -1.2627   0.6823   1.5733   1.7111   2.8681

          k = 0.2667 0.3391 0.0000 ( 30479 PWs)   bands (ev):

   -22.1548 -22.1545 -22.1379 -22.1356 -22.1254 -22.1190 -22.1100 -22.1053
   -22.1005 -22.0962 -13.5641 -13.1445  -7.7429  -7.3682  -5.0613  -3.8612
    -3.7143  -2.7372  -2.6680  -1.5815   0.9233   1.8841   2.2477   2.6704

          k = 0.2667 0.4070 0.0000 ( 30464 PWs)   bands (ev):

   -22.1564 -22.1563 -22.1360 -22.1345 -22.1240 -22.1202 -22.1094 -22.1064
   -22.0991 -22.0965 -13.4388 -13.1725  -7.7365  -7.5036  -4.9554  -3.9957
    -3.7306  -2.9754  -2.7349  -1.9590   1.2612   2.2413   2.3116   2.7523

          k = 0.2667 0.4748 0.0000 ( 30435 PWs)   bands (ev):

   -22.1573 -22.1572 -22.1347 -22.1342 -22.1227 -22.1214 -22.1084 -22.1074
   -22.0979 -22.0970 -13.3242 -13.2328  -7.7019  -7.6227  -4.7085  -4.3648
    -3.5250  -3.2552  -2.5706  -2.2983   1.6194   1.9780   2.5941   2.8433

          k = 0.3333 0.0000 0.0000 ( 30508 PWs)   bands (ev):

   -22.1477 -22.1472 -22.1440 -22.1424 -22.1282 -22.1170 -22.1066 -22.1064
   -22.1003 -22.0999 -13.8144 -13.2357  -7.9994  -7.4329  -3.8829  -3.2363
    -2.9733  -2.4287  -1.8075  -1.0948   0.5079   1.1545   1.4101   1.7727

          k = 0.3333 0.0678 0.0000 ( 30535 PWs)   bands (ev):

   -22.1478 -22.1478 -22.1441 -22.1419 -22.1278 -22.1171 -22.1078 -22.1052
   -22.1014 -22.0990 -13.7976 -13.2284  -7.9783  -7.4232  -3.8665  -3.6631
    -2.7283  -2.6506  -1.6380  -1.1531   0.5062   1.1335   1.3446   1.7260

          k = 0.3333 0.1357 0.0000 ( 30509 PWs)   bands (ev):

   -22.1495 -22.1490 -22.1434 -22.1405 -22.1268 -22.1172 -22.1088 -22.1038
   -22.1027 -22.0980 -13.7486 -13.2085  -7.9176  -7.3980  -4.2162  -3.8228
    -3.0899  -2.6154  -1.5386  -1.3104   0.7414   0.8816   1.3540   2.2418

          k = 0.3333 0.2035 0.0000 ( 30494 PWs)   bands (ev):

   -22.1518 -22.1513 -22.1415 -22.1386 -22.1256 -22.1176 -22.1096 -22.1040
   -22.1023 -22.0973 -13.6716 -13.1815  -7.8266  -7.3686  -4.7053  -3.7775
    -3.5103  -2.6277  -2.1062  -1.2570   0.6441   1.5368   1.5617   2.5825

          k = 0.3333 0.2713 0.0000 ( 30471 PWs)   bands (ev):

   -22.1543 -22.1541 -22.1391 -22.1366 -22.1243 -22.1182 -22.1099 -22.1051
   -22.1009 -22.0967 -13.5737 -13.1562  -7.7223  -7.3516  -5.0709  -3.8851
    -3.7248  -2.7298  -2.6165  -1.5654   0.9343   1.8851   2.2567   2.6789

          k = 0.3333 0.3391 0.0000 ( 30504 PWs)   bands (ev):

   -22.1568 -22.1567 -22.1369 -22.1349 -22.1233 -22.1190 -22.1098 -22.1060
   -22.0996 -22.0964 -13.4646 -13.1433  -7.6264  -7.3611  -5.2688  -4.0808
    -3.8953  -2.9362  -2.8640  -1.9409   1.3044   2.3091   2.6130   2.9456

          k = 0.3333 0.4070 0.0000 ( 30510 PWs)   bands (ev):

   -22.1586 -22.1586 -22.1350 -22.1337 -22.1224 -22.1199 -22.1092 -22.1068
   -22.0984 -22.0964 -13.3566 -13.1531  -7.5543  -7.3983  -5.2744  -4.3896
    -3.9752  -3.2385  -2.8313  -2.2435   1.6435   2.4563   2.7624   3.4302

          k = 0.3333 0.4748 0.0000 ( 30489 PWs)   bands (ev):

   -22.1597 -22.1596 -22.1338 -22.1334 -22.1216 -22.1208 -22.1084 -22.1076
   -22.0974 -22.0968 -13.2623 -13.1925  -7.5004  -7.4493  -5.0982  -4.7817
    -3.8321  -3.5646  -2.6790  -2.4802   1.9501   2.2255   3.1625   3.4372

          k = 0.4000 0.0000 0.0000 ( 30476 PWs)   bands (ev):

   -22.1475 -22.1462 -22.1456 -22.1428 -22.1248 -22.1180 -22.1056 -22.1051
   -22.1014 -22.1013 -13.6695 -13.3027  -8.0813  -7.7230  -3.6486  -2.9791
    -2.9758  -2.4334  -1.6771  -0.8230   0.1347   1.1902   1.2418   1.4396

          k = 0.4000 0.0678 0.0000 ( 30493 PWs)   bands (ev):

   -22.1483 -22.1474 -22.1445 -22.1422 -22.1245 -22.1180 -22.1067 -22.1039
   -22.1027 -22.1001 -13.6543 -13.2936  -8.0548  -7.7038  -3.6379  -3.4162
    -2.8174  -2.6621  -1.4584  -1.0616   0.3520   0.8043   1.4787   1.4867

          k = 0.4000 0.1357 0.0000 ( 30500 PWs)   bands (ev):

   -22.1502 -22.1496 -22.1428 -22.1407 -22.1238 -22.1180 -22.1079 -22.1040
   -22.1025 -22.0990 -13.6103 -13.2683  -7.9767  -7.6487  -3.9863  -3.6158
    -3.1368  -2.7943  -1.6277  -1.2636   0.5454   0.9710   1.6060   2.0034

          k = 0.4000 0.2035 0.0000 ( 30514 PWs)   bands (ev):

   -22.1528 -22.1525 -22.1406 -22.1386 -22.1229 -22.1182 -22.1087 -22.1052
   -22.1012 -22.0981 -13.5420 -13.2321  -7.8533  -7.5657  -4.5322  -3.7107
    -3.5306  -2.8296  -2.2314  -1.5200   0.8305   1.7440   1.8470   2.3649

          k = 0.4000 0.2713 0.0000 ( 30509 PWs)   bands (ev):

   -22.1556 -22.1555 -22.1382 -22.1365 -22.1221 -22.1186 -22.1092 -22.1061
   -22.0999 -22.0973 -13.4569 -13.1933  -7.6970  -7.4689  -4.9850  -4.1161
    -3.6454  -2.9526  -2.6777  -1.9352   1.2841   2.2472   2.3394   2.7553

          k = 0.4000 0.3391 0.0000 ( 30504 PWs)   bands (ev):

   -22.1583 -22.1582 -22.1360 -22.1347 -22.1216 -22.1191 -22.1092 -22.1068
   -22.0987 -22.0968 -13.3650 -13.1623  -7.5312  -7.3779  -5.2985  -4.4752
    -3.8943  -3.2167  -2.8244  -2.2420   1.6553   2.4672   2.7725   3.4704

          k = 0.4000 0.4070 0.0000 ( 30525 PWs)   bands (ev):

   -22.1604 -22.1603 -22.1342 -22.1334 -22.1211 -22.1197 -22.1088 -22.1073
   -22.0977 -22.0965 -13.2782 -13.1500  -7.3909  -7.3122  -5.4317  -4.8067
    -4.1026  -3.5714  -2.7789  -2.4208   1.9472   2.4543   3.2721   3.9013

          k = 0.4000 0.4748 0.0000 ( 30490 PWs)   bands (ev):

   -22.1615 -22.1615 -22.1332 -22.1329 -22.1207 -22.1203 -22.1082 -22.1077
   -22.0970 -22.0966 -13.2083 -13.1644  -7.3074  -7.2853  -5.3648  -5.1298
    -4.0951  -3.8943  -2.6726  -2.5517   2.1815   2.3541   3.6418   3.8752

          k = 0.4667 0.0000 0.0000 ( 30478 PWs)   bands (ev):

   -22.1474 -22.1467 -22.1448 -22.1436 -22.1219 -22.1196 -22.1043 -22.1038
   -22.1029 -22.1025 -13.5275 -13.4017  -8.0616  -7.9388  -3.3942  -3.1497
    -2.7326  -2.5378  -1.3642  -0.9913   0.2793   0.7247   1.1807   1.3762

          k = 0.4667 0.0678 0.0000 ( 30485 PWs)   bands (ev):

   -22.1483 -22.1479 -22.1438 -22.1429 -22.1217 -22.1195 -22.1054 -22.1041
   -22.1026 -22.1014 -13.5143 -13.3906  -8.0340  -7.9137  -3.3984  -3.2512
    -2.9230  -2.7896  -1.2373  -1.0911   0.3318   0.4744   1.5346   1.7312

          k = 0.4667 0.1357 0.0000 ( 30511 PWs)   bands (ev):

   -22.1504 -22.1502 -22.1420 -22.1412 -22.1213 -22.1194 -22.1067 -22.1053
   -22.1013 -22.1001 -13.4763 -13.3590  -7.9527  -7.8403  -3.7132  -3.5039
    -3.2046  -3.0232  -1.5533  -1.3799   0.6130   0.8333   1.8965   2.0388

          k = 0.4667 0.2035 0.0000 ( 30516 PWs)   bands (ev):

   -22.1533 -22.1531 -22.1398 -22.1391 -22.1208 -22.1192 -22.1076 -22.1064
   -22.1001 -22.0990 -13.4183 -13.3121  -7.8222  -7.7239  -4.2689  -3.9640
    -3.3170  -3.0699  -2.1166  -1.8466   1.1562   1.5161   2.1476   2.3578

          k = 0.4667 0.2713 0.0000 ( 30515 PWs)   bands (ev):

   -22.1563 -22.1562 -22.1374 -22.1368 -22.1204 -22.1193 -22.1082 -22.1071
   -22.0989 -22.0981 -13.3480 -13.2578  -7.6525  -7.5754  -4.7648  -4.4529
    -3.4560  -3.2095  -2.5309  -2.2693   1.6490   2.0084   2.6012   2.8464

          k = 0.4667 0.3391 0.0000 ( 30507 PWs)   bands (ev):

   -22.1591 -22.1591 -22.1353 -22.1348 -22.1203 -22.1195 -22.1084 -22.1075
   -22.0979 -22.0973 -13.2759 -13.2065  -7.4629  -7.4135  -5.1515  -4.8597
    -3.7577  -3.5147  -2.6773  -2.4806   1.9687   2.2440   3.1802   3.4634

          k = 0.4667 0.4070 0.0000 ( 30526 PWs)   bands (ev):

   -22.1613 -22.1613 -22.1337 -22.1334 -22.1202 -22.1198 -22.1082 -22.1077
   -22.0972 -22.0968 -13.2133 -13.1695  -7.2890  -7.2677  -5.3943  -5.1680
    -4.0611  -3.8696  -2.6748  -2.5542   2.1895   2.3623   3.6373   3.8624

          k = 0.4667 0.4748 0.0000 ( 30504 PWs)   bands (ev):

   -22.1625 -22.1625 -22.1328 -22.1327 -22.1202 -22.1200 -22.1080 -22.1078
   -22.0967 -22.0966 -13.1710 -13.1560  -7.1816  -7.1776  -5.4671  -5.3777
    -4.2038  -4.1288  -2.6344  -2.5936   2.3334   2.3922   3.8502   3.9604

     the Fermi energy is    -0.7607 ev

!    total energy              =    -413.80369677 Ry
     estimated scf accuracy    <          2.7E-12 Ry
     smearing contrib. (-TS)   =       0.00009243 Ry
     internal energy E=F+TS    =    -413.80378920 Ry

     The total energy is F=E-TS. E is the sum of the following terms:
     one-electron contribution =   -1193.30841766 Ry
     hartree contribution      =     608.89563391 Ry
     xc contribution           =    -154.42719880 Ry
     ewald contribution        =     325.03619335 Ry

     convergence has been achieved in   7 iterations

     negative rho (up, down):  2.823E-05 0.000E+00

     Forces acting on atoms (cartesian axes, Ry/au):

     atom    1 type  1   force =    -0.00137721    0.00000000    0.00079446
     atom    2 type  1   force =    -0.00137728    0.00000000   -0.00080171
     atom    3 type  2   force =     0.00137660    0.00000000    0.00047513
     atom    4 type  2   force =     0.00137790    0.00000000   -0.00046788

     Total force =     0.003051     Total SCF correction =     0.000004

     number of scf cycles    =   2
     number of bfgs steps    =   1

     energy   old            =    -413.8036861551 Ry
     energy   new            =    -413.8036967748 Ry

     CASE: energy  _new < energy  _old


     WARNING: bfgs curvature condition failed, Theta= 0.875
     new trust radius        =       0.0019273065 bohr
     new conv_thr            =            1.1E-11 Ry


ATOMIC_POSITIONS (crystal)
Sn            0.5836139590        0.7500000000        0.1446080405
Sn            0.0836121344        0.2500000000        0.0065375200
Se            0.0304920823        0.2500000000        0.1423510781
Se            0.5304897983        0.7500000000        0.0087934153



     Writing output data file ./wfc-out/pwscf.save/
     NEW-OLD atomic charge density approx. for the potential

     negative rho (up, down):  5.585E-05 0.000E+00

     total cpu time spent up to now is      105.1 secs

     Self-consistent Calculation

     iteration #  1     ecut=    80.00 Ry     beta= 0.70
     Davidson diagonalization with overlap
     ethr =  1.00E-06,  avg # of iterations =  2.0

     Threshold (ethr) on eigenvalues was too large:
     Diagonalizing with lowered threshold

     Davidson diagonalization with overlap
     ethr =  8.98E-10,  avg # of iterations =  6.5

     negative rho (up, down):  3.238E-05 0.000E+00

     total cpu time spent up to now is      115.8 secs

     total energy              =    -413.80370741 Ry
     estimated scf accuracy    <       0.00000052 Ry

     iteration #  2     ecut=    80.00 Ry     beta= 0.70
     Davidson diagonalization with overlap
     ethr =  1.30E-09,  avg # of iterations =  2.1

     negative rho (up, down):  2.892E-05 0.000E+00

     total cpu time spent up to now is      120.0 secs

     total energy              =    -413.80370738 Ry
     estimated scf accuracy    <       0.00000033 Ry

     iteration #  3     ecut=    80.00 Ry     beta= 0.70
     Davidson diagonalization with overlap
     ethr =  8.13E-10,  avg # of iterations =  2.0

     negative rho (up, down):  2.838E-05 0.000E+00

     total cpu time spent up to now is      124.1 secs

     total energy              =    -413.80370746 Ry
     estimated scf accuracy    <       0.00000002 Ry

     iteration #  4     ecut=    80.00 Ry     beta= 0.70
     Davidson diagonalization with overlap
     ethr =  5.23E-11,  avg # of iterations =  3.0

     negative rho (up, down):  2.827E-05 0.000E+00

     total cpu time spent up to now is      128.4 secs

     total energy              =    -413.80370746 Ry
     estimated scf accuracy    <          4.2E-09 Ry

     iteration #  5     ecut=    80.00 Ry     beta= 0.70
     Davidson diagonalization with overlap
     ethr =  1.06E-11,  avg # of iterations =  2.9

     negative rho (up, down):  2.824E-05 0.000E+00

     total cpu time spent up to now is      132.8 secs

     total energy              =    -413.80370746 Ry
     estimated scf accuracy    <          7.9E-09 Ry

     iteration #  6     ecut=    80.00 Ry     beta= 0.70
     Davidson diagonalization with overlap
     ethr =  1.06E-11,  avg # of iterations =  2.4

     negative rho (up, down):  2.823E-05 0.000E+00

     total cpu time spent up to now is      136.9 secs

     total energy              =    -413.80370747 Ry
     estimated scf accuracy    <          5.2E-10 Ry

     iteration #  7     ecut=    80.00 Ry     beta= 0.70
     Davidson diagonalization with overlap
     ethr =  1.29E-12,  avg # of iterations =  2.6

     negative rho (up, down):  2.823E-05 0.000E+00

     total cpu time spent up to now is      141.1 secs

     End of self-consistent calculation

          k = 0.0000 0.0000 0.0000 ( 30567 PWs)   bands (ev):

   -22.1524 -22.1443 -22.1443 -22.1410 -22.1377 -22.1161 -22.1106 -22.1088
   -22.0982 -22.0956 -14.2226 -13.1875  -7.1218  -6.1070  -4.3339  -3.9418
    -3.9240  -2.7562  -2.6931  -1.4570   0.6384   2.4312   2.8993   3.0908

          k = 0.0000 0.0678 0.0000 ( 30551 PWs)   bands (ev):

   -22.1519 -22.1446 -22.1439 -22.1411 -22.1377 -22.1162 -22.1106 -22.1085
   -22.0985 -22.0956 -14.2026 -13.1833  -7.1928  -6.1892  -4.3386  -3.9312
    -3.8462  -2.7324  -2.5922  -1.4703   0.6493   2.5104   2.8983   2.9396

          k = 0.0000 0.1357 0.0000 ( 30571 PWs)   bands (ev):

   -22.1504 -22.1455 -22.1429 -22.1415 -22.1373 -22.1165 -22.1106 -22.1077
   -22.0993 -22.0957 -14.1437 -13.1732  -7.3793  -6.4178  -4.3214  -3.8515
    -3.6790  -2.6701  -2.3284  -1.5157   0.6886   2.4278   2.6804   2.6862

          k = 0.0000 0.2035 0.0000 ( 30563 PWs)   bands (ev):

   -22.1484 -22.1467 -22.1424 -22.1415 -22.1360 -22.1171 -22.1105 -22.1065
   -22.1006 -22.0958 -14.0492 -13.1639  -7.6222  -6.7439  -4.2444  -3.7088
    -3.4567  -2.5805  -1.9769  -1.5998   0.7724   1.7829   2.2237   2.6908

          k = 0.0000 0.2713 0.0000 ( 30489 PWs)   bands (ev):

   -22.1481 -22.1473 -22.1427 -22.1400 -22.1338 -22.1180 -22.1103 -22.1050
   -22.1021 -22.0961 -13.9250 -13.1658  -7.8601  -7.1086  -4.1021  -3.5153
    -3.2175  -2.4852  -1.7090  -1.5886   0.9164   1.1335   1.7418   2.3615

          k = 0.0000 0.3391 0.0000 ( 30503 PWs)   bands (ev):

   -22.1494 -22.1480 -22.1416 -22.1388 -22.1312 -22.1193 -22.1097 -22.1037
   -22.1033 -22.0966 -13.7797 -13.1913  -8.0429  -7.4621  -3.9056  -3.2905
    -3.0218  -2.4199  -1.7786  -1.2062   0.5485   1.1246   1.3526   1.8518

          k = 0.0000 0.4070 0.0000 ( 30467 PWs)   bands (ev):

   -22.1502 -22.1493 -22.1400 -22.1382 -22.1283 -22.1209 -22.1089 -22.1052
   -22.1015 -22.0974 -13.6252 -13.2504  -8.1356  -7.7665  -3.6711  -3.1133
    -2.9125  -2.4274  -1.6924  -0.9516   0.1701   1.1329   1.2226   1.4616

          k = 0.0000 0.4748 0.0000 ( 30420 PWs)   bands (ev):

   -22.1505 -22.1502 -22.1388 -22.1381 -22.1255 -22.1230 -22.1079 -22.1066
   -22.0999 -22.0984 -13.4759 -13.3470  -8.1197  -7.9928  -3.4216  -3.1986
    -2.7239  -2.5345  -1.4206  -1.0829   0.2770   0.7143   1.1243   1.3181

          k = 0.0667 0.0000 0.0000 ( 30547 PWs)   bands (ev):

   -22.1522 -22.1445 -22.1441 -22.1404 -22.1381 -22.1161 -22.1104 -22.1087
   -22.0983 -22.0958 -14.2041 -13.1856  -7.1920  -6.1909  -4.3334  -3.9108
    -3.8545  -2.7350  -2.5837  -1.4754   0.6508   2.4837   2.7945   3.0115

          k = 0.0667 0.0678 0.0000 ( 30544 PWs)   bands (ev):

   -22.1517 -22.1448 -22.1437 -22.1407 -22.1378 -22.1162 -22.1105 -22.1084
   -22.0986 -22.0958 -14.1842 -13.1814  -7.2514  -6.2634  -4.3303  -4.0419
    -3.6471  -2.8200  -2.3945  -1.4858   0.6636   2.5441   2.5531   2.9907

          k = 0.0667 0.1357 0.0000 ( 30544 PWs)   bands (ev):

   -22.1502 -22.1457 -22.1427 -22.1415 -22.1370 -22.1165 -22.1106 -22.1075
   -22.0995 -22.0958 -14.1256 -13.1710  -7.4122  -6.4687  -4.3028  -4.0974
    -3.3746  -2.8494  -2.0859  -1.5209   0.7073   1.9899   2.6611   2.9526

          k = 0.0667 0.2035 0.0000 ( 30529 PWs)   bands (ev):

   -22.1484 -22.1470 -22.1426 -22.1412 -22.1354 -22.1171 -22.1106 -22.1063
   -22.1007 -22.0959 -14.0318 -13.1611  -7.6296  -6.7692  -4.2232  -4.0493
    -3.0999  -2.7968  -1.7611  -1.5826   0.7949   1.3970   2.4264   2.5906

          k = 0.0667 0.2713 0.0000 ( 30532 PWs)   bands (ev):

   -22.1485 -22.1477 -22.1427 -22.1397 -22.1333 -22.1180 -22.1104 -22.1048
   -22.1022 -22.0961 -13.9084 -13.1622  -7.8489  -7.1133  -4.0838  -3.9097
    -2.8710  -2.6994  -1.6465  -1.4782   0.8902   0.9357   1.8930   2.1117

          k = 0.0667 0.3391 0.0000 ( 30496 PWs)   bands (ev):

   -22.1498 -22.1486 -22.1413 -22.1385 -22.1307 -22.1192 -22.1099 -22.1038
   -22.1031 -22.0966 -13.7645 -13.1862  -8.0207  -7.4524  -3.8923  -3.7004
    -2.7627  -2.6135  -1.6401  -1.2962   0.5602   1.0802   1.4055   1.6723

          k = 0.0667 0.4070 0.0000 ( 30453 PWs)   bands (ev):

   -22.1507 -22.1499 -22.1396 -22.1378 -22.1279 -22.1209 -22.1091 -22.1053
   -22.1013 -22.0973 -13.6117 -13.2435  -8.1084  -7.7472  -3.6655  -3.4588
    -2.8135  -2.6154  -1.5131  -1.2318   0.4180   0.7962   1.4171   1.4925

          k = 0.0667 0.4748 0.0000 ( 30436 PWs)   bands (ev):

   -22.1511 -22.1508 -22.1384 -22.1378 -22.1253 -22.1229 -22.1080 -22.1068
   -22.0997 -22.0983 -13.4645 -13.3379  -8.0918  -7.9676  -3.4349  -3.3078
    -2.8771  -2.7431  -1.3434  -1.2431   0.3771   0.4879   1.4747   1.7485

          k = 0.1333 0.0000 0.0000 ( 30519 PWs)   bands (ev):

   -22.1516 -22.1450 -22.1437 -22.1391 -22.1385 -22.1162 -22.1099 -22.1085
   -22.0986 -22.0965 -14.1495 -13.1822  -7.3741  -6.4204  -4.3064  -3.8190
    -3.6693  -2.6746  -2.3009  -1.5337   0.6943   2.3196   2.5838   2.8222

          k = 0.1333 0.0678 0.0000 ( 30558 PWs)   bands (ev):

   -22.1511 -22.1454 -22.1433 -22.1404 -22.1372 -22.1163 -22.1102 -22.1080
   -22.0990 -22.0964 -14.1300 -13.1776  -7.4080  -6.4699  -4.2917  -4.0823
    -3.3593  -2.8508  -2.0677  -1.5337   0.7117   1.9661   2.5930   2.9960

          k = 0.1333 0.1357 0.0000 ( 30530 PWs)   bands (ev):

   -22.1498 -22.1464 -22.1422 -22.1419 -22.1357 -22.1166 -22.1105 -22.1070
   -22.1000 -22.0962 -14.0725 -13.1663  -7.5064  -6.6166  -4.3108  -4.2457
    -3.0353  -2.9991  -1.7351  -1.5314   0.7659   1.4290   2.3980   3.0909

          k = 0.1333 0.2035 0.0000 ( 30530 PWs)   bands (ev):

   -22.1485 -22.1479 -22.1429 -22.1407 -22.1338 -22.1172 -22.1107 -22.1057
   -22.1013 -22.0961 -13.9805 -13.1547  -7.6545  -6.8474  -4.4117  -4.1615
    -3.1044  -2.7161  -1.5117  -1.5107   0.8568   1.0010   1.8772   2.9683

          k = 0.1333 0.2713 0.0000 ( 30505 PWs)   bands (ev):

   -22.1495 -22.1488 -22.1422 -22.1391 -22.1317 -22.1180 -22.1106 -22.1041
   -22.1028 -22.0962 -13.8600 -13.1529  -7.8191  -7.1314  -4.3792  -4.0320
    -3.0732  -2.5838  -1.5081  -1.4458   0.8335   0.9332   1.3943   2.6088

          k = 0.1333 0.3391 0.0000 ( 30480 PWs)   bands (ev):

   -22.1510 -22.1502 -22.1404 -22.1377 -22.1294 -22.1192 -22.1101 -22.1043
   -22.1025 -22.0965 -13.7201 -13.1728  -7.9567  -7.4264  -4.2300  -3.8582
    -3.0082  -2.6262  -1.6822  -1.3551   0.7292   0.9163   1.3719   2.2036

          k = 0.1333 0.4070 0.0000 ( 30440 PWs)   bands (ev):

   -22.1522 -22.1515 -22.1387 -22.1370 -22.1270 -22.1208 -22.1093 -22.1057
   -22.1009 -22.0971 -13.5726 -13.2244  -8.0282  -7.6915  -3.9931  -3.6601
    -3.0250  -2.7901  -1.8018  -1.3545   0.5495   1.0135   1.6173   1.9539

          k = 0.1333 0.4748 0.0000 ( 30471 PWs)   bands (ev):

   -22.1527 -22.1524 -22.1375 -22.1369 -22.1247 -22.1226 -22.1083 -22.1071
   -22.0993 -22.0981 -13.4318 -13.3121  -8.0092  -7.8935  -3.7149  -3.5392
    -3.1188  -2.9994  -1.7125  -1.5080   0.6260   0.8597   1.9193   2.0422

          k = 0.2000 0.0000 0.0000 ( 30555 PWs)   bands (ev):

   -22.1506 -22.1458 -22.1431 -22.1406 -22.1356 -22.1163 -22.1090 -22.1082
   -22.0990 -22.0975 -14.0619 -13.1829  -7.6071  -6.7412  -4.2224  -3.6699
    -3.4178  -2.5863  -1.9230  -1.6332   0.7844   1.7107   2.2985   2.5499

          k = 0.2000 0.0678 0.0000 ( 30562 PWs)   bands (ev):

   -22.1502 -22.1462 -22.1427 -22.1414 -22.1348 -22.1164 -22.1096 -22.1074
   -22.0996 -22.0972 -14.0430 -13.1778  -7.6156  -6.7658  -4.2027  -4.0214
    -3.0622  -2.8042  -1.7114  -1.6092   0.8064   1.3699   2.3485   2.6186

          k = 0.2000 0.1357 0.0000 ( 30541 PWs)   bands (ev):

   -22.1492 -22.1474 -22.1427 -22.1415 -22.1333 -22.1167 -22.1103 -22.1062
   -22.1008 -22.0967 -13.9873 -13.1648  -7.6449  -6.8437  -4.3994  -4.1470
    -3.1166  -2.6956  -1.5211  -1.4739   0.8659   0.9889   1.8544   2.9860

          k = 0.2000 0.2035 0.0000 ( 30508 PWs)   bands (ev):

   -22.1491 -22.1491 -22.1429 -22.1399 -22.1315 -22.1173 -22.1107 -22.1048
   -22.1021 -22.0964 -13.8986 -13.1500  -7.7013  -6.9813  -4.6553  -4.0634
    -3.3248  -2.5078  -1.5278  -1.3581   0.8997   0.9268   1.3945   3.0958

          k = 0.2000 0.2713 0.0000 ( 30492 PWs)   bands (ev):

   -22.1511 -22.1505 -22.1414 -22.1382 -22.1296 -22.1181 -22.1107 -22.1035
   -22.1033 -22.0964 -13.7832 -13.1432  -7.7806  -7.1729  -4.7559  -3.9582
    -3.3977  -2.5066  -1.8538  -1.2251   0.7149   1.1778   1.3558   2.8874

          k = 0.2000 0.3391 0.0000 ( 30484 PWs)   bands (ev):

   -22.1529 -22.1523 -22.1393 -22.1367 -22.1276 -22.1192 -22.1103 -22.1049
   -22.1017 -22.0965 -13.6503 -13.1556  -7.8586  -7.3934  -4.7007  -3.8268
    -3.4007  -2.6323  -2.2153  -1.2999   0.6344   1.5409   1.5665   2.5638

          k = 0.2000 0.4070 0.0000 ( 30441 PWs)   bands (ev):

   -22.1542 -22.1539 -22.1375 -22.1358 -22.1257 -22.1206 -22.1096 -22.1062
   -22.1002 -22.0969 -13.5119 -13.1976  -7.9000  -7.6058  -4.5133  -3.7169
    -3.4449  -2.8359  -2.3670  -1.5847   0.8132   1.7405   1.8522   2.3595

          k = 0.2000 0.4748 0.0000 ( 30433 PWs)   bands (ev):

   -22.1549 -22.1548 -22.1362 -22.1356 -22.1239 -22.1222 -22.1086 -22.1074
   -22.0988 -22.0977 -13.3819 -13.2739  -7.8757  -7.7749  -4.2296  -3.9063
    -3.3190  -3.0789  -2.2295  -1.9323   1.1336   1.4962   2.1613   2.3848

          k = 0.2667 0.0000 0.0000 ( 30548 PWs)   bands (ev):

   -22.1493 -22.1466 -22.1427 -22.1424 -22.1321 -22.1166 -22.1079 -22.1077
   -22.0997 -22.0988 -13.9466 -13.1967  -7.8307  -7.0942  -4.0777  -3.4705
    -3.1566  -2.4916  -1.7509  -1.5056   0.9353   1.0842   1.8005   2.2482

          k = 0.2667 0.0678 0.0000 ( 30525 PWs)   bands (ev):

   -22.1490 -22.1472 -22.1429 -22.1422 -22.1315 -22.1167 -22.1089 -22.1065
   -22.1005 -22.0982 -13.9286 -13.1907  -7.8207  -7.0988  -4.0583  -3.8736
    -2.8189  -2.7185  -1.6743  -1.3843   0.8556   0.9576   1.8414   2.1461

          k = 0.2667 0.1357 0.0000 ( 30527 PWs)   bands (ev):

   -22.1489 -22.1486 -22.1434 -22.1410 -22.1302 -22.1170 -22.1098 -22.1052
   -22.1018 -22.0975 -13.8757 -13.1749  -7.7950  -7.1174  -4.3612  -4.0045
    -3.1124  -2.5579  -1.4408  -1.4182   0.8091   0.9617   1.3573   2.6307

          k = 0.2667 0.2035 0.0000 ( 30481 PWs)   bands (ev):

   -22.1506 -22.1502 -22.1425 -22.1392 -22.1286 -22.1174 -22.1104 -22.1038
   -22.1031 -22.0969 -13.7920 -13.1551  -7.7653  -7.1627  -4.7521  -3.9336
    -3.4400  -2.4999  -1.8020  -1.2087   0.7220   1.1724   1.3472   2.9020

          k = 0.2667 0.2713 0.0000 ( 30481 PWs)   bands (ev):

   -22.1528 -22.1524 -22.1404 -22.1373 -22.1270 -22.1182 -22.1106 -22.1044
   -22.1023 -22.0966 -13.6840 -13.1405  -7.7459  -7.2466  -4.9939  -3.8869
    -3.6145  -2.5711  -2.2968  -1.2624   0.6813   1.5721   1.7103   2.8666

          k = 0.2667 0.3391 0.0000 ( 30479 PWs)   bands (ev):

   -22.1549 -22.1547 -22.1381 -22.1358 -22.1255 -22.1192 -22.1103 -22.1056
   -22.1008 -22.0966 -13.5614 -13.1421  -7.7409  -7.3669  -5.0596  -3.8586
    -3.7128  -2.7348  -2.6690  -1.5820   0.9227   1.8831   2.2469   2.6691

          k = 0.2667 0.4070 0.0000 ( 30464 PWs)   bands (ev):

   -22.1565 -22.1564 -22.1362 -22.1347 -22.1242 -22.1203 -22.1097 -22.1067
   -22.0994 -22.0968 -13.4361 -13.1701  -7.7343  -7.5019  -4.9540  -3.9941
    -3.7280  -2.9729  -2.7363  -1.9601   1.2607   2.2405   2.3112   2.7508

          k = 0.2667 0.4748 0.0000 ( 30435 PWs)   bands (ev):

   -22.1574 -22.1574 -22.1349 -22.1344 -22.1229 -22.1216 -22.1087 -22.1077
   -22.0983 -22.0974 -13.3216 -13.2303  -7.6997  -7.6206  -4.7072  -4.3634
    -3.5225  -3.2527  -2.5719  -2.2996   1.6190   1.9777   2.5932   2.8422

          k = 0.3333 0.0000 0.0000 ( 30508 PWs)   bands (ev):

   -22.1479 -22.1473 -22.1442 -22.1426 -22.1284 -22.1172 -22.1069 -22.1067
   -22.1006 -22.1002 -13.8113 -13.2332  -7.9990  -7.4330  -3.8815  -3.2325
    -2.9715  -2.4251  -1.8066  -1.0944   0.5094   1.1527   1.4089   1.7745

          k = 0.3333 0.0678 0.0000 ( 30535 PWs)   bands (ev):

   -22.1480 -22.1479 -22.1443 -22.1421 -22.1280 -22.1172 -22.1081 -22.1054
   -22.1017 -22.0993 -13.7945 -13.2259  -7.9777  -7.4233  -3.8652  -3.6600
    -2.7261  -2.6473  -1.6369  -1.1528   0.5071   1.1319   1.3446   1.7253

          k = 0.3333 0.1357 0.0000 ( 30509 PWs)   bands (ev):

   -22.1496 -22.1491 -22.1436 -22.1407 -22.1270 -22.1174 -22.1091 -22.1041
   -22.1030 -22.0983 -13.7456 -13.2060  -7.9169  -7.3979  -4.2134  -3.8213
    -3.0868  -2.6133  -1.5387  -1.3093   0.7405   0.8822   1.3528   2.2411

          k = 0.3333 0.2035 0.0000 ( 30494 PWs)   bands (ev):

   -22.1519 -22.1515 -22.1417 -22.1388 -22.1257 -22.1178 -22.1099 -22.1043
   -22.1026 -22.0976 -13.6686 -13.1791  -7.8257  -7.3682  -4.7028  -3.7755
    -3.5077  -2.6256  -2.1069  -1.2566   0.6434   1.5371   1.5606   2.5811

          k = 0.3333 0.2713 0.0000 ( 30471 PWs)   bands (ev):

   -22.1545 -22.1542 -22.1393 -22.1368 -22.1245 -22.1184 -22.1102 -22.1054
   -22.1012 -22.0971 -13.5708 -13.1538  -7.7209  -7.3507  -5.0687  -3.8819
    -3.7233  -2.7276  -2.6178  -1.5659   0.9338   1.8844   2.2567   2.6773

          k = 0.3333 0.3391 0.0000 ( 30504 PWs)   bands (ev):

   -22.1569 -22.1568 -22.1370 -22.1351 -22.1235 -22.1192 -22.1100 -22.1063
   -22.0999 -22.0968 -13.4619 -13.1409  -7.6245  -7.3597  -5.2671  -4.0781
    -3.8938  -2.9339  -2.8654  -1.9420   1.3039   2.3088   2.6120   2.9450

          k = 0.3333 0.4070 0.0000 ( 30510 PWs)   bands (ev):

   -22.1588 -22.1587 -22.1352 -22.1339 -22.1226 -22.1201 -22.1095 -22.1071
   -22.0987 -22.0968 -13.3540 -13.1506  -7.5519  -7.3964  -5.2733  -4.3882
    -3.9733  -3.2363  -2.8323  -2.2446   1.6431   2.4556   2.7623   3.4294

          k = 0.3333 0.4748 0.0000 ( 30489 PWs)   bands (ev):

   -22.1598 -22.1598 -22.1340 -22.1336 -22.1218 -22.1210 -22.1087 -22.1079
   -22.0977 -22.0971 -13.2597 -13.1900  -7.4979  -7.4469  -5.0973  -4.7808
    -3.8302  -3.5626  -2.6799  -2.4811   1.9497   2.2251   3.1623   3.4367

          k = 0.4000 0.0000 0.0000 ( 30476 PWs)   bands (ev):

   -22.1477 -22.1464 -22.1457 -22.1430 -22.1250 -22.1182 -22.1059 -22.1054
   -22.1017 -22.1016 -13.6665 -13.3000  -8.0811  -7.7231  -3.6472  -2.9752
    -2.9741  -2.4295  -1.6759  -0.8216   0.1353   1.1886   1.2426   1.4378

          k = 0.4000 0.0678 0.0000 ( 30493 PWs)   bands (ev):

   -22.1484 -22.1476 -22.1447 -22.1424 -22.1247 -22.1182 -22.1070 -22.1042
   -22.1030 -22.1004 -13.6513 -13.2909  -8.0545  -7.7038  -3.6365  -3.4131
    -2.8153  -2.6581  -1.4570  -1.0615   0.3533   0.8040   1.4771   1.4853

          k = 0.4000 0.1357 0.0000 ( 30500 PWs)   bands (ev):

   -22.1503 -22.1498 -22.1430 -22.1409 -22.1240 -22.1182 -22.1082 -22.1043
   -22.1028 -22.0993 -13.6074 -13.2657  -7.9763  -7.6486  -3.9832  -3.6142
    -3.1329  -2.7924  -1.6286  -1.2628   0.5452   0.9726   1.6047   2.0019

          k = 0.4000 0.2035 0.0000 ( 30514 PWs)   bands (ev):

   -22.1529 -22.1526 -22.1408 -22.1388 -22.1231 -22.1184 -22.1090 -22.1055
   -22.1015 -22.0984 -13.5391 -13.2295  -7.8526  -7.5653  -4.5294  -3.7077
    -3.5282  -2.8276  -2.2329  -1.5204   0.8305   1.7454   1.8462   2.3632

          k = 0.4000 0.2713 0.0000 ( 30509 PWs)   bands (ev):

   -22.1557 -22.1556 -22.1384 -22.1367 -22.1223 -22.1188 -22.1095 -22.1064
   -22.1002 -22.0976 -13.4541 -13.1907  -7.6959  -7.4681  -4.9826  -4.1128
    -3.6437  -2.9504  -2.6795  -1.9363   1.2837   2.2471   2.3388   2.7553

          k = 0.4000 0.3391 0.0000 ( 30504 PWs)   bands (ev):

   -22.1584 -22.1584 -22.1362 -22.1349 -22.1218 -22.1193 -22.1094 -22.1071
   -22.0990 -22.0971 -13.3622 -13.1598  -7.5294  -7.3764  -5.2968  -4.4726
    -3.8931  -3.2147  -2.8256  -2.2431   1.6547   2.4662   2.7729   3.4711

          k = 0.4000 0.4070 0.0000 ( 30525 PWs)   bands (ev):

   -22.1605 -22.1605 -22.1344 -22.1336 -22.1213 -22.1199 -22.1090 -22.1075
   -22.0981 -22.0968 -13.2755 -13.1475  -7.3884  -7.3100  -5.4308  -4.8055
    -4.1013  -3.5698  -2.7796  -2.4216   1.9468   2.4538   3.2727   3.9017

          k = 0.4000 0.4748 0.0000 ( 30490 PWs)   bands (ev):

   -22.1616 -22.1616 -22.1334 -22.1331 -22.1209 -22.1205 -22.1085 -22.1080
   -22.0973 -22.0969 -13.2058 -13.1619  -7.3045  -7.2825  -5.3645  -5.1294
    -4.0936  -3.8929  -2.6731  -2.5522   2.1813   2.3540   3.6422   3.8751

          k = 0.4667 0.0000 0.0000 ( 30478 PWs)   bands (ev):

   -22.1475 -22.1469 -22.1450 -22.1438 -22.1220 -22.1198 -22.1046 -22.1041
   -22.1032 -22.1028 -13.5246 -13.3988  -8.0616  -7.9388  -3.3927  -3.1482
    -2.7285  -2.5337  -1.3626  -0.9894   0.2794   0.7251   1.1788   1.3744

          k = 0.4667 0.0678 0.0000 ( 30485 PWs)   bands (ev):

   -22.1484 -22.1481 -22.1440 -22.1431 -22.1219 -22.1197 -22.1057 -22.1044
   -22.1029 -22.1017 -13.5114 -13.3878  -8.0339  -7.9138  -3.3969  -3.2489
    -2.9199  -2.7855  -1.2361  -1.0905   0.3326   0.4745   1.5331   1.7299

          k = 0.4667 0.1357 0.0000 ( 30511 PWs)   bands (ev):

   -22.1506 -22.1504 -22.1422 -22.1414 -22.1214 -22.1195 -22.1070 -22.1056
   -22.1016 -22.1004 -13.4734 -13.3563  -7.9524  -7.8402  -3.7100  -3.5014
    -3.2016  -3.0211  -1.5541  -1.3800   0.6138   0.8349   1.8952   2.0374

          k = 0.4667 0.2035 0.0000 ( 30516 PWs)   bands (ev):

   -22.1534 -22.1533 -22.1399 -22.1392 -22.1210 -22.1194 -22.1079 -22.1067
   -22.1004 -22.0993 -13.4155 -13.3093  -7.8217  -7.7235  -4.2658  -3.9606
    -3.3150  -3.0678  -2.1181  -1.8477   1.1567   1.5169   2.1470   2.3572

          k = 0.4667 0.2713 0.0000 ( 30515 PWs)   bands (ev):

   -22.1564 -22.1564 -22.1376 -22.1370 -22.1206 -22.1195 -22.1085 -22.1074
   -22.0992 -22.0984 -13.3453 -13.2551  -7.6515  -7.5745  -4.7621  -4.4499
    -3.4541  -3.2075  -2.5325  -2.2707   1.6485   2.0077   2.6018   2.8474

          k = 0.4667 0.3391 0.0000 ( 30507 PWs)   bands (ev):

   -22.1593 -22.1592 -22.1355 -22.1350 -22.1205 -22.1197 -22.1086 -22.1078
   -22.0983 -22.0976 -13.2732 -13.2039  -7.4613  -7.4119  -5.1496  -4.8575
    -3.7564  -3.5131  -2.6783  -2.4816   1.9679   2.2431   3.1812   3.4647

          k = 0.4667 0.4070 0.0000 ( 30526 PWs)   bands (ev):

   -22.1614 -22.1614 -22.1339 -22.1336 -22.1204 -22.1200 -22.1085 -22.1080
   -22.0975 -22.0971 -13.2107 -13.1669  -7.2864  -7.2652  -5.3934  -5.1670
    -4.0599  -3.8683  -2.6753  -2.5548   2.1891   2.3619   3.6383   3.8632

          k = 0.4667 0.4748 0.0000 ( 30504 PWs)   bands (ev):

   -22.1626 -22.1626 -22.1330 -22.1329 -22.1204 -22.1203 -22.1083 -22.1081
   -22.0970 -22.0969 -13.1684 -13.1535  -7.1783  -7.1743  -5.4672  -5.3777
    -4.2025  -4.1275  -2.6348  -2.5940   2.3334   2.3923   3.8496   3.9587

     the Fermi energy is    -0.7587 ev

!    total energy              =    -413.80370747 Ry
     estimated scf accuracy    <          6.3E-12 Ry
     smearing contrib. (-TS)   =       0.00009115 Ry
     internal energy E=F+TS    =    -413.80379862 Ry

     The total energy is F=E-TS. E is the sum of the following terms:
     one-electron contribution =   -1193.10880248 Ry
[...]

   -22.1580 -22.1513 -22.1510 -22.1466 -22.1439 -22.1215 -22.1179 -22.1158
   -22.1057 -22.1030 -14.1621 -13.1622  -7.2414  -6.2797  -4.3077  -4.0335
    -3.6400  -2.8082  -2.3920  -1.4989   0.6710   2.5683   2.6545   2.9975

          k = 0.0667 0.1357 0.0000 ( 30544 PWs)   bands (ev):

   -22.1565 -22.1520 -22.1501 -22.1476 -22.1429 -22.1218 -22.1180 -22.1149
   -22.1066 -22.1030 -14.1040 -13.1523  -7.3997  -6.4796  -4.2803  -4.0904
    -3.3644  -2.8434  -2.0766  -1.5340   0.7148   1.9852   2.7426   2.9714

          k = 0.0667 0.2035 0.0000 ( 30529 PWs)   bands (ev):

   -22.1546 -22.1533 -22.1491 -22.1487 -22.1411 -22.1223 -22.1180 -22.1137
   -22.1079 -22.1032 -14.0108 -13.1433  -7.6140  -6.7732  -4.2020  -4.0420
    -3.0867  -2.7912  -1.7467  -1.5951   0.8021   1.3748   2.4345   2.5888

          k = 0.0667 0.2713 0.0000 ( 30532 PWs)   bands (ev):

   -22.1547 -22.1533 -22.1499 -22.1472 -22.1388 -22.1232 -22.1177 -22.1122
   -22.1093 -22.1035 -13.8885 -13.1453  -7.8306  -7.1105  -4.0642  -3.9006
    -2.8552  -2.6900  -1.6565  -1.4587   0.8549   0.9424   1.8675   2.0923

          k = 0.0667 0.3391 0.0000 ( 30496 PWs)   bands (ev):

   -22.1559 -22.1542 -22.1487 -22.1460 -22.1360 -22.1244 -22.1172 -22.1109
   -22.1106 -22.1040 -13.7456 -13.1701  -8.0006  -7.4435  -3.8742  -3.6878
    -2.7476  -2.5972  -1.6432  -1.2753   0.5186   1.0787   1.3735   1.6377

          k = 0.0667 0.4070 0.0000 ( 30453 PWs)   bands (ev):

   -22.1567 -22.1556 -22.1471 -22.1453 -22.1331 -22.1260 -22.1163 -22.1124
   -22.1089 -22.1048 -13.5941 -13.2278  -8.0877  -7.7334  -3.6481  -3.4405
    -2.8024  -2.5931  -1.5057  -1.2150   0.3789   0.7570   1.3697   1.4883

          k = 0.0667 0.4748 0.0000 ( 30436 PWs)   bands (ev):

   -22.1570 -22.1566 -22.1459 -22.1453 -22.1304 -22.1280 -22.1152 -22.1139
   -22.1073 -22.1059 -13.4479 -13.3219  -8.0719  -7.9501  -3.4166  -3.2854
    -2.8661  -2.7228  -1.3283  -1.2271   0.3351   0.4422   1.4262   1.7207

          k = 0.1333 0.0000 0.0000 ( 30519 PWs)   bands (ev):

   -22.1578 -22.1514 -22.1510 -22.1453 -22.1444 -22.1215 -22.1172 -22.1160
   -22.1057 -22.1036 -14.1271 -13.1622  -7.3692  -6.4373  -4.2899  -3.7864
    -3.6810  -2.6385  -2.3144  -1.5440   0.6987   2.3640   2.6883   2.8057

          k = 0.1333 0.0678 0.0000 ( 30558 PWs)   bands (ev):

   -22.1573 -22.1518 -22.1506 -22.1466 -22.1432 -22.1216 -22.1176 -22.1154
   -22.1061 -22.1035 -14.1077 -13.1578  -7.4018  -6.4853  -4.2743  -4.0695
    -3.3511  -2.8310  -2.0653  -1.5442   0.7163   1.9773   2.6913   3.0054

          k = 0.1333 0.1357 0.0000 ( 30530 PWs)   bands (ev):

   -22.1559 -22.1528 -22.1495 -22.1483 -22.1415 -22.1219 -22.1180 -22.1143
   -22.1071 -22.1034 -14.0506 -13.1471  -7.4971  -6.6275  -4.3015  -4.2260
    -3.0240  -2.9866  -1.7239  -1.5418   0.7708   1.4160   2.4328   3.1050

          k = 0.1333 0.2035 0.0000 ( 30530 PWs)   bands (ev):

   -22.1544 -22.1541 -22.1498 -22.1480 -22.1395 -22.1224 -22.1182 -22.1130
   -22.1084 -22.1033 -13.9594 -13.1364  -7.6409  -6.8519  -4.4046  -4.1400
    -3.0979  -2.7007  -1.5199  -1.4926   0.8621   0.9697   1.8631   2.9780

          k = 0.1333 0.2713 0.0000 ( 30505 PWs)   bands (ev):

   -22.1557 -22.1543 -22.1495 -22.1465 -22.1372 -22.1232 -22.1180 -22.1115
   -22.1099 -22.1035 -13.8399 -13.1356  -7.8015  -7.1287  -4.3730  -4.0101
    -3.0677  -2.5682  -1.4895  -1.4465   0.7928   0.9332   1.3648   2.6051

          k = 0.1333 0.3391 0.0000 ( 30480 PWs)   bands (ev):

   -22.1571 -22.1558 -22.1478 -22.1452 -22.1347 -22.1244 -22.1175 -22.1114
   -22.1100 -22.1039 -13.7011 -13.1563  -7.9363  -7.4171  -4.2234  -3.8371
    -2.9993  -2.6128  -1.6731  -1.3451   0.6963   0.8783   1.3620   2.1891

          k = 0.1333 0.4070 0.0000 ( 30440 PWs)   bands (ev):

   -22.1582 -22.1573 -22.1461 -22.1444 -22.1322 -22.1259 -22.1167 -22.1129
   -22.1084 -22.1046 -13.5548 -13.2084  -8.0065  -7.6768  -3.9842  -3.6398
    -3.0120  -2.7780  -1.8023  -1.3400   0.5076   0.9844   1.6112   1.9279

          k = 0.1333 0.4748 0.0000 ( 30471 PWs)   bands (ev):

   -22.1586 -22.1583 -22.1449 -22.1443 -22.1299 -22.1278 -22.1155 -22.1142
   -22.1069 -22.1056 -13.4150 -13.2959  -7.9881  -7.8748  -3.7015  -3.5197
    -3.1079  -2.9879  -1.7123  -1.4998   0.5900   0.8317   1.9122   2.0175

          k = 0.2000 0.0000 0.0000 ( 30555 PWs)   bands (ev):

   -22.1568 -22.1522 -22.1503 -22.1469 -22.1416 -22.1217 -22.1163 -22.1156
   -22.1062 -22.1047 -14.0392 -13.1620  -7.6068  -6.7569  -4.2109  -3.6355
    -3.4240  -2.5466  -1.9303  -1.6396   0.7846   1.7423   2.2754   2.6366

          k = 0.2000 0.0678 0.0000 ( 30562 PWs)   bands (ev):

   -22.1563 -22.1526 -22.1499 -22.1477 -22.1408 -22.1218 -22.1170 -22.1148
   -22.1068 -22.1043 -14.0204 -13.1571  -7.6141  -6.7804  -4.1902  -4.0039
    -3.0516  -2.7756  -1.7074  -1.6156   0.8068   1.3732   2.3957   2.6193

          k = 0.2000 0.1357 0.0000 ( 30541 PWs)   bands (ev):

   -22.1552 -22.1538 -22.1493 -22.1487 -22.1391 -22.1221 -22.1178 -22.1135
   -22.1079 -22.1039 -13.9652 -13.1448  -7.6399  -6.8548  -4.3865  -4.1312
    -3.0971  -2.6817  -1.5258  -1.4620   0.8668   0.9710   1.8566   2.9940

          k = 0.2000 0.2035 0.0000 ( 30508 PWs)   bands (ev):

   -22.1554 -22.1547 -22.1500 -22.1471 -22.1372 -22.1226 -22.1182 -22.1121
   -22.1093 -22.1036 -13.8773 -13.1309  -7.6910  -6.9865  -4.6463  -4.0422
    -3.3136  -2.4941  -1.5156  -1.3564   0.8971   0.8975   1.3759   3.1027

          k = 0.2000 0.2713 0.0000 ( 30492 PWs)   bands (ev):

   -22.1573 -22.1561 -22.1486 -22.1455 -22.1351 -22.1234 -22.1182 -22.1107
   -22.1106 -22.1036 -13.7629 -13.1252  -7.7644  -7.1706  -4.7506  -3.9320
    -3.3932  -2.4940  -1.8500  -1.2155   0.6916   1.1460   1.3437   2.8925

          k = 0.2000 0.3391 0.0000 ( 30484 PWs)   bands (ev):

   -22.1590 -22.1581 -22.1465 -22.1440 -22.1330 -22.1245 -22.1178 -22.1121
   -22.1091 -22.1038 -13.6311 -13.1386  -7.8378  -7.3836  -4.6979  -3.7997
    -3.3958  -2.6191  -2.2231  -1.2912   0.6065   1.5115   1.5566   2.5654

          k = 0.2000 0.4070 0.0000 ( 30441 PWs)   bands (ev):

   -22.1602 -22.1597 -22.1447 -22.1431 -22.1310 -22.1259 -22.1170 -22.1134
   -22.1076 -22.1043 -13.4939 -13.1811  -7.8766  -7.5896  -4.5111  -3.6970
    -3.4318  -2.8206  -2.3834  -1.5852   0.7926   1.7230   1.8413   2.3496

          k = 0.2000 0.4748 0.0000 ( 30433 PWs)   bands (ev):

   -22.1609 -22.1607 -22.1435 -22.1429 -22.1291 -22.1274 -22.1159 -22.1147
   -22.1062 -22.1051 -13.3649 -13.2574  -7.8524  -7.7540  -4.2259  -3.8985
    -3.2990  -3.0609  -2.2448  -1.9415   1.1204   1.4868   2.1488   2.3700

          k = 0.2667 0.0000 0.0000 ( 30548 PWs)   bands (ev):

   -22.1555 -22.1531 -22.1498 -22.1487 -22.1382 -22.1221 -22.1152 -22.1151
   -22.1068 -22.1060 -13.9234 -13.1746  -7.8349  -7.1094  -4.0697  -3.4334
    -3.1582  -2.4470  -1.7527  -1.5064   0.9311   1.1066   1.7699   2.3021

          k = 0.2667 0.0678 0.0000 ( 30525 PWs)   bands (ev):

   -22.1551 -22.1536 -22.1493 -22.1493 -22.1376 -22.1222 -22.1163 -22.1138
   -22.1077 -22.1053 -13.9055 -13.1689  -7.8238  -7.1130  -4.0495  -3.8516
    -2.8069  -2.6802  -1.6747  -1.3796   0.8559   0.9532   1.8547   2.1356

          k = 0.2667 0.1357 0.0000 ( 30527 PWs)   bands (ev):

   -22.1549 -22.1547 -22.1502 -22.1480 -22.1361 -22.1225 -22.1173 -22.1124
   -22.1090 -22.1046 -13.8532 -13.1538  -7.7946  -7.1286  -4.3438  -3.9928
    -3.0811  -2.5460  -1.4360  -1.4141   0.7959   0.9541   1.3524   2.6295

          k = 0.2667 0.2035 0.0000 ( 30481 PWs)   bands (ev):

   -22.1568 -22.1559 -22.1494 -22.1463 -22.1344 -22.1229 -22.1180 -22.1110
   -22.1104 -22.1041 -13.7702 -13.1351  -7.7592  -7.1687  -4.7395  -3.9144
    -3.4181  -2.4891  -1.8065  -1.1987   0.7028   1.1546   1.3405   2.9000

          k = 0.2667 0.2713 0.0000 ( 30481 PWs)   bands (ev):

   -22.1590 -22.1582 -22.1473 -22.1445 -22.1327 -22.1236 -22.1182 -22.1117
   -22.1096 -22.1038 -13.6633 -13.1217  -7.7323  -7.2450  -4.9872  -3.8538
    -3.6076  -2.5591  -2.3119  -1.2572   0.6634   1.5630   1.6895   2.8684

          k = 0.2667 0.3391 0.0000 ( 30479 PWs)   bands (ev):

   -22.1611 -22.1605 -22.1451 -22.1429 -22.1311 -22.1246 -22.1179 -22.1128
   -22.1081 -22.1038 -13.5419 -13.1244  -7.7199  -7.3565  -5.0589  -3.8243
    -3.7076  -2.7194  -2.6943  -1.5884   0.9151   1.8703   2.2252   2.6747

          k = 0.2667 0.4070 0.0000 ( 30464 PWs)   bands (ev):

   -22.1626 -22.1623 -22.1432 -22.1418 -22.1296 -22.1258 -22.1171 -22.1139
   -22.1068 -22.1041 -13.4178 -13.1531  -7.7084  -7.4833  -4.9574  -3.9919
    -3.6975  -2.9532  -2.7636  -1.9757   1.2624   2.2242   2.3195   2.7287

          k = 0.2667 0.4748 0.0000 ( 30435 PWs)   bands (ev):

   -22.1634 -22.1633 -22.1420 -22.1415 -22.1284 -22.1271 -22.1160 -22.1150
   -22.1056 -22.1047 -13.3043 -13.2134  -7.6727  -7.5963  -4.7118  -4.3662
    -3.4956  -3.2291  -2.5965  -2.3208   1.6268   1.9880   2.5742   2.8208

          k = 0.3333 0.0000 0.0000 ( 30508 PWs)   bands (ev):

   -22.1540 -22.1537 -22.1505 -22.1495 -22.1345 -22.1229 -22.1143 -22.1139
   -22.1077 -22.1074 -13.7876 -13.2101  -8.0069  -7.4478  -3.8758  -3.1917
    -2.9707  -2.3750  -1.8026  -1.0870   0.5228   1.1444   1.3709   1.8060

          k = 0.3333 0.0678 0.0000 ( 30535 PWs)   bands (ev):

   -22.1543 -22.1540 -22.1507 -22.1490 -22.1341 -22.1229 -22.1154 -22.1127
   -22.1089 -22.1064 -13.7710 -13.2031  -7.9846  -7.4372  -3.8590  -3.6337
    -2.7147  -2.5990  -1.6292  -1.1512   0.5123   1.1186   1.3501   1.7015

          k = 0.3333 0.1357 0.0000 ( 30509 PWs)   bands (ev):

   -22.1559 -22.1550 -22.1502 -22.1476 -22.1330 -22.1231 -22.1166 -22.1113
   -22.1102 -22.1055 -13.7226 -13.1839  -7.9207  -7.4092  -4.1912  -3.8134
    -3.0409  -2.6037  -1.5508  -1.2973   0.7236   0.8847   1.3506   2.2294

          k = 0.3333 0.2035 0.0000 ( 30494 PWs)   bands (ev):

   -22.1582 -22.1574 -22.1484 -22.1457 -22.1316 -22.1234 -22.1174 -22.1115
   -22.1098 -22.1047 -13.6465 -13.1581  -7.8238  -7.3746  -4.6854  -3.7607
    -3.4688  -2.6157  -2.1306  -1.2508   0.6288   1.5353   1.5561   2.5747

          k = 0.3333 0.2713 0.0000 ( 30471 PWs)   bands (ev):

   -22.1607 -22.1602 -22.1460 -22.1437 -22.1303 -22.1240 -22.1178 -22.1126
   -22.1085 -22.1042 -13.5498 -13.1341  -7.7107  -7.3495  -5.0586  -3.8340
    -3.7196  -2.7146  -2.6503  -1.5732   0.9299   1.8766   2.2493   2.6759

          k = 0.3333 0.3391 0.0000 ( 30504 PWs)   bands (ev):

   -22.1630 -22.1627 -22.1438 -22.1420 -22.1292 -22.1249 -22.1175 -22.1135
   -22.1072 -22.1040 -13.4422 -13.1224  -7.6042  -7.3486  -5.2665  -4.0449
    -3.8882  -2.9166  -2.8965  -1.9593   1.3104   2.2972   2.6215   2.9284

          k = 0.3333 0.4070 0.0000 ( 30510 PWs)   bands (ev):

   -22.1649 -22.1647 -22.1419 -22.1408 -22.1284 -22.1258 -22.1169 -22.1143
   -22.1060 -22.1040 -13.3354 -13.1330  -7.5229  -7.3748  -5.2816  -4.3912
    -3.9489  -3.2166  -2.8571  -2.2662   1.6576   2.4721   2.7486   3.4097

          k = 0.3333 0.4748 0.0000 ( 30489 PWs)   bands (ev):

   -22.1658 -22.1657 -22.1408 -22.1404 -22.1276 -22.1268 -22.1160 -22.1151
   -22.1051 -22.1044 -13.2421 -13.1727  -7.4654  -7.4174  -5.1106  -4.7932
    -3.8069  -3.5417  -2.7022  -2.5032   1.9692   2.2454   3.1473   3.4194

          k = 0.4000 0.0000 0.0000 ( 30476 PWs)   bands (ev):

   -22.1541 -22.1526 -22.1521 -22.1497 -22.1311 -22.1240 -22.1132 -22.1126
   -22.1089 -22.1087 -13.6423 -13.2760  -8.0918  -7.7376  -3.6431  -2.9728
    -2.9298  -2.3755  -1.6653  -0.8011   0.1359   1.1452   1.2551   1.4321

          k = 0.4000 0.0678 0.0000 ( 30493 PWs)   bands (ev):

   -22.1548 -22.1537 -22.1512 -22.1491 -22.1308 -22.1240 -22.1143 -22.1114
   -22.1102 -22.1076 -13.6274 -13.2673  -8.0643  -7.7175  -3.6322  -3.3849
    -2.8015  -2.6033  -1.4431  -1.0638   0.3675   0.7941   1.4499   1.4727

          k = 0.4000 0.1357 0.0000 ( 30500 PWs)   bands (ev):

   -22.1566 -22.1559 -22.1495 -22.1476 -22.1300 -22.1241 -22.1156 -22.1115
   -22.1100 -22.1065 -13.5840 -13.2427  -7.9833  -7.6598  -3.9559  -3.6095
    -3.0772  -2.7824  -1.6515  -1.2543   0.5339   0.9930   1.6013   1.9794

          k = 0.4000 0.2035 0.0000 ( 30514 PWs)   bands (ev):

   -22.1592 -22.1587 -22.1474 -22.1456 -22.1291 -22.1242 -22.1165 -22.1127
   -22.1087 -22.1055 -13.5167 -13.2077  -7.8543  -7.5718  -4.5063  -3.6789
    -3.4971  -2.8168  -2.2666  -1.5267   0.8277   1.7625   1.8436   2.3527

          k = 0.4000 0.2713 0.0000 ( 30509 PWs)   bands (ev):

   -22.1620 -22.1617 -22.1450 -22.1434 -22.1283 -22.1246 -22.1169 -22.1136
   -22.1074 -22.1048 -13.4329 -13.1702  -7.6893  -7.4670  -4.9673  -4.0722
    -3.6334  -2.9363  -2.7148  -1.9533   1.2879   2.2440   2.3451   2.7584

          k = 0.4000 0.3391 0.0000 ( 30504 PWs)   bands (ev):

   -22.1646 -22.1644 -22.1427 -22.1416 -22.1277 -22.1253 -22.1168 -22.1142
   -22.1063 -22.1043 -13.3423 -13.1407  -7.5109  -7.3643  -5.2937  -4.4499
    -3.8863  -3.1990  -2.8518  -2.2645   1.6667   2.4768   2.7689   3.4751

          k = 0.4000 0.4070 0.0000 ( 30525 PWs)   bands (ev):

   -22.1666 -22.1665 -22.1410 -22.1402 -22.1274 -22.1260 -22.1163 -22.1147
   -22.1053 -22.1041 -13.2568 -13.1294  -7.3565  -7.2846  -5.4428  -4.8110
    -4.0859  -3.5545  -2.8001  -2.4421   1.9675   2.4746   3.2702   3.8996

          k = 0.4000 0.4748 0.0000 ( 30490 PWs)   bands (ev):

   -22.1677 -22.1676 -22.1399 -22.1396 -22.1270 -22.1266 -22.1157 -22.1151
   -22.1046 -22.1042 -13.1879 -13.1442  -7.2648  -7.2459  -5.3875  -5.1516
    -4.0747  -3.8761  -2.6920  -2.5715   2.2088   2.3820   3.6394   3.8669

          k = 0.4667 0.0000 0.0000 ( 30478 PWs)   bands (ev):

   -22.1540 -22.1533 -22.1513 -22.1503 -22.1281 -22.1257 -22.1119 -22.1112
   -22.1105 -22.1099 -13.5002 -13.3744  -8.0742  -7.9527  -3.3898  -3.1463
    -2.6782  -2.4798  -1.3460  -0.9668   0.2788   0.7321   1.1343   1.3324

          k = 0.4667 0.0678 0.0000 ( 30485 PWs)   bands (ev):

   -22.1548 -22.1544 -22.1504 -22.1496 -22.1279 -22.1257 -22.1130 -22.1116
   -22.1101 -22.1088 -13.4872 -13.3636  -8.0458  -7.9268  -3.3938  -3.2364
    -2.8836  -2.7324  -1.2231  -1.0867   0.3403   0.4690   1.5013   1.7243

          k = 0.4667 0.1357 0.0000 ( 30511 PWs)   bands (ev):

   -22.1569 -22.1566 -22.1487 -22.1480 -22.1275 -22.1255 -22.1143 -22.1129
   -22.1088 -22.1076 -13.4499 -13.3328  -7.9617  -7.8508  -3.6792  -3.4850
    -3.1628  -3.0065  -1.5723  -1.3849   0.6166   0.8520   1.8936   2.0291

          k = 0.4667 0.2035 0.0000 ( 30516 PWs)   bands (ev):

   -22.1596 -22.1594 -22.1465 -22.1458 -22.1270 -22.1254 -22.1153 -22.1140
   -22.1075 -22.1065 -13.3929 -13.2870  -7.8260  -7.7294  -4.2361  -3.9245
    -3.2985  -3.0550  -2.1462  -1.8654   1.1628   1.5300   2.1489   2.3626

          k = 0.4667 0.2713 0.0000 ( 30515 PWs)   bands (ev):

   -22.1626 -22.1625 -22.1441 -22.1436 -22.1267 -22.1255 -22.1159 -22.1147
   -22.1064 -22.1055 -13.3241 -13.2341  -7.6478  -7.5727  -4.7401  -4.4195
    -3.4415  -3.1935  -2.5621  -2.2945   1.6552   2.0142   2.6071   2.8617

          k = 0.4667 0.3391 0.0000 ( 30507 PWs)   bands (ev):

   -22.1654 -22.1653 -22.1420 -22.1415 -22.1266 -22.1258 -22.1159 -22.1150
   -22.1055 -22.1048 -13.2533 -13.1843  -7.4453  -7.3982  -5.1417  -4.8431
    -3.7479  -3.5012  -2.7011  -2.5035   1.9810   2.2553   3.1875   3.4780

          k = 0.4667 0.4070 0.0000 ( 30526 PWs)   bands (ev):

   -22.1676 -22.1675 -22.1404 -22.1401 -22.1267 -22.1262 -22.1157 -22.1151
   -22.1047 -22.1043 -13.1920 -13.1484  -7.2543  -7.2359  -5.4058  -5.1764
    -4.0482  -3.8563  -2.6940  -2.5737   2.2131   2.3859   3.6463   3.8696

          k = 0.4667 0.4748 0.0000 ( 30504 PWs)   bands (ev):

   -22.1687 -22.1686 -22.1395 -22.1393 -22.1267 -22.1265 -22.1154 -22.1152
   -22.1043 -22.1041 -13.1505 -13.1355  -7.1329  -7.1307  -5.4978  -5.4077
    -4.1861  -4.1121  -2.6522  -2.6115   2.3670   2.4261   3.8318   3.9231

     the Fermi energy is    -0.7269 ev

!    total energy              =    -413.80378774 Ry
     estimated scf accuracy    <          8.8E-13 Ry
     smearing contrib. (-TS)   =       0.00007165 Ry
     internal energy E=F+TS    =    -413.80385939 Ry

     The total energy is F=E-TS. E is the sum of the following terms:
     one-electron contribution =   -1193.08832461 Ry
     hartree contribution      =     608.78478828 Ry
     xc contribution           =    -154.42006932 Ry
     ewald contribution        =     324.91974626 Ry

     convergence has been achieved in   7 iterations

     negative rho (up, down):  2.846E-05 0.000E+00

     Forces acting on atoms (cartesian axes, Ry/au):

     atom    1 type  1   force =    -0.00002161    0.00000000    0.00003513
     atom    2 type  1   force =    -0.00002239    0.00000000   -0.00001766
     atom    3 type  2   force =     0.00002189    0.00000000   -0.00000476
     atom    4 type  2   force =     0.00002211    0.00000000   -0.00001272

     Total force =     0.000061     Total SCF correction =     0.000004

     bfgs converged in  18 scf cycles and  17 bfgs steps
     (criteria: energy <  1.0E-06 Ry, force <  3.8E-05 Ry/Bohr)

     End of BFGS Geometry Optimization

     Final energy   =    -413.8037877393 Ry

     File ./wfc-out/pwscf.bfgs deleted, as requested
Begin final coordinates

ATOMIC_POSITIONS (crystal)
Sn            0.5796415597        0.7500000000        0.1444761791
Sn            0.0796438955        0.2500000000        0.0066671484
Se            0.0344616203        0.2500000000        0.1425725674
Se            0.5344608985        0.7500000000        0.0085741590
End final coordinates



     Writing output data file ./wfc-out/pwscf.save/
 
     init_run     :      2.00s CPU      2.38s WALL (       1 calls)
     electrons    :    679.38s CPU    729.41s WALL (      18 calls)
     update_pot   :      7.54s CPU      7.68s WALL (      17 calls)
     forces       :     17.13s CPU     18.87s WALL (      18 calls)

     Called by init_run:
     wfcinit      :      1.19s CPU      1.34s WALL (       1 calls)
     potinit      :      0.17s CPU      0.19s WALL (       1 calls)
     hinit0       :      0.29s CPU      0.37s WALL (       1 calls)

     Called by electrons:
     c_bands      :    530.52s CPU    546.28s WALL (     160 calls)
     sum_band     :    112.96s CPU    132.37s WALL (     160 calls)
     v_of_rho     :      6.30s CPU      6.45s WALL (     161 calls)
     newd         :     31.46s CPU     46.14s WALL (     161 calls)
     mix_rho      :      0.92s CPU      0.93s WALL (     160 calls)

     Called by c_bands:
     init_us_2    :     10.99s CPU     11.75s WALL (   21696 calls)
     cegterg      :    468.44s CPU    480.67s WALL (   10240 calls)

     Called by *egterg:
     cdiaghg      :     28.72s CPU     29.03s WALL (   39528 calls)
     h_psi        :    338.85s CPU    349.77s WALL (   41768 calls)
     s_psi        :     13.17s CPU     13.41s WALL (   41768 calls)
     g_psi        :      1.84s CPU      1.87s WALL (   31464 calls)

     Called by h_psi:
     h_psi:calbec :     27.62s CPU     28.40s WALL (   41768 calls)
     vloc_psi     :    294.08s CPU    304.00s WALL (   41768 calls)
     add_vuspsi   :     14.93s CPU     15.16s WALL (   41768 calls)

     General routines
     calbec       :     40.15s CPU     41.19s WALL (   56616 calls)
     fft          :      6.31s CPU      6.43s WALL (    2289 calls)
     ffts         :      0.20s CPU      0.21s WALL (     321 calls)
     fftw         :    319.75s CPU    330.31s WALL ( 1556146 calls)
     interpolate  :      0.49s CPU      0.49s WALL (     161 calls)
 
     Parallel routines
     fft_scatt_xy :     42.99s CPU     44.52s WALL ( 1558756 calls)
     fft_scatt_yz :    186.62s CPU    192.41s WALL ( 1558756 calls)
 
     PWSCF        :  11m51.17s CPU  14m27.66s WALL

 
   This run was terminated on:   6:38:18   8May2023            

=------------------------------------------------------------------------------=
   JOB DONE.
=------------------------------------------------------------------------------=
