 running on  192 total cores
 distrk:  each k-point on  192 cores,    1 groups
 distr:  one band on   24 cores,    8 groups
 using from now: INCAR     
 vasp.5.4.4.18Apr17-6-g9f103f2a35 (build Feb 21 2024 19:30:58) complex          
  
 POSCAR found type information on POSCAR  S  Pb
 POSCAR found :  2 types and      12 ions
 scaLAPACK will be used
 WARNING: PSMAXN for non-local potential too small
 LDA part: xc-table for Pade appr. of Perdew
 found WAVECAR, reading the header
  number of k-points has changed, file:    25 present:    40
  trying to continue reading WAVECAR, but it might fail
 WARNING: stress and forces are not correct
 POSCAR, INCAR and KPOINTS ok, starting setup
 FFT: planning ...
 reading WAVECAR
 the WAVECAR file was read successfully
 charge-density read from file: unknown                                 
 entering main loop
       N       E                     dE             d eps       ncg     rms          rms(c)
DAV:   1    -0.401828020472E+02   -0.40183E+02   -0.70962E+02  4480   0.669E+01
DAV:   2    -0.514413261719E+02   -0.11259E+02   -0.11089E+02  4088   0.276E+01
DAV:   3    -0.517746887535E+02   -0.33336E+00   -0.33121E+00  4384   0.590E+00
DAV:   4    -0.517841653300E+02   -0.94766E-02   -0.94456E-02  4384   0.946E-01
DAV:   5    -0.517845082152E+02   -0.34289E-03   -0.34093E-03  4472   0.155E-01
DAV:   6    -0.517845289552E+02   -0.20740E-04   -0.20727E-04  4184   0.272E-02
DAV:   7    -0.517845294024E+02   -0.44721E-06   -0.44205E-06  3208   0.418E-03
   1 F= -.51784529E+02 E0= -.51784529E+02  d E =0.000000E+00
 writing wavefunctions
