Automatically generated mesh
      75
Reciprocal lattice
    0.07142857142857    0.07142857142857    0.00000000000000             2
   -0.07142857142857    0.14285714285714    0.00000000000000             2
   -0.14285714285714    0.07142857142857    0.00000000000000             2
    0.21428571428572    0.07142857142857    0.00000000000000             2
   -0.07142857142857    0.28571428571429    0.00000000000000             2
   -0.28571428571428    0.21428571428572    0.00000000000000             2
   -0.21428571428571    0.28571428571429    0.00000000000000             2
    0.07142857142857    0.21428571428572    0.00000000000000             2
    0.28571428571429   -0.07142857142857    0.00000000000000             2
    0.35714285714286    0.07142857142857    0.00000000000000             2
   -0.07142857142857    0.42857142857142    0.00000000000000             2
   -0.42857142857142    0.35714285714286    0.00000000000000             2
   -0.35714285714285    0.42857142857142    0.00000000000000             2
    0.07142857142857    0.35714285714286    0.00000000000000             2
    0.42857142857142   -0.07142857142857    0.00000000000000             2
    0.50000000000000    0.07142857142857    0.00000000000000             2
   -0.07142857142857   -0.42857142857143    0.00000000000000             2
    0.42857142857143    0.50000000000000    0.00000000000000             2
    0.50000000000000   -0.42857142857143    0.00000000000000             2
    0.07142857142857    0.50000000000000    0.00000000000000             2
   -0.42857142857143   -0.07142857142857    0.00000000000000             2
   -0.35714285714285    0.07142857142857    0.00000000000000             2
   -0.07142857142857   -0.28571428571428    0.00000000000000             2
    0.28571428571429   -0.35714285714285    0.00000000000000             2
    0.35714285714286   -0.28571428571428    0.00000000000000             2
    0.07142857142857   -0.35714285714285    0.00000000000000             2
   -0.28571428571428   -0.07142857142857    0.00000000000000             2
   -0.21428571428571    0.07142857142857    0.00000000000000             2
   -0.07142857142857   -0.14285714285714    0.00000000000000             2
    0.14285714285715   -0.21428571428571    0.00000000000000             2
    0.21428571428572   -0.14285714285714    0.00000000000000             2
    0.07142857142857   -0.21428571428571    0.00000000000000             2
   -0.14285714285714   -0.07142857142857    0.00000000000000             2
   -0.07142857142857    0.07142857142857    0.00000000000000             2
   -0.07142857142857    0.00000000000000    0.00000000000000             2
    0.00000000000000   -0.07142857142857    0.00000000000000             2
    0.21428571428572    0.21428571428572    0.00000000000000             2
   -0.21428571428571    0.42857142857143    0.00000000000000             2
   -0.42857142857143    0.21428571428572    0.00000000000000             2
    0.35714285714286    0.21428571428572    0.00000000000000             2
   -0.21428571428571   -0.42857142857143    0.00000000000000             2
    0.42857142857143    0.35714285714286    0.00000000000000             2
   -0.35714285714285   -0.42857142857143    0.00000000000000             2
    0.21428571428572    0.35714285714286    0.00000000000000             2
   -0.42857142857143   -0.21428571428571    0.00000000000000             2
    0.50000000000000    0.21428571428572    0.00000000000000             2
   -0.21428571428571   -0.28571428571428    0.00000000000000             2
    0.28571428571429    0.50000000000000    0.00000000000000             2
    0.50000000000000   -0.28571428571428    0.00000000000000             2
    0.21428571428572    0.50000000000000    0.00000000000000             2
   -0.28571428571428   -0.21428571428571    0.00000000000000             2
   -0.35714285714285    0.21428571428572    0.00000000000000             2
   -0.21428571428571   -0.14285714285714    0.00000000000000             2
    0.14285714285714   -0.35714285714285    0.00000000000000             2
    0.35714285714286   -0.14285714285714    0.00000000000000             2
    0.21428571428572   -0.35714285714285    0.00000000000000             2
   -0.14285714285714   -0.21428571428571    0.00000000000000             2
   -0.21428571428571    0.21428571428572    0.00000000000000             2
   -0.21428571428571    0.00000000000000    0.00000000000000             2
    0.00000000000000   -0.21428571428571    0.00000000000000             2
    0.35714285714286    0.35714285714286    0.00000000000000             2
   -0.35714285714285   -0.28571428571429    0.00000000000000             2
    0.28571428571429    0.35714285714286    0.00000000000000             2
    0.50000000000000    0.35714285714286    0.00000000000000             2
   -0.35714285714285   -0.14285714285714    0.00000000000000             2
    0.14285714285715    0.50000000000000    0.00000000000000             2
    0.50000000000000   -0.14285714285714    0.00000000000000             2
    0.35714285714286    0.50000000000000    0.00000000000000             2
   -0.14285714285714   -0.35714285714285    0.00000000000000             2
   -0.35714285714285    0.35714285714286    0.00000000000000             2
   -0.35714285714286    0.00000000000001    0.00000000000000             2
   -0.00000000000001   -0.35714285714285    0.00000000000000             2
    0.50000000000000    0.50000000000000    0.00000000000000             1
    0.50000000000000    0.00000000000000    0.00000000000000             1
    0.00000000000000    0.50000000000000    0.00000000000000             1
