 vasp.5.4.4.18Apr17-6-g9f103f2a35 (build Sep 16 2021 13:51:27) complex          
  
 executed on             LinuxIFC date 2023.02.26  09:55:28
 running on   24 total cores
 distrk:  each k-point on   24 cores,    1 groups
 distr:  one band on NCORES_PER_BAND=  24 cores,    1 groups


--------------------------------------------------------------------------------------------------------


 INCAR:
 POTCAR:    PAW_PBE Sn 08Apr2002                  
 POTCAR:    PAW_PBE Se 06Sep2000                  

 ----------------------------------------------------------------------------- 
|                                                                             |
|           W    W    AA    RRRRR   N    N  II  N    N   GGGG   !!!           |
|           W    W   A  A   R    R  NN   N  II  NN   N  G    G  !!!           |
|           W    W  A    A  R    R  N N  N  II  N N  N  G       !!!           |
|           W WW W  AAAAAA  RRRRR   N  N N  II  N  N N  G  GGG   !            |
|           WW  WW  A    A  R   R   N   NN  II  N   NN  G    G                |
|           W    W  A    A  R    R  N    N  II  N    N   GGGG   !!!           |
|                                                                             |
|      For optimal performance we recommend to set                            |
|        NCORE= 4 - approx SQRT( number of cores)                             |
|      NCORE specifies how many cores store one orbital (NPAR=cpu/NCORE).     |
|      This setting can  greatly improve the performance of VASP for DFT.     |
|      The default,   NCORE=1            might be grossly inefficient         |
|      on modern multi-core architectures or massively parallel machines.     |
|      Do your own testing !!!!                                               |
|      Unfortunately you need to use the default for GW and RPA calculations. |
|      (for HF NCORE is supported but not extensively tested yet)             |
|                                                                             |
 ----------------------------------------------------------------------------- 

 POTCAR:    PAW_PBE Sn 08Apr2002                  
   VRHFIN =Sn: s2p2                                                             
   LEXCH  = PE                                                                  
   EATOM  =    94.0860 eV,    6.9151 Ry                                         
                                                                                
   TITEL  = PAW_PBE Sn 08Apr2002                                                
   LULTRA =        F    use ultrasoft PP ?                                      
   IUNSCR =        1    unscreen: 0-lin 1-nonlin 2-no                           
   RPACOR =    2.000    partial core radius                                     
   POMASS =  118.710; ZVAL   =    4.000    mass and valenz                      
   RCORE  =    3.000    outmost cutoff radius                                   
   RWIGS  =    2.960; RWIGS  =    1.566    wigner-seitz radius (au A)           
   ENMAX  =  103.236; ENMIN  =   77.427 eV                                      
   ICORE  =        3    local potential                                         
   LCOR   =        T    correct aug charges                                     
   LPAW   =        T    paw PP                                                  
   EAUG   =  263.585                                                            
   DEXC   =    0.000                                                            
   RMAX   =    3.078    core radius for proj-oper                               
   RAUG   =    1.300    factor for augmentation sphere                          
   RDEP   =    3.022    radius for radial grids                                 
   RDEPT  =    2.655    core radius for aug-charge                              
                                                                                
   Atomic configuration                                                         
   13 entries                                                                   
     n  l   j            E        occ.                                          
     1  0  0.50    -29007.2859   2.0000                                         
     2  0  0.50     -4378.8056   2.0000                                         
     2  1  1.50     -3930.4293   6.0000                                         
     3  0  0.50      -845.0264   2.0000                                         
     3  1  1.50      -698.5725   6.0000                                         
     3  2  2.50      -473.2839  10.0000                                         
     4  0  0.50      -133.9036   2.0000                                         
     4  1  1.50       -89.6752   6.0000                                         
     4  2  2.50       -25.8375  10.0000                                         
     5  0  0.50       -10.5484   2.0000                                         
     5  1  0.50        -3.6940   2.0000                                         
     5  2  1.50        -1.3606   0.0000                                         
     4  3  2.50        -4.0817   0.0000                                         
   Description                                                                  
     l       E           TYP  RCUT    TYP  RCUT                                 
     0    -10.5483727     23  3.000                                             
     0     27.2116520     23  3.000                                             
     1     -3.6939829     23  3.000                                             
     1      1.9821976     23  3.000                                             
     2     -1.3605826     23  3.000                                             
     3     -2.7211652     23  3.000                                             
  local pseudopotential read in
  partial core-charges read in
  partial kinetic energy density read in
  atomic valenz-charges read in
  non local Contribution for L=           0  read in
    real space projection operators read in
  non local Contribution for L=           0  read in
    real space projection operators read in
  non local Contribution for L=           1  read in
    real space projection operators read in
  non local Contribution for L=           1  read in
    real space projection operators read in
  non local Contribution for L=           2  read in
    real space projection operators read in
    PAW grid and wavefunctions read in
 
   number of l-projection  operators is LMAX  =           5
   number of lm-projection operators is LMMAX =          13
 
 POTCAR:    PAW_PBE Se 06Sep2000                  
   VRHFIN =Se: s2p4                                                             
   LEXCH  = PE                                                                  
   EATOM  =   257.1286 eV,   18.8984 Ry                                         
                                                                                
   TITEL  = PAW_PBE Se 06Sep2000                                                
   LULTRA =        F    use ultrasoft PP ?                                      
   IUNSCR =        1    unscreen: 0-lin 1-nonlin 2-no                           
   RPACOR =    1.900    partial core radius                                     
   POMASS =   78.960; ZVAL   =    6.000    mass and valenz                      
   RCORE  =    2.100    outmost cutoff radius                                   
   RWIGS  =    2.200; RWIGS  =    1.164    wigner-seitz radius (au A)           
   ENMAX  =  211.555; ENMIN  =  158.666 eV                                      
   ICORE  =        3    local potential                                         
   LCOR   =        T    correct aug charges                                     
   LPAW   =        T    paw PP                                                  
   EAUG   =  446.842                                                            
   DEXC   =    0.000                                                            
   RMAX   =    2.147    core radius for proj-oper                               
   RAUG   =    1.300    factor for augmentation sphere                          
   RDEP   =    2.177    radius for radial grids                                 
   RDEPT  =    1.928    core radius for aug-charge                              
                                                                                
   Atomic configuration                                                         
   10 entries                                                                   
     n  l   j            E        occ.                                          
     1  0  0.50    -12503.4787   2.0000                                         
     2  0  0.50     -1606.9547   2.0000                                         
     2  1  1.50     -1413.3140   6.0000                                         
     3  0  0.50      -213.4885   2.0000                                         
     3  1  1.50      -152.9538   6.0000                                         
     3  2  2.50       -53.1221  10.0000                                         
     4  0  0.50       -17.2865   2.0000                                         
     4  1  0.50        -6.5110   4.0000                                         
     4  2  2.50        -6.8029   0.0000                                         
     4  3  2.50        -6.8029   0.0000                                         
   Description                                                                  
     l       E           TYP  RCUT    TYP  RCUT                                 
     0    -17.2865377     23  2.100                                             
     0    -15.3094411     23  2.100                                             
     1     -6.5110275     23  2.100                                             
     1     -0.0695192     23  2.100                                             
     2     -6.8029130     23  2.100                                             
     3     -1.3605826      7  2.100                                             
  local pseudopotential read in
  partial core-charges read in
  partial kinetic energy density read in
  atomic valenz-charges read in
  non local Contribution for L=           0  read in
    real space projection operators read in
  non local Contribution for L=           0  read in
    real space projection operators read in
  non local Contribution for L=           1  read in
    real space projection operators read in
  non local Contribution for L=           1  read in
    real space projection operators read in
  non local Contribution for L=           2  read in
    real space projection operators read in
    PAW grid and wavefunctions read in
 
   number of l-projection  operators is LMAX  =           5
   number of lm-projection operators is LMMAX =          13
 
 WARNING: PSMAXN for non-local potential too small
          PSMAXN should be >   12.5490833729506       NTYP=           1
  PAW_PBE Sn 08Apr2002                  :
 energy of atom  1       EATOM=  -94.0860
 kinetic energy error for atom=    0.0000 (will be added to EATOM!!)
  PAW_PBE Se 06Sep2000                  :
 energy of atom  2       EATOM= -257.1286
 kinetic energy error for atom=    0.0006 (will be added to EATOM!!)
 
 
 POSCAR:  SnSe-Monolayer                         
  positions in direct lattice
  velocities in cartesian coordinates
 exchange correlation table for  LEXCH =        8
   RHO(1)=    0.500       N(1)  =     2000
   RHO(2)=  100.500       N(2)  =     4000
 


--------------------------------------------------------------------------------------------------------


 ion  position               nearest neighbor table
   1  0.581  0.750  0.569-   4 2.72   3 2.93   3 2.93   3 3.24   3 3.24
   2  0.081  0.250  0.431-   3 2.72   4 2.93   4 2.93   4 3.24   4 3.24
   3  0.033  0.250  0.567-   2 2.72   1 2.93   1 2.93   1 3.24   1 3.24
   4  0.533  0.750  0.433-   1 2.72   2 2.93   2 2.93   2 3.24   2 3.24
 
  LATTYP: Found a simple orthorhombic cell.
 ALAT       =     4.2924778572
 B/A-ratio  =     1.0311480874
 C/A-ratio  =     4.6593134934
  
  Lattice vectors:
  
 A1 = (   0.0000000000,  -4.2924778572,   0.0000000000)
 A2 = (  -4.4261803326,   0.0000000000,   0.0000000000)
 A3 = (   0.0000000000,   0.0000000000, -20.0000000000)


Analysis of symmetry for initial positions (statically):
=====================================================================
 Subroutine PRICEL returns:
 Original cell was already a primitive cell.
 

 Routine SETGRP: Setting up the symmetry group for a 
 simple orthorhombic supercell.


 Subroutine GETGRP returns: Found  4 space group operations
 (whereof  1 operations were pure point group operations)
 out of a pool of  8 trial point group operations.


The static configuration has the point symmetry C_1 .
 The point group associated with its full space group is C_2v.


Analysis of symmetry for dynamics (positions and initial velocities):
=====================================================================
 Subroutine PRICEL returns:
 Original cell was already a primitive cell.
 

 Routine SETGRP: Setting up the symmetry group for a 
 simple orthorhombic supercell.


 Subroutine GETGRP returns: Found  4 space group operations
 (whereof  1 operations were pure point group operations)
 out of a pool of  8 trial point group operations.


The dynamic configuration has the point symmetry C_1 .
 The point group associated with its full space group is C_2v.


 Subroutine INISYM returns: Found  4 space group operations
 (whereof  1 operations are pure point group operations),
 and found     1 'primitive' translations

 
 
 KPOINTS: Automatic                               

Automatic generation of k-mesh.
Space group operators:
 irot       det(A)        alpha          n_x          n_y          n_z        tau_x        tau_y        tau_z
    1     1.000000     0.000000     1.000000     0.000000     0.000000     0.000000     0.000000     0.000000
    2    -1.000000   180.000000     0.000000     0.000000     1.000000    -0.500000    -0.500000    -0.000000
    3     1.000000   180.000000     1.000000     0.000000     0.000000    -0.500000     0.000000    -0.000000
    4    -1.000000   179.999999     0.000000     1.000000     0.000000     0.000000    -0.500000     0.000000
 
 Subroutine IBZKPT returns following result:
 ===========================================
 
 Found     64 irreducible k-points:
 
 Following reciprocal coordinates:
            Coordinates               Weight
  0.000000  0.000000  0.000000      1.000000
  0.066667  0.000000  0.000000      2.000000
  0.133333  0.000000  0.000000      2.000000
  0.200000  0.000000  0.000000      2.000000
  0.266667  0.000000  0.000000      2.000000
  0.333333  0.000000  0.000000      2.000000
  0.400000  0.000000  0.000000      2.000000
  0.466667  0.000000  0.000000      2.000000
  0.000000  0.066667  0.000000      2.000000
  0.066667  0.066667  0.000000      4.000000
  0.133333  0.066667  0.000000      4.000000
  0.200000  0.066667  0.000000      4.000000
  0.266667  0.066667  0.000000      4.000000
  0.333333  0.066667  0.000000      4.000000
  0.400000  0.066667  0.000000      4.000000
  0.466667  0.066667  0.000000      4.000000
  0.000000  0.133333  0.000000      2.000000
  0.066667  0.133333  0.000000      4.000000
  0.133333  0.133333  0.000000      4.000000
  0.200000  0.133333  0.000000      4.000000
  0.266667  0.133333  0.000000      4.000000
  0.333333  0.133333  0.000000      4.000000
  0.400000  0.133333  0.000000      4.000000
  0.466667  0.133333  0.000000      4.000000
  0.000000  0.200000  0.000000      2.000000
  0.066667  0.200000  0.000000      4.000000
  0.133333  0.200000  0.000000      4.000000
  0.200000  0.200000  0.000000      4.000000
  0.266667  0.200000  0.000000      4.000000
  0.333333  0.200000  0.000000      4.000000
  0.400000  0.200000  0.000000      4.000000
  0.466667  0.200000  0.000000      4.000000
  0.000000  0.266667  0.000000      2.000000
  0.066667  0.266667  0.000000      4.000000
  0.133333  0.266667  0.000000      4.000000
  0.200000  0.266667  0.000000      4.000000
  0.266667  0.266667  0.000000      4.000000
  0.333333  0.266667  0.000000      4.000000
  0.400000  0.266667  0.000000      4.000000
  0.466667  0.266667  0.000000      4.000000
  0.000000  0.333333  0.000000      2.000000
  0.066667  0.333333  0.000000      4.000000
  0.133333  0.333333  0.000000      4.000000
  0.200000  0.333333  0.000000      4.000000
  0.266667  0.333333  0.000000      4.000000
  0.333333  0.333333  0.000000      4.000000
  0.400000  0.333333  0.000000      4.000000
  0.466667  0.333333  0.000000      4.000000
  0.000000  0.400000  0.000000      2.000000
  0.066667  0.400000  0.000000      4.000000
  0.133333  0.400000  0.000000      4.000000
  0.200000  0.400000  0.000000      4.000000
  0.266667  0.400000  0.000000      4.000000
  0.333333  0.400000  0.000000      4.000000
  0.400000  0.400000  0.000000      4.000000
  0.466667  0.400000  0.000000      4.000000
  0.000000  0.466667  0.000000      2.000000
  0.066667  0.466667  0.000000      4.000000
  0.133333  0.466667  0.000000      4.000000
  0.200000  0.466667  0.000000      4.000000
  0.266667  0.466667  0.000000      4.000000
  0.333333  0.466667  0.000000      4.000000
  0.400000  0.466667  0.000000      4.000000
  0.466667  0.466667  0.000000      4.000000
 
 Following cartesian coordinates:
            Coordinates               Weight
  0.000000  0.000000  0.000000      1.000000
  0.015062  0.000000  0.000000      2.000000
  0.030124  0.000000  0.000000      2.000000
  0.045186  0.000000  0.000000      2.000000
  0.060248  0.000000  0.000000      2.000000
  0.075309  0.000000  0.000000      2.000000
  0.090371  0.000000  0.000000      2.000000
  0.105433  0.000000  0.000000      2.000000
  0.000000  0.015531  0.000000      2.000000
  0.015062  0.015531  0.000000      4.000000
  0.030124  0.015531  0.000000      4.000000
  0.045186  0.015531  0.000000      4.000000
  0.060248  0.015531  0.000000      4.000000
  0.075309  0.015531  0.000000      4.000000
  0.090371  0.015531  0.000000      4.000000
  0.105433  0.015531  0.000000      4.000000
  0.000000  0.031062  0.000000      2.000000
  0.015062  0.031062  0.000000      4.000000
  0.030124  0.031062  0.000000      4.000000
  0.045186  0.031062  0.000000      4.000000
  0.060248  0.031062  0.000000      4.000000
  0.075309  0.031062  0.000000      4.000000
  0.090371  0.031062  0.000000      4.000000
  0.105433  0.031062  0.000000      4.000000
  0.000000  0.046593  0.000000      2.000000
  0.015062  0.046593  0.000000      4.000000
  0.030124  0.046593  0.000000      4.000000
  0.045186  0.046593  0.000000      4.000000
  0.060248  0.046593  0.000000      4.000000
  0.075309  0.046593  0.000000      4.000000
  0.090371  0.046593  0.000000      4.000000
  0.105433  0.046593  0.000000      4.000000
  0.000000  0.062124  0.000000      2.000000
  0.015062  0.062124  0.000000      4.000000
  0.030124  0.062124  0.000000      4.000000
  0.045186  0.062124  0.000000      4.000000
  0.060248  0.062124  0.000000      4.000000
  0.075309  0.062124  0.000000      4.000000
  0.090371  0.062124  0.000000      4.000000
  0.105433  0.062124  0.000000      4.000000
  0.000000  0.077655  0.000000      2.000000
  0.015062  0.077655  0.000000      4.000000
  0.030124  0.077655  0.000000      4.000000
  0.045186  0.077655  0.000000      4.000000
  0.060248  0.077655  0.000000      4.000000
  0.075309  0.077655  0.000000      4.000000
  0.090371  0.077655  0.000000      4.000000
  0.105433  0.077655  0.000000      4.000000
  0.000000  0.093186  0.000000      2.000000
  0.015062  0.093186  0.000000      4.000000
  0.030124  0.093186  0.000000      4.000000
  0.045186  0.093186  0.000000      4.000000
  0.060248  0.093186  0.000000      4.000000
  0.075309  0.093186  0.000000      4.000000
  0.090371  0.093186  0.000000      4.000000
  0.105433  0.093186  0.000000      4.000000
  0.000000  0.108717  0.000000      2.000000
  0.015062  0.108717  0.000000      4.000000
  0.030124  0.108717  0.000000      4.000000
  0.045186  0.108717  0.000000      4.000000
  0.060248  0.108717  0.000000      4.000000
  0.075309  0.108717  0.000000      4.000000
  0.090371  0.108717  0.000000      4.000000
  0.105433  0.108717  0.000000      4.000000
 


--------------------------------------------------------------------------------------------------------




 Dimension of arrays:
   k-points           NKPTS =     64   k-points in BZ     NKDIM =     64   number of bands    NBANDS=     14
   number of dos      NEDOS =    301   number of ions     NIONS =      4
   non local maximal  LDIM  =      5   non local SUM 2l+1 LMDIM =     13
   total plane-waves  NPLWV = 207360
   max r-space proj   IRMAX =      1   max aug-charges    IRDMAX=  52722
   dimension x,y,z NGX =    36 NGY =   36 NGZ =  160
   dimension x,y,z NGXF=    72 NGYF=   72 NGZF=  320
   support grid    NGXF=    72 NGYF=   72 NGZF=  320
   ions per type =               2   2
   NGX,Y,Z   is equivalent  to a cutoff of  13.52, 13.94, 13.30 a.u.
   NGXF,Y,Z  is equivalent  to a cutoff of  27.04, 27.89, 26.60 a.u.

 SYSTEM =  SnSe                                    
 POSCAR =   SnSe-Monolayer                         

 Startparameter for this run:
   NWRITE =      2    write-flag & timer
   PREC   = accura    normal or accurate (medium, high low for compatibility)
   ISTART =      0    job   : 0-new  1-cont  2-samecut
   ICHARG =      2    charge: 1-file 2-atom 10-const
   ISPIN  =      1    spin polarized calculation?
   LNONCOLLINEAR =      F non collinear calculations
   LSORBIT =      F    spin-orbit coupling
   INIWAV =      1    electr: 0-lowe 1-rand  2-diag
   LASPH  =      F    aspherical Exc in radial PAW
   METAGGA=      F    non-selfconsistent MetaGGA calc.

 Electronic Relaxation 1
   ENCUT  =  600.0 eV  44.10 Ry    6.64 a.u.   8.84  8.57 39.94*2*pi/ulx,y,z
   ENINI  =  600.0     initial cutoff
   ENAUG  =  446.8 eV  augmentation charge cutoff
   NELM   =     60;   NELMIN=  2; NELMDL= -5     # of ELM steps 
   EDIFF  = 0.1E-05   stopping-criterion for ELM
   LREAL  =      F    real-space projection
   NLSPLINE    = F    spline interpolate recip. space projectors
   LCOMPAT=      F    compatible to vasp.4.4
   GGA_COMPAT  = T    GGA compatible to vasp.4.4-vasp.4.6
   LMAXPAW     = -100 max onsite density
   LMAXMIX     =    2 max onsite mixed and CHGCAR
   VOSKOWN=      0    Vosko Wilk Nusair interpolation
   ROPT   =    0.00000   0.00000
 Ionic relaxation
   EDIFFG = -.1E-02   stopping-criterion for IOM
   NSW    =    100    number of steps for IOM
   NBLOCK =      1;   KBLOCK =    100    inner block; outer block 
   IBRION =      2    ionic relax: 0-MD 1-quasi-New 2-CG
   NFREE  =      1    steps in history (QN), initial steepest desc. (CG)
   ISIF   =      2    stress and relaxation
   IWAVPR =     11    prediction:  0-non 1-charg 2-wave 3-comb
   ISYM   =      2    0-nonsym 1-usesym 2-fastsym
   LCORR  =      T    Harris-Foulkes like correction to forces

   POTIM  = 0.5000    time-step for ionic-motion
   TEIN   =    0.0    initial temperature
   TEBEG  =    0.0;   TEEND  =   0.0 temperature during run
   SMASS  =  -3.00    Nose mass-parameter (am)
   estimated Nose-frequenzy (Omega)   =  0.10E-29 period in steps =****** mass=  -0.448E-27a.u.
   SCALEE = 1.0000    scale energy and forces
   NPACO  =    256;   APACO  = 16.0  distance and # of slots for P.C.
   PSTRESS=    0.0 pullay stress

  Mass of Ions in am
   POMASS = 118.71 78.96
  Ionic Valenz
   ZVAL   =   4.00  6.00
  Atomic Wigner-Seitz radii
   RWIGS  =  -1.00 -1.00
  virtual crystal weights 
   VCA    =   1.00  1.00
   NELECT =      20.0000    total number of electrons
   NUPDOWN=      -1.0000    fix difference up-down

 DOS related values:
   EMIN   =  10.00;   EMAX   =-10.00  energy-range for DOS
   EFERMI =   0.00
   ISMEAR =     0;   SIGMA  =   0.10  broadening in eV -4-tet -1-fermi 0-gaus

 Electronic relaxation 2 (details)
   IALGO  =     38    algorithm
   LDIAG  =      T    sub-space diagonalisation (order eigenvalues)
   LSUBROT=      F    optimize rotation matrix (better conditioning)
   TURBO    =      0    0=normal 1=particle mesh
   IRESTART =      0    0=no restart 2=restart with 2 vectors
   NREBOOT  =      0    no. of reboots
   NMIN     =      0    reboot dimension
   EREF     =   0.00    reference energy to select bands
   IMIX   =      4    mixing-type and parameters
     AMIX     =   0.40;   BMIX     =  1.00
     AMIX_MAG =   1.60;   BMIX_MAG =  1.00
     AMIN     =   0.10
     WC   =   100.;   INIMIX=   1;  MIXPRE=   1;  MAXMIX= -45

 Intra band minimization:
   WEIMIN = 0.0010     energy-eigenvalue tresh-hold
   EBREAK =  0.18E-07  absolut break condition
   DEPER  =   0.30     relativ break condition  

   TIME   =   0.40     timestep for ELM

  volume/ion in A,a.u.               =      95.00       641.07
  Fermi-wavevector in a.u.,A,eV,Ry     =   0.613521  1.159386  5.121334  0.376407
  Thomas-Fermi vector in A             =   1.670200
 
 Write flags
   LWAVE        =      T    write WAVECAR
   LDOWNSAMPLE  =      F    k-point downsampling of WAVECAR
   LCHARG       =      T    write CHGCAR
   LVTOT        =      F    write LOCPOT, total local potential
   LVHAR        =      F    write LOCPOT, Hartree potential only
   LELF         =      F    write electronic localiz. function (ELF)
   LORBIT       =      0    0 simple, 1 ext, 2 COOP (PROOUT), +10 PAW based schemes


 Dipole corrections
   LMONO  =      F    monopole corrections only (constant potential shift)
   LDIPOL =      F    correct potential (dipole corrections)
   IDIPOL =      0    1-x, 2-y, 3-z, 4-all directions 
   EPSILON=  1.0000000 bulk dielectric constant

 Exchange correlation treatment:
   GGA     =    PE    GGA type
   LEXCH   =     8    internal setting for exchange type
   VOSKOWN=      0    Vosko Wilk Nusair interpolation
   LHFCALC =     F    Hartree Fock is set to
   LHFONE  =     F    Hartree Fock one center treatment
   AEXX    =    0.0000 exact exchange contribution

 Linear response parameters
   LEPSILON=     F    determine dielectric tensor
   LRPA    =     F    only Hartree local field effects (RPA)
   LNABLA  =     F    use nabla operator in PAW spheres
   LVEL    =     F    velocity operator in full k-point grid
   LINTERFAST=   F  fast interpolation
   KINTER  =     0    interpolate to denser k-point grid
   CSHIFT  =0.1000    complex shift for real part using Kramers Kronig
   OMEGAMAX=  -1.0    maximum frequency
   DEG_THRESHOLD= 0.2000000E-02 threshold for treating states as degnerate
   RTIME   =   -0.100 relaxation time in fs
  (WPLASMAI=    0.000 imaginary part of plasma frequency in eV, 0.658/RTIME)
   DFIELD  = 0.0000000 0.0000000 0.0000000 field for delta impulse in time
 
 Orbital magnetization related:
   ORBITALMAG=     F  switch on orbital magnetization
   LCHIMAG   =     F  perturbation theory with respect to B field
   DQ        =  0.001000  dq finite difference perturbation B field
   LLRAUG    =     F  two centre corrections for induced B field



--------------------------------------------------------------------------------------------------------


 conjugate gradient relaxation of ions
 charge density and potential will be updated during run
 non-spin polarized calculation
 Variant of blocked Davidson
 Davidson routine will perform the subspace rotation
 perform sub-space diagonalisation
    after iterative eigenvector-optimisation
 modified Broyden-mixing scheme, WC =      100.0
 initial mixing is a Kerker type mixing with AMIX =  0.4000 and BMIX =      1.0000
 Hartree-type preconditioning will be used
 using additional bands            4
 reciprocal scheme for non local part
 use partial core corrections
 calculate Harris-corrections to forces 
   (improved forces if not selfconsistent)
 use gradient corrections 
 use of overlap-Matrix (Vanderbilt PP)
 Gauss-broadening in eV      SIGMA  =   0.10


--------------------------------------------------------------------------------------------------------


  energy-cutoff  :      600.00
  volume of cell :      379.99
      direct lattice vectors                 reciprocal lattice vectors
     4.426180333  0.000000000  0.000000000     0.225928436  0.000000000  0.000000000
     0.000000000  4.292477857  0.000000000     0.000000000  0.232965675  0.000000000
     0.000000000  0.000000000 20.000000000     0.000000000  0.000000000  0.050000000

  length of vectors
     4.426180333  4.292477857 20.000000000     0.225928436  0.232965675  0.050000000


 
 k-points in units of 2pi/SCALE and weight: Automatic                               
   0.00000000  0.00000000  0.00000000       0.004
   0.01506190  0.00000000  0.00000000       0.009
   0.03012379  0.00000000  0.00000000       0.009
   0.04518569  0.00000000  0.00000000       0.009
   0.06024758  0.00000000  0.00000000       0.009
   0.07530948  0.00000000  0.00000000       0.009
   0.09037137  0.00000000  0.00000000       0.009
   0.10543327  0.00000000  0.00000000       0.009
   0.00000000  0.01553104  0.00000000       0.009
   0.01506190  0.01553104  0.00000000       0.018
   0.03012379  0.01553104  0.00000000       0.018
   0.04518569  0.01553104  0.00000000       0.018
   0.06024758  0.01553104  0.00000000       0.018
   0.07530948  0.01553104  0.00000000       0.018
   0.09037137  0.01553104  0.00000000       0.018
   0.10543327  0.01553104  0.00000000       0.018
   0.00000000  0.03106209  0.00000000       0.009
   0.01506190  0.03106209  0.00000000       0.018
   0.03012379  0.03106209  0.00000000       0.018
   0.04518569  0.03106209  0.00000000       0.018
   0.06024758  0.03106209  0.00000000       0.018
   0.07530948  0.03106209  0.00000000       0.018
   0.09037137  0.03106209  0.00000000       0.018
   0.10543327  0.03106209  0.00000000       0.018
   0.00000000  0.04659313  0.00000000       0.009
   0.01506190  0.04659313  0.00000000       0.018
   0.03012379  0.04659313  0.00000000       0.018
   0.04518569  0.04659313  0.00000000       0.018
   0.06024758  0.04659313  0.00000000       0.018
   0.07530948  0.04659313  0.00000000       0.018
   0.09037137  0.04659313  0.00000000       0.018
   0.10543327  0.04659313  0.00000000       0.018
   0.00000000  0.06212418  0.00000000       0.009
   0.01506190  0.06212418  0.00000000       0.018
   0.03012379  0.06212418  0.00000000       0.018
   0.04518569  0.06212418  0.00000000       0.018
   0.06024758  0.06212418  0.00000000       0.018
   0.07530948  0.06212418  0.00000000       0.018
   0.09037137  0.06212418  0.00000000       0.018
   0.10543327  0.06212418  0.00000000       0.018
   0.00000000  0.07765522  0.00000000       0.009
   0.01506190  0.07765522  0.00000000       0.018
   0.03012379  0.07765522  0.00000000       0.018
   0.04518569  0.07765522  0.00000000       0.018
   0.06024758  0.07765522  0.00000000       0.018
   0.07530948  0.07765522  0.00000000       0.018
   0.09037137  0.07765522  0.00000000       0.018
   0.10543327  0.07765522  0.00000000       0.018
   0.00000000  0.09318627  0.00000000       0.009
   0.01506190  0.09318627  0.00000000       0.018
   0.03012379  0.09318627  0.00000000       0.018
   0.04518569  0.09318627  0.00000000       0.018
   0.06024758  0.09318627  0.00000000       0.018
   0.07530948  0.09318627  0.00000000       0.018
   0.09037137  0.09318627  0.00000000       0.018
   0.10543327  0.09318627  0.00000000       0.018
   0.00000000  0.10871731  0.00000000       0.009
   0.01506190  0.10871731  0.00000000       0.018
   0.03012379  0.10871731  0.00000000       0.018
   0.04518569  0.10871731  0.00000000       0.018
   0.06024758  0.10871731  0.00000000       0.018
   0.07530948  0.10871731  0.00000000       0.018
   0.09037137  0.10871731  0.00000000       0.018
   0.10543327  0.10871731  0.00000000       0.018
 
 k-points in reciprocal lattice and weights: Automatic                               
   0.00000000  0.00000000  0.00000000       0.004
   0.06666667  0.00000000  0.00000000       0.009
   0.13333333  0.00000000  0.00000000       0.009
   0.20000000  0.00000000  0.00000000       0.009
   0.26666667  0.00000000  0.00000000       0.009
   0.33333333  0.00000000  0.00000000       0.009
   0.40000000  0.00000000  0.00000000       0.009
   0.46666667  0.00000000  0.00000000       0.009
   0.00000000  0.06666667  0.00000000       0.009
   0.06666667  0.06666667  0.00000000       0.018
   0.13333333  0.06666667  0.00000000       0.018
   0.20000000  0.06666667  0.00000000       0.018
   0.26666667  0.06666667  0.00000000       0.018
   0.33333333  0.06666667  0.00000000       0.018
   0.40000000  0.06666667  0.00000000       0.018
   0.46666667  0.06666667  0.00000000       0.018
   0.00000000  0.13333333  0.00000000       0.009
   0.06666667  0.13333333  0.00000000       0.018
   0.13333333  0.13333333  0.00000000       0.018
   0.20000000  0.13333333  0.00000000       0.018
   0.26666667  0.13333333  0.00000000       0.018
   0.33333333  0.13333333  0.00000000       0.018
   0.40000000  0.13333333  0.00000000       0.018
   0.46666667  0.13333333  0.00000000       0.018
   0.00000000  0.20000000  0.00000000       0.009
   0.06666667  0.20000000  0.00000000       0.018
   0.13333333  0.20000000  0.00000000       0.018
   0.20000000  0.20000000  0.00000000       0.018
   0.26666667  0.20000000  0.00000000       0.018
   0.33333333  0.20000000  0.00000000       0.018
   0.40000000  0.20000000  0.00000000       0.018
   0.46666667  0.20000000  0.00000000       0.018
   0.00000000  0.26666667  0.00000000       0.009
   0.06666667  0.26666667  0.00000000       0.018
   0.13333333  0.26666667  0.00000000       0.018
   0.20000000  0.26666667  0.00000000       0.018
   0.26666667  0.26666667  0.00000000       0.018
   0.33333333  0.26666667  0.00000000       0.018
   0.40000000  0.26666667  0.00000000       0.018
   0.46666667  0.26666667  0.00000000       0.018
   0.00000000  0.33333333  0.00000000       0.009
   0.06666667  0.33333333  0.00000000       0.018
   0.13333333  0.33333333  0.00000000       0.018
   0.20000000  0.33333333  0.00000000       0.018
   0.26666667  0.33333333  0.00000000       0.018
   0.33333333  0.33333333  0.00000000       0.018
   0.40000000  0.33333333  0.00000000       0.018
   0.46666667  0.33333333  0.00000000       0.018
   0.00000000  0.40000000  0.00000000       0.009
   0.06666667  0.40000000  0.00000000       0.018
   0.13333333  0.40000000  0.00000000       0.018
   0.20000000  0.40000000  0.00000000       0.018
   0.26666667  0.40000000  0.00000000       0.018
   0.33333333  0.40000000  0.00000000       0.018
   0.40000000  0.40000000  0.00000000       0.018
   0.46666667  0.40000000  0.00000000       0.018
   0.00000000  0.46666667  0.00000000       0.009
   0.06666667  0.46666667  0.00000000       0.018
   0.13333333  0.46666667  0.00000000       0.018
   0.20000000  0.46666667  0.00000000       0.018
   0.26666667  0.46666667  0.00000000       0.018
   0.33333333  0.46666667  0.00000000       0.018
   0.40000000  0.46666667  0.00000000       0.018
   0.46666667  0.46666667  0.00000000       0.018
 
 position of ions in fractional coordinates (direct lattice) 
   0.58124336  0.75000000  0.56874314
   0.08124336  0.25000000  0.43125686
   0.03286064  0.25000000  0.56707387
   0.53286061  0.75000000  0.43292613
 
 position of ions in cartesian coordinates  (Angst):
   2.57268792  3.21935839 11.37486283
   0.35959775  1.07311946  8.62513717
   0.14544713  1.07311946 11.34147733
   2.35853717  3.21935839  8.65852267
 


--------------------------------------------------------------------------------------------------------


 k-point  1 :   0.0000 0.0000 0.0000  plane waves:   12719
 k-point  2 :   0.0667 0.0000 0.0000  plane waves:   12717
 k-point  3 :   0.1333 0.0000 0.0000  plane waves:   12701
 k-point  4 :   0.2000 0.0000 0.0000  plane waves:   12676
 k-point  5 :   0.2667 0.0000 0.0000  plane waves:   12694
 k-point  6 :   0.3333 0.0000 0.0000  plane waves:   12688
 k-point  7 :   0.4000 0.0000 0.0000  plane waves:   12696
 k-point  8 :   0.4667 0.0000 0.0000  plane waves:   12716
 k-point  9 :   0.0000 0.0667 0.0000  plane waves:   12695
 k-point 10 :   0.0667 0.0667 0.0000  plane waves:   12691
 k-point 11 :   0.1333 0.0667 0.0000  plane waves:   12696
 k-point 12 :   0.2000 0.0667 0.0000  plane waves:   12693
 k-point 13 :   0.2667 0.0667 0.0000  plane waves:   12693
 k-point 14 :   0.3333 0.0667 0.0000  plane waves:   12704
 k-point 15 :   0.4000 0.0667 0.0000  plane waves:   12695
 k-point 16 :   0.4667 0.0667 0.0000  plane waves:   12720
 k-point 17 :   0.0000 0.1333 0.0000  plane waves:   12671
 k-point 18 :   0.0667 0.1333 0.0000  plane waves:   12673
 k-point 19 :   0.1333 0.1333 0.0000  plane waves:   12680
 k-point 20 :   0.2000 0.1333 0.0000  plane waves:   12672
 k-point 21 :   0.2667 0.1333 0.0000  plane waves:   12679
 k-point 22 :   0.3333 0.1333 0.0000  plane waves:   12686
 k-point 23 :   0.4000 0.1333 0.0000  plane waves:   12709
 k-point 24 :   0.4667 0.1333 0.0000  plane waves:   12703
 k-point 25 :   0.0000 0.2000 0.0000  plane waves:   12679
 k-point 26 :   0.0667 0.2000 0.0000  plane waves:   12680
 k-point 27 :   0.1333 0.2000 0.0000  plane waves:   12666
 k-point 28 :   0.2000 0.2000 0.0000  plane waves:   12680
 k-point 29 :   0.2667 0.2000 0.0000  plane waves:   12687
 k-point 30 :   0.3333 0.2000 0.0000  plane waves:   12680
 k-point 31 :   0.4000 0.2000 0.0000  plane waves:   12707
 k-point 32 :   0.4667 0.2000 0.0000  plane waves:   12703
 k-point 33 :   0.0000 0.2667 0.0000  plane waves:   12671
 k-point 34 :   0.0667 0.2667 0.0000  plane waves:   12660
 k-point 35 :   0.1333 0.2667 0.0000  plane waves:   12670
 k-point 36 :   0.2000 0.2667 0.0000  plane waves:   12680
 k-point 37 :   0.2667 0.2667 0.0000  plane waves:   12681
 k-point 38 :   0.3333 0.2667 0.0000  plane waves:   12687
 k-point 39 :   0.4000 0.2667 0.0000  plane waves:   12691
 k-point 40 :   0.4667 0.2667 0.0000  plane waves:   12708
 k-point 41 :   0.0000 0.3333 0.0000  plane waves:   12631
 k-point 42 :   0.0667 0.3333 0.0000  plane waves:   12652
 k-point 43 :   0.1333 0.3333 0.0000  plane waves:   12652
 k-point 44 :   0.2000 0.3333 0.0000  plane waves:   12671
 k-point 45 :   0.2667 0.3333 0.0000  plane waves:   12675
 k-point 46 :   0.3333 0.3333 0.0000  plane waves:   12681
 k-point 47 :   0.4000 0.3333 0.0000  plane waves:   12685
 k-point 48 :   0.4667 0.3333 0.0000  plane waves:   12687
 k-point 49 :   0.0000 0.4000 0.0000  plane waves:   12631
 k-point 50 :   0.0667 0.4000 0.0000  plane waves:   12634
 k-point 51 :   0.1333 0.4000 0.0000  plane waves:   12641
 k-point 52 :   0.2000 0.4000 0.0000  plane waves:   12664
 k-point 53 :   0.2667 0.4000 0.0000  plane waves:   12673
 k-point 54 :   0.3333 0.4000 0.0000  plane waves:   12690
 k-point 55 :   0.4000 0.4000 0.0000  plane waves:   12683
 k-point 56 :   0.4667 0.4000 0.0000  plane waves:   12679
 k-point 57 :   0.0000 0.4667 0.0000  plane waves:   12646
 k-point 58 :   0.0667 0.4667 0.0000  plane waves:   12639
 k-point 59 :   0.1333 0.4667 0.0000  plane waves:   12648
 k-point 60 :   0.2000 0.4667 0.0000  plane waves:   12665
 k-point 61 :   0.2667 0.4667 0.0000  plane waves:   12665
 k-point 62 :   0.3333 0.4667 0.0000  plane waves:   12682
 k-point 63 :   0.4000 0.4667 0.0000  plane waves:   12672
 k-point 64 :   0.4667 0.4667 0.0000  plane waves:   12663

 maximum and minimum number of plane-waves per node :       545      497

 maximum number of plane-waves:     12720
 maximum index in each direction: 
   IXMAX=    8   IYMAX=    8   IZMAX=   39
   IXMIN=   -9   IYMIN=   -9   IZMIN=  -39


 parallel 3D FFT for wavefunctions:
    minimum data exchange during FFTs selected (reduces bandwidth)
 parallel 3D FFT for charge:
    minimum data exchange during FFTs selected (reduces bandwidth)


 total amount of memory used by VASP MPI-rank0    52213. kBytes
=======================================================================

   base      :      30000. kBytes
   nonl-proj :       7236. kBytes
   fftplans  :       2678. kBytes
   grid      :       4349. kBytes
   one-center:          8. kBytes
   wavefun   :       7942. kBytes
 
     INWAV:  cpu time    0.0000: real time    0.0002
 Broyden mixing: mesh for mixing (old mesh)
   NGX = 17   NGY = 17   NGZ = 79
  (NGX  = 72   NGY  = 72   NGZ  =320)
  gives a total of  22831 points

 initial charge density was supplied:
 charge density of overlapping atoms calculated
 number of electron      20.0000000 magnetization 
 keeping initial charge density in first step


--------------------------------------------------------------------------------------------------------


 Maximum index for augmentation-charges         2200 (set IRDMAX)


--------------------------------------------------------------------------------------------------------


 First call to EWALD:  gamma=   0.245
 Maximum number of real-space cells 4x 4x 1
 Maximum number of reciprocal cells 2x 2x 7

    FEWALD:  cpu time    0.0010: real time    0.0025


--------------------------------------- Iteration      1(   1)  ---------------------------------------


    POTLOK:  cpu time    0.0591: real time    0.1794
    SETDIJ:  cpu time    0.0056: real time    0.0056
     EDDAV:  cpu time    1.2155: real time    1.2209
       DOS:  cpu time    0.0025: real time    0.0025
    --------------------------------------------
      LOOP:  cpu time    1.2827: real time    1.4084

 eigenvalue-minimisations  :  1792
 total energy-change (2. order) : 0.1438559E+03  (-0.6248794E+03)
 number of electron      20.0000000 magnetization 
 augmentation part       20.0000000 magnetization 

 Free energy of the ion-electron system (eV)
  ---------------------------------------------------
  alpha Z        PSCENC =         9.41011638
  Ewald energy   TEWEN  =      1136.82591580
  -Hartree energ DENC   =     -1738.51703692
  -exchange      EXHF   =         0.00000000
  -V(xc)+E(xc)   XCENC  =      -238.65527697
  PAW double counting   =       799.43158084     -524.17639913
  entropy T*S    EENTRO =        -0.00859781
  eigenvalues    EBANDS =        -2.88225059
  atomic energy  EATOM  =       702.42789710
  Solvation  Ediel_sol  =         0.00000000
  ---------------------------------------------------
  free energy    TOTEN  =       143.85594870 eV

  energy without entropy =      143.86454651  energy(sigma->0) =      143.86024760


--------------------------------------------------------------------------------------------------------




--------------------------------------- Iteration      1(   2)  ---------------------------------------


     EDDAV:  cpu time    1.7325: real time    1.7380
       DOS:  cpu time    0.0022: real time    0.0023
    --------------------------------------------
      LOOP:  cpu time    1.7347: real time    1.7403

 eigenvalue-minimisations  :  2984
 total energy-change (2. order) :-0.1392333E+03  (-0.1346074E+03)
 number of electron      20.0000000 magnetization 
 augmentation part       20.0000000 magnetization 

 Free energy of the ion-electron system (eV)
  ---------------------------------------------------
  alpha Z        PSCENC =         9.41011638
  Ewald energy   TEWEN  =      1136.82591580
  -Hartree energ DENC   =     -1738.51703692
  -exchange      EXHF   =         0.00000000
  -V(xc)+E(xc)   XCENC  =      -238.65527697
  PAW double counting   =       799.43158084     -524.17639913
  entropy T*S    EENTRO =        -0.00002070
  eigenvalues    EBANDS =      -142.12409809
  atomic energy  EATOM  =       702.42789710
  Solvation  Ediel_sol  =         0.00000000
  ---------------------------------------------------
  free energy    TOTEN  =         4.62267830 eV

  energy without entropy =        4.62269901  energy(sigma->0) =        4.62268865


--------------------------------------------------------------------------------------------------------




--------------------------------------- Iteration      1(   3)  ---------------------------------------


     EDDAV:  cpu time    1.4145: real time    1.4206
       DOS:  cpu time    0.0017: real time    0.0017
    --------------------------------------------
      LOOP:  cpu time    1.4162: real time    1.4223

 eigenvalue-minimisations  :  2272
 total energy-change (2. order) :-0.2060584E+02  (-0.2046172E+02)
 number of electron      20.0000000 magnetization 
 augmentation part       20.0000000 magnetization 

 Free energy of the ion-electron system (eV)
  ---------------------------------------------------
  alpha Z        PSCENC =         9.41011638
  Ewald energy   TEWEN  =      1136.82591580
  -Hartree energ DENC   =     -1738.51703692
  -exchange      EXHF   =         0.00000000
  -V(xc)+E(xc)   XCENC  =      -238.65527697
  PAW double counting   =       799.43158084     -524.17639913
  entropy T*S    EENTRO =        -0.00000000
  eigenvalues    EBANDS =      -162.72996113
  atomic energy  EATOM  =       702.42789710
  Solvation  Ediel_sol  =         0.00000000
  ---------------------------------------------------
  free energy    TOTEN  =       -15.98316403 eV

  energy without entropy =      -15.98316403  energy(sigma->0) =      -15.98316403


--------------------------------------------------------------------------------------------------------




--------------------------------------- Iteration      1(   4)  ---------------------------------------


     EDDAV:  cpu time    1.5128: real time    1.5157
       DOS:  cpu time    0.0017: real time    0.0017
    --------------------------------------------
      LOOP:  cpu time    1.5145: real time    1.5174

 eigenvalue-minimisations  :  2500
 total energy-change (2. order) :-0.8038644E+00  (-0.8018177E+00)
 number of electron      20.0000000 magnetization 
 augmentation part       20.0000000 magnetization 

 Free energy of the ion-electron system (eV)
  ---------------------------------------------------
  alpha Z        PSCENC =         9.41011638
  Ewald energy   TEWEN  =      1136.82591580
  -Hartree energ DENC   =     -1738.51703692
  -exchange      EXHF   =         0.00000000
  -V(xc)+E(xc)   XCENC  =      -238.65527697
  PAW double counting   =       799.43158084     -524.17639913
  entropy T*S    EENTRO =        -0.00000000
  eigenvalues    EBANDS =      -163.53382550
  atomic energy  EATOM  =       702.42789710
  Solvation  Ediel_sol  =         0.00000000
  ---------------------------------------------------
  free energy    TOTEN  =       -16.78702840 eV

  energy without entropy =      -16.78702840  energy(sigma->0) =      -16.78702840


--------------------------------------------------------------------------------------------------------




--------------------------------------- Iteration      1(   5)  ---------------------------------------


     EDDAV:  cpu time    1.4446: real time    1.4472
       DOS:  cpu time    0.0017: real time    0.0017
    CHARGE:  cpu time    0.1121: real time    0.1122
    MIXING:  cpu time    0.0012: real time    0.0013
    --------------------------------------------
      LOOP:  cpu time    1.5596: real time    1.5624

 eigenvalue-minimisations  :  2398
 total energy-change (2. order) :-0.1720266E-01  (-0.1718881E-01)
 number of electron      20.0000001 magnetization 
 augmentation part       -4.5204641 magnetization 

 Broyden mixing:
  rms(total) = 0.44699E+00    rms(broyden)= 0.44699E+00
  rms(prec ) = 0.48896E+00
  weight for this iteration     100.00

 Free energy of the ion-electron system (eV)
  ---------------------------------------------------
  alpha Z        PSCENC =         9.41011638
  Ewald energy   TEWEN  =      1136.82591580
  -Hartree energ DENC   =     -1738.51703692
  -exchange      EXHF   =         0.00000000
  -V(xc)+E(xc)   XCENC  =      -238.65527697
  PAW double counting   =       799.43158084     -524.17639913
  entropy T*S    EENTRO =        -0.00000000
  eigenvalues    EBANDS =      -163.55102816
  atomic energy  EATOM  =       702.42789710
  Solvation  Ediel_sol  =         0.00000000
  ---------------------------------------------------
  free energy    TOTEN  =       -16.80423106 eV

  energy without entropy =      -16.80423106  energy(sigma->0) =      -16.80423106


--------------------------------------------------------------------------------------------------------




--------------------------------------- Iteration      1(   6)  ---------------------------------------


    POTLOK:  cpu time    0.0360: real time    0.0364
    SETDIJ:  cpu time    0.0031: real time    0.0031
     EDDAV:  cpu time    1.3649: real time    1.3671
       DOS:  cpu time    0.0018: real time    0.0018
    CHARGE:  cpu time    0.1115: real time    0.1116
    MIXING:  cpu time    0.0012: real time    0.0012
    --------------------------------------------
      LOOP:  cpu time    1.5186: real time    1.5212

 eigenvalue-minimisations  :  2224
 total energy-change (2. order) : 0.5029790E+00  (-0.1302431E+00)
 number of electron      20.0000001 magnetization 
 augmentation part       -4.4872738 magnetization 

 Broyden mixing:
  rms(total) = 0.27340E+00    rms(broyden)= 0.27340E+00
  rms(prec ) = 0.28261E+00
  weight for this iteration     100.00

 eigenvalues of (default mixing * dielectric matrix)
  average eigenvalue GAMMA=   1.7587
  1.7587

 Free energy of the ion-electron system (eV)
  ---------------------------------------------------
  alpha Z        PSCENC =         9.41011638
  Ewald energy   TEWEN  =      1136.82591580
  -Hartree energ DENC   =     -1746.44061241
  -exchange      EXHF   =         0.00000000
  -V(xc)+E(xc)   XCENC  =      -238.16914016
  PAW double counting   =       921.74917847     -646.67070216
  entropy T*S    EENTRO =        -0.00000000
  eigenvalues    EBANDS =      -155.43390506
  atomic energy  EATOM  =       702.42789710
  Solvation  Ediel_sol  =         0.00000000
  ---------------------------------------------------
  free energy    TOTEN  =       -16.30125204 eV

  energy without entropy =      -16.30125204  energy(sigma->0) =      -16.30125204


--------------------------------------------------------------------------------------------------------




--------------------------------------- Iteration      1(   7)  ---------------------------------------


    POTLOK:  cpu time    0.0357: real time    0.0361
    SETDIJ:  cpu time    0.0030: real time    0.0030
     EDDAV:  cpu time    1.4389: real time    1.4413
       DOS:  cpu time    0.0018: real time    0.0018
    CHARGE:  cpu time    0.1171: real time    0.1184
    MIXING:  cpu time    0.0012: real time    0.0012
    --------------------------------------------
      LOOP:  cpu time    1.5976: real time    1.6018

 eigenvalue-minimisations  :  2374
 total energy-change (2. order) : 0.2628259E-01  (-0.3034870E-01)
 number of electron      20.0000001 magnetization 
 augmentation part       -4.4801182 magnetization 

 Broyden mixing:
  rms(total) = 0.10656E+00    rms(broyden)= 0.10656E+00
  rms(prec ) = 0.11189E+00
  weight for this iteration     100.00

 eigenvalues of (default mixing * dielectric matrix)
  average eigenvalue GAMMA=   1.7250
  1.3595  2.0906

 Free energy of the ion-electron system (eV)
  ---------------------------------------------------
  alpha Z        PSCENC =         9.41011638
  Ewald energy   TEWEN  =      1136.82591580
  -Hartree energ DENC   =     -1751.27124146
  -exchange      EXHF   =         0.00000000
  -V(xc)+E(xc)   XCENC  =      -237.85513457
  PAW double counting   =      1057.01945636     -782.07041518
  entropy T*S    EENTRO =        -0.00000000
  eigenvalues    EBANDS =      -150.76156387
  atomic energy  EATOM  =       702.42789710
  Solvation  Ediel_sol  =         0.00000000
  ---------------------------------------------------
  free energy    TOTEN  =       -16.27496945 eV

  energy without entropy =      -16.27496945  energy(sigma->0) =      -16.27496945


--------------------------------------------------------------------------------------------------------




--------------------------------------- Iteration      1(   8)  ---------------------------------------


    POTLOK:  cpu time    0.0360: real time    0.0364
    SETDIJ:  cpu time    0.0031: real time    0.0031
     EDDAV:  cpu time    1.5503: real time    1.5527
       DOS:  cpu time    0.0018: real time    0.0018
    CHARGE:  cpu time    0.1167: real time    0.1180
    MIXING:  cpu time    0.0012: real time    0.0012
    --------------------------------------------
      LOOP:  cpu time    1.7090: real time    1.7131

 eigenvalue-minimisations  :  2566
 total energy-change (2. order) : 0.9239197E-02  (-0.3623980E-02)
 number of electron      20.0000001 magnetization 
 augmentation part       -4.4843100 magnetization 

 Broyden mixing:
  rms(total) = 0.20124E-01    rms(broyden)= 0.20124E-01
  rms(prec ) = 0.27580E-01
  weight for this iteration     100.00

 eigenvalues of (default mixing * dielectric matrix)
  average eigenvalue GAMMA=   1.6892
  2.5085  1.2795  1.2795

 Free energy of the ion-electron system (eV)
  ---------------------------------------------------
  alpha Z        PSCENC =         9.41011638
  Ewald energy   TEWEN  =      1136.82591580
  -Hartree energ DENC   =     -1753.02309943
  -exchange      EXHF   =         0.00000000
  -V(xc)+E(xc)   XCENC  =      -237.77150224
  PAW double counting   =      1124.13372305     -849.22325474
  entropy T*S    EENTRO =        -0.00000000
  eigenvalues    EBANDS =      -149.04552617
  atomic energy  EATOM  =       702.42789710
  Solvation  Ediel_sol  =         0.00000000
  ---------------------------------------------------
  free energy    TOTEN  =       -16.26573025 eV

  energy without entropy =      -16.26573025  energy(sigma->0) =      -16.26573025


--------------------------------------------------------------------------------------------------------




--------------------------------------- Iteration      1(   9)  ---------------------------------------


    POTLOK:  cpu time    0.0361: real time    0.0365
    SETDIJ:  cpu time    0.0031: real time    0.0042
     EDDAV:  cpu time    1.4794: real time    1.4819
       DOS:  cpu time    0.0018: real time    0.0018
    CHARGE:  cpu time    0.1119: real time    0.1120
    MIXING:  cpu time    0.0012: real time    0.0012
    --------------------------------------------
      LOOP:  cpu time    1.6336: real time    1.6377

 eigenvalue-minimisations  :  2446
 total energy-change (2. order) : 0.3624696E-02  (-0.6341479E-03)
 number of electron      20.0000001 magnetization 
 augmentation part       -4.4825204 magnetization 

 Broyden mixing:
  rms(total) = 0.99602E-02    rms(broyden)= 0.99602E-02
  rms(prec ) = 0.15592E-01
  weight for this iteration     100.00

 eigenvalues of (default mixing * dielectric matrix)
  average eigenvalue GAMMA=   1.7168
  2.2477  2.2477  1.1860  1.1860

 Free energy of the ion-electron system (eV)
  ---------------------------------------------------
  alpha Z        PSCENC =         9.41011638
  Ewald energy   TEWEN  =      1136.82591580
  -Hartree energ DENC   =     -1754.93903079
  -exchange      EXHF   =         0.00000000
  -V(xc)+E(xc)   XCENC  =      -237.70038329
  PAW double counting   =      1141.19646408     -866.29696801
  entropy T*S    EENTRO =        -0.00000000
  eigenvalues    EBANDS =      -147.18611682
  atomic energy  EATOM  =       702.42789710
  Solvation  Ediel_sol  =         0.00000000
  ---------------------------------------------------
  free energy    TOTEN  =       -16.26210556 eV

  energy without entropy =      -16.26210556  energy(sigma->0) =      -16.26210556


--------------------------------------------------------------------------------------------------------




--------------------------------------- Iteration      1(  10)  ---------------------------------------


    POTLOK:  cpu time    0.0363: real time    0.0367
    SETDIJ:  cpu time    0.0031: real time    0.0031
     EDDAV:  cpu time    1.4641: real time    1.4664
       DOS:  cpu time    0.0018: real time    0.0018
    CHARGE:  cpu time    0.1116: real time    0.1117
    MIXING:  cpu time    0.0012: real time    0.0012
    --------------------------------------------
      LOOP:  cpu time    1.6181: real time    1.6210

 eigenvalue-minimisations  :  2422
 total energy-change (2. order) : 0.1346866E-02  (-0.1264803E-03)
 number of electron      20.0000001 magnetization 
 augmentation part       -4.4812030 magnetization 

 Broyden mixing:
  rms(total) = 0.49653E-02    rms(broyden)= 0.49653E-02
  rms(prec ) = 0.92180E-02
  weight for this iteration     100.00

 eigenvalues of (default mixing * dielectric matrix)
  average eigenvalue GAMMA=   1.8496
  3.3022  2.5895  1.2248  1.2248  0.9068

 Free energy of the ion-electron system (eV)
  ---------------------------------------------------
  alpha Z        PSCENC =         9.41011638
  Ewald energy   TEWEN  =      1136.82591580
  -Hartree energ DENC   =     -1756.25315632
  -exchange      EXHF   =         0.00000000
  -V(xc)+E(xc)   XCENC  =      -237.68735676
  PAW double counting   =      1131.33099116     -856.42196781
  entropy T*S    EENTRO =        -0.00000000
  eigenvalues    EBANDS =      -145.89319823
  atomic energy  EATOM  =       702.42789710
  Solvation  Ediel_sol  =         0.00000000
  ---------------------------------------------------
  free energy    TOTEN  =       -16.26075869 eV

  energy without entropy =      -16.26075869  energy(sigma->0) =      -16.26075869


--------------------------------------------------------------------------------------------------------




--------------------------------------- Iteration      1(  11)  ---------------------------------------


    POTLOK:  cpu time    0.0362: real time    0.0366
    SETDIJ:  cpu time    0.0030: real time    0.0030
     EDDAV:  cpu time    1.4590: real time    1.4611
       DOS:  cpu time    0.0018: real time    0.0018
    CHARGE:  cpu time    0.1115: real time    0.1116
    MIXING:  cpu time    0.0013: real time    0.0013
    --------------------------------------------
      LOOP:  cpu time    1.6127: real time    1.6155

 eigenvalue-minimisations  :  2422
 total energy-change (2. order) : 0.7107920E-03  (-0.1173791E-03)
 number of electron      20.0000001 magnetization 
 augmentation part       -4.4798807 magnetization 

 Broyden mixing:
  rms(total) = 0.31606E-02    rms(broyden)= 0.31606E-02
  rms(prec ) = 0.49565E-02
  weight for this iteration     100.00

 eigenvalues of (default mixing * dielectric matrix)
  average eigenvalue GAMMA=   1.8273
  3.3859  2.3935  1.9239  1.1834  1.1834  0.8938

 Free energy of the ion-electron system (eV)
  ---------------------------------------------------
  alpha Z        PSCENC =         9.41011638
  Ewald energy   TEWEN  =      1136.82591580
  -Hartree energ DENC   =     -1757.79103172
  -exchange      EXHF   =         0.00000000
  -V(xc)+E(xc)   XCENC  =      -237.65691771
  PAW double counting   =      1132.74252304     -857.83248369
  entropy T*S    EENTRO =        -0.00000000
  eigenvalues    EBANDS =      -144.38606710
  atomic energy  EATOM  =       702.42789710
  Solvation  Ediel_sol  =         0.00000000
  ---------------------------------------------------
  free energy    TOTEN  =       -16.26004790 eV

  energy without entropy =      -16.26004790  energy(sigma->0) =      -16.26004790


--------------------------------------------------------------------------------------------------------




--------------------------------------- Iteration      1(  12)  ---------------------------------------


    POTLOK:  cpu time    0.0363: real time    0.0369
    SETDIJ:  cpu time    0.0030: real time    0.0030
     EDDAV:  cpu time    1.2694: real time    1.2713
       DOS:  cpu time    0.0018: real time    0.0018
    CHARGE:  cpu time    0.1114: real time    0.1114
    MIXING:  cpu time    0.0014: real time    0.0014
    --------------------------------------------
      LOOP:  cpu time    1.4232: real time    1.4257

 eigenvalue-minimisations  :  1996
 total energy-change (2. order) :-0.8160926E-03  (-0.2668671E-04)
 number of electron      20.0000001 magnetization 
 augmentation part       -4.4792480 magnetization 

 Broyden mixing:
  rms(total) = 0.16517E-02    rms(broyden)= 0.16517E-02
  rms(prec ) = 0.26620E-02
  weight for this iteration     100.00

 eigenvalues of (default mixing * dielectric matrix)
  average eigenvalue GAMMA=   2.0603
  4.6048  3.0572  2.5003  1.1941  1.1941  1.0210  0.8509

 Free energy of the ion-electron system (eV)
  ---------------------------------------------------
  alpha Z        PSCENC =         9.41011638
  Ewald energy   TEWEN  =      1136.82591580
  -Hartree energ DENC   =     -1758.45227514
  -exchange      EXHF   =         0.00000000
  -V(xc)+E(xc)   XCENC  =      -237.64742423
  PAW double counting   =      1134.20155607     -859.29370374
  entropy T*S    EENTRO =        -0.00000000
  eigenvalues    EBANDS =      -143.73294623
  atomic energy  EATOM  =       702.42789710
  Solvation  Ediel_sol  =         0.00000000
  ---------------------------------------------------
  free energy    TOTEN  =       -16.26086399 eV

  energy without entropy =      -16.26086399  energy(sigma->0) =      -16.26086399


--------------------------------------------------------------------------------------------------------




--------------------------------------- Iteration      1(  13)  ---------------------------------------


    POTLOK:  cpu time    0.0366: real time    0.0371
    SETDIJ:  cpu time    0.0030: real time    0.0030
     EDDAV:  cpu time    1.3208: real time    1.3229
       DOS:  cpu time    0.0018: real time    0.0018
    CHARGE:  cpu time    0.1113: real time    0.1113
    MIXING:  cpu time    0.0015: real time    0.0015
    --------------------------------------------
      LOOP:  cpu time    1.4750: real time    1.4777

 eigenvalue-minimisations  :  2116
 total energy-change (2. order) :-0.4258843E-03  (-0.7329490E-05)
 number of electron      20.0000001 magnetization 
 augmentation part       -4.4790369 magnetization 

 Broyden mixing:
  rms(total) = 0.10646E-02    rms(broyden)= 0.10646E-02
  rms(prec ) = 0.14582E-02
  weight for this iteration     100.00

 eigenvalues of (default mixing * dielectric matrix)
  average eigenvalue GAMMA=   2.2482
  5.7396  3.2703  2.4930  2.1971  1.1541  1.1541  1.0645  0.9126

 Free energy of the ion-electron system (eV)
  ---------------------------------------------------
  alpha Z        PSCENC =         9.41011638
  Ewald energy   TEWEN  =      1136.82591580
  -Hartree energ DENC   =     -1758.85937064
  -exchange      EXHF   =         0.00000000
  -V(xc)+E(xc)   XCENC  =      -237.64571901
  PAW double counting   =      1133.27846622     -858.36964268
  entropy T*S    EENTRO =        -0.00000000
  eigenvalues    EBANDS =      -143.32895305
  atomic energy  EATOM  =       702.42789710
  Solvation  Ediel_sol  =         0.00000000
  ---------------------------------------------------
  free energy    TOTEN  =       -16.26128987 eV

  energy without entropy =      -16.26128987  energy(sigma->0) =      -16.26128987


--------------------------------------------------------------------------------------------------------




--------------------------------------- Iteration      1(  14)  ---------------------------------------


    POTLOK:  cpu time    0.0375: real time    0.0379
    SETDIJ:  cpu time    0.0030: real time    0.0030
     EDDAV:  cpu time    1.3574: real time    1.3596
       DOS:  cpu time    0.0018: real time    0.0018
    CHARGE:  cpu time    0.1118: real time    0.1131
    MIXING:  cpu time    0.0015: real time    0.0015
    --------------------------------------------
      LOOP:  cpu time    1.5130: real time    1.5169

 eigenvalue-minimisations  :  2182
 total energy-change (2. order) :-0.2712840E-03  (-0.4086889E-05)
 number of electron      20.0000001 magnetization 
 augmentation part       -4.4790047 magnetization 

 Broyden mixing:
  rms(total) = 0.38832E-03    rms(broyden)= 0.38832E-03
  rms(prec ) = 0.60870E-03
  weight for this iteration     100.00

 eigenvalues of (default mixing * dielectric matrix)
  average eigenvalue GAMMA=   2.2491
  6.7629  3.0698  2.5387  2.5387  1.1753  1.1753  0.9469  1.0172  1.0172

 Free energy of the ion-electron system (eV)
  ---------------------------------------------------
  alpha Z        PSCENC =         9.41011638
  Ewald energy   TEWEN  =      1136.82591580
  -Hartree energ DENC   =     -1759.06853354
  -exchange      EXHF   =         0.00000000
  -V(xc)+E(xc)   XCENC  =      -237.64566669
  PAW double counting   =      1133.47097269     -858.56162705
  entropy T*S    EENTRO =        -0.00000000
  eigenvalues    EBANDS =      -143.12063585
  atomic energy  EATOM  =       702.42789710
  Solvation  Ediel_sol  =         0.00000000
  ---------------------------------------------------
  free energy    TOTEN  =       -16.26156116 eV

  energy without entropy =      -16.26156116  energy(sigma->0) =      -16.26156116


--------------------------------------------------------------------------------------------------------




--------------------------------------- Iteration      1(  15)  ---------------------------------------


    POTLOK:  cpu time    0.0375: real time    0.0380
    SETDIJ:  cpu time    0.0030: real time    0.0030
     EDDAV:  cpu time    1.3830: real time    1.3853
       DOS:  cpu time    0.0018: real time    0.0018
    CHARGE:  cpu time    0.1119: real time    0.1120
    MIXING:  cpu time    0.0015: real time    0.0015
    --------------------------------------------
      LOOP:  cpu time    1.5387: real time    1.5415

 eigenvalue-minimisations  :  2196
 total energy-change (2. order) :-0.5776956E-04  (-0.2013719E-06)
 number of electron      20.0000001 magnetization 
 augmentation part       -4.4790206 magnetization 

 Broyden mixing:
  rms(total) = 0.30374E-03    rms(broyden)= 0.30374E-03
  rms(prec ) = 0.48151E-03
  weight for this iteration     100.00

 eigenvalues of (default mixing * dielectric matrix)
  average eigenvalue GAMMA=   2.3609
  6.5805  4.2939  2.6966  2.6966  1.9930  1.1383  1.1383  1.1971  0.9373  0.9373

 Free energy of the ion-electron system (eV)
  ---------------------------------------------------
  alpha Z        PSCENC =         9.41011638
  Ewald energy   TEWEN  =      1136.82591580
  -Hartree energ DENC   =     -1759.08244484
  -exchange      EXHF   =         0.00000000
  -V(xc)+E(xc)   XCENC  =      -237.64603259
  PAW double counting   =      1133.27277414     -858.36329772
  entropy T*S    EENTRO =        -0.00000000
  eigenvalues    EBANDS =      -143.10654720
  atomic energy  EATOM  =       702.42789710
  Solvation  Ediel_sol  =         0.00000000
  ---------------------------------------------------
  free energy    TOTEN  =       -16.26161893 eV

  energy without entropy =      -16.26161893  energy(sigma->0) =      -16.26161893


--------------------------------------------------------------------------------------------------------




--------------------------------------- Iteration      1(  16)  ---------------------------------------


    POTLOK:  cpu time    0.0367: real time    0.0372
    SETDIJ:  cpu time    0.0030: real time    0.0030
     EDDAV:  cpu time    1.2604: real time    1.2624
       DOS:  cpu time    0.0018: real time    0.0018
    CHARGE:  cpu time    0.1119: real time    0.1120
    MIXING:  cpu time    0.0016: real time    0.0016
    --------------------------------------------
      LOOP:  cpu time    1.4154: real time    1.4181

 eigenvalue-minimisations  :  1974
 total energy-change (2. order) :-0.4368296E-04  (-0.8307486E-06)
 number of electron      20.0000001 magnetization 
 augmentation part       -4.4790345 magnetization 

 Broyden mixing:
  rms(total) = 0.11598E-03    rms(broyden)= 0.11598E-03
  rms(prec ) = 0.21755E-03
  weight for this iteration     100.00

 eigenvalues of (default mixing * dielectric matrix)
  average eigenvalue GAMMA=   2.2821
  6.7982  4.5210  2.6495  2.6495  2.2553  1.1490  1.1490  1.1928  0.9405  0.9405
  0.8577

 Free energy of the ion-electron system (eV)
  ---------------------------------------------------
  alpha Z        PSCENC =         9.41011638
  Ewald energy   TEWEN  =      1136.82591580
  -Hartree energ DENC   =     -1759.13423683
  -exchange      EXHF   =         0.00000000
  -V(xc)+E(xc)   XCENC  =      -237.64607723
  PAW double counting   =      1133.16770267     -858.25824993
  entropy T*S    EENTRO =        -0.00000000
  eigenvalues    EBANDS =      -143.05473057
  atomic energy  EATOM  =       702.42789710
  Solvation  Ediel_sol  =         0.00000000
  ---------------------------------------------------
  free energy    TOTEN  =       -16.26166261 eV

  energy without entropy =      -16.26166261  energy(sigma->0) =      -16.26166261


--------------------------------------------------------------------------------------------------------




--------------------------------------- Iteration      1(  17)  ---------------------------------------


    POTLOK:  cpu time    0.0362: real time    0.0367
    SETDIJ:  cpu time    0.0031: real time    0.0043
     EDDAV:  cpu time    1.1872: real time    1.1892
       DOS:  cpu time    0.0019: real time    0.0019
    CHARGE:  cpu time    0.1114: real time    0.1115
    MIXING:  cpu time    0.0016: real time    0.0016
    --------------------------------------------
      LOOP:  cpu time    1.3415: real time    1.3453

 eigenvalue-minimisations  :  1806
 total energy-change (2. order) :-0.2302899E-04  (-0.1049560E-06)
 number of electron      20.0000001 magnetization 
 augmentation part       -4.4790159 magnetization 

 Broyden mixing:
  rms(total) = 0.11359E-03    rms(broyden)= 0.11359E-03
  rms(prec ) = 0.17553E-03
  weight for this iteration     100.00

 eigenvalues of (default mixing * dielectric matrix)
  average eigenvalue GAMMA=   2.4024
  6.9865  5.2220  2.9483  2.9483  2.3503  2.0249  1.1447  1.1447  0.9215  0.9748
  1.0815  1.0815

 Free energy of the ion-electron system (eV)
  ---------------------------------------------------
  alpha Z        PSCENC =         9.41011638
  Ewald energy   TEWEN  =      1136.82591580
  -Hartree energ DENC   =     -1759.14987106
  -exchange      EXHF   =         0.00000000
  -V(xc)+E(xc)   XCENC  =      -237.64594383
  PAW double counting   =      1133.22116471     -858.31179926
  entropy T*S    EENTRO =        -0.00000000
  eigenvalues    EBANDS =      -143.03916547
  atomic energy  EATOM  =       702.42789710
  Solvation  Ediel_sol  =         0.00000000
  ---------------------------------------------------
  free energy    TOTEN  =       -16.26168564 eV

  energy without entropy =      -16.26168564  energy(sigma->0) =      -16.26168564


--------------------------------------------------------------------------------------------------------




--------------------------------------- Iteration      1(  18)  ---------------------------------------


    POTLOK:  cpu time    0.0362: real time    0.0367
    SETDIJ:  cpu time    0.0030: real time    0.0030
     EDDAV:  cpu time    1.3023: real time    1.3043
       DOS:  cpu time    0.0018: real time    0.0018
    CHARGE:  cpu time    0.1113: real time    0.1114
    MIXING:  cpu time    0.0016: real time    0.0016
    --------------------------------------------
      LOOP:  cpu time    1.4563: real time    1.4588

 eigenvalue-minimisations  :  2080
 total energy-change (2. order) :-0.3796312E-04  (-0.3900162E-06)
 number of electron      20.0000001 magnetization 
 augmentation part       -4.4790054 magnetization 

 Broyden mixing:
  rms(total) = 0.56967E-04    rms(broyden)= 0.56967E-04
  rms(prec ) = 0.72867E-04
  weight for this iteration     100.00

 eigenvalues of (default mixing * dielectric matrix)
  average eigenvalue GAMMA=   2.3573
  7.1118  5.4726  2.9973  2.8109  2.5831  2.0282  1.3368  1.1566  1.1566  0.9087
  0.9682  1.0574  1.0574

 Free energy of the ion-electron system (eV)
  ---------------------------------------------------
  alpha Z        PSCENC =         9.41011638
  Ewald energy   TEWEN  =      1136.82591580
  -Hartree energ DENC   =     -1759.17262067
  -exchange      EXHF   =         0.00000000
  -V(xc)+E(xc)   XCENC  =      -237.64592231
  PAW double counting   =      1133.22036053     -858.31097722
  entropy T*S    EENTRO =        -0.00000000
  eigenvalues    EBANDS =      -143.01649321
  atomic energy  EATOM  =       702.42789710
  Solvation  Ediel_sol  =         0.00000000
  ---------------------------------------------------
  free energy    TOTEN  =       -16.26172360 eV

  energy without entropy =      -16.26172360  energy(sigma->0) =      -16.26172360


--------------------------------------------------------------------------------------------------------




--------------------------------------- Iteration      1(  19)  ---------------------------------------


    POTLOK:  cpu time    0.0362: real time    0.0367
    SETDIJ:  cpu time    0.0030: real time    0.0030
     EDDAV:  cpu time    1.2181: real time    1.2200
       DOS:  cpu time    0.0018: real time    0.0018
    CHARGE:  cpu time    0.1114: real time    0.1115
    MIXING:  cpu time    0.0018: real time    0.0018
    --------------------------------------------
      LOOP:  cpu time    1.3723: real time    1.3747

 eigenvalue-minimisations  :  1892
 total energy-change (2. order) :-0.6158563E-05  (-0.1726135E-07)
 number of electron      20.0000001 magnetization 
 augmentation part       -4.4790136 magnetization 

 Broyden mixing:
  rms(total) = 0.35438E-04    rms(broyden)= 0.35438E-04
  rms(prec ) = 0.43382E-04
  weight for this iteration     100.00

 eigenvalues of (default mixing * dielectric matrix)
  average eigenvalue GAMMA=   2.5884
  7.5410  7.5410  3.8944  3.0432  2.4213  2.4213  1.9835  1.1487  1.1487  1.0936
  1.0936  0.9318  0.9415  1.0338

 Free energy of the ion-electron system (eV)
  ---------------------------------------------------
  alpha Z        PSCENC =         9.41011638
  Ewald energy   TEWEN  =      1136.82591580
  -Hartree energ DENC   =     -1759.17186246
  -exchange      EXHF   =         0.00000000
  -V(xc)+E(xc)   XCENC  =      -237.64596614
  PAW double counting   =      1133.25796806     -858.34860138
  entropy T*S    EENTRO =        -0.00000000
  eigenvalues    EBANDS =      -143.01719711
  atomic energy  EATOM  =       702.42789710
  Solvation  Ediel_sol  =         0.00000000
  ---------------------------------------------------
  free energy    TOTEN  =       -16.26172976 eV

  energy without entropy =      -16.26172976  energy(sigma->0) =      -16.26172976


--------------------------------------------------------------------------------------------------------




--------------------------------------- Iteration      1(  20)  ---------------------------------------


    POTLOK:  cpu time    0.0361: real time    0.0366
    SETDIJ:  cpu time    0.0030: real time    0.0030
     EDDAV:  cpu time    1.0609: real time    1.0623
       DOS:  cpu time    0.0018: real time    0.0018
    CHARGE:  cpu time    0.1115: real time    0.1115
    MIXING:  cpu time    0.0018: real time    0.0017
    --------------------------------------------
      LOOP:  cpu time    1.2151: real time    1.2170

 eigenvalue-minimisations  :  1544
 total energy-change (2. order) :-0.5963800E-05  (-0.3304066E-07)
 number of electron      20.0000001 magnetization 
 augmentation part       -4.4790146 magnetization 

 Broyden mixing:
  rms(total) = 0.19046E-04    rms(broyden)= 0.19046E-04
  rms(prec ) = 0.21434E-04
  weight for this iteration     100.00

 eigenvalues of (default mixing * dielectric matrix)
  average eigenvalue GAMMA=   2.5638
  7.7749  7.7749  4.0000  3.0227  2.3196  2.3196  2.1876  1.6550  1.1444  1.1444
  0.9149  1.0946  1.0946  1.0051  1.0051

 Free energy of the ion-electron system (eV)
  ---------------------------------------------------
  alpha Z        PSCENC =         9.41011638
  Ewald energy   TEWEN  =      1136.82591580
  -Hartree energ DENC   =     -1759.17599549
  -exchange      EXHF   =         0.00000000
  -V(xc)+E(xc)   XCENC  =      -237.64596654
  PAW double counting   =      1133.23394620     -858.32454824
  entropy T*S    EENTRO =        -0.00000000
  eigenvalues    EBANDS =      -143.01310092
  atomic energy  EATOM  =       702.42789710
  Solvation  Ediel_sol  =         0.00000000
  ---------------------------------------------------
  free energy    TOTEN  =       -16.26173573 eV

  energy without entropy =      -16.26173573  energy(sigma->0) =      -16.26173573


--------------------------------------------------------------------------------------------------------




--------------------------------------- Iteration      1(  21)  ---------------------------------------


    POTLOK:  cpu time    0.0363: real time    0.0368
    SETDIJ:  cpu time    0.0031: real time    0.0031
     EDDAV:  cpu time    1.1800: real time    1.1812
       DOS:  cpu time    0.0018: real time    0.0017
    --------------------------------------------
      LOOP:  cpu time    1.2211: real time    1.2228

 eigenvalue-minimisations  :  1802
 total energy-change (2. order) :-0.6854513E-06  (-0.3216141E-08)
 number of electron      20.0000001 magnetization 
 augmentation part       -4.4790146 magnetization 

 Free energy of the ion-electron system (eV)
  ---------------------------------------------------
  alpha Z        PSCENC =         9.41011638
  Ewald energy   TEWEN  =      1136.82591580
  -Hartree energ DENC   =     -1759.17735357
  -exchange      EXHF   =         0.00000000
  -V(xc)+E(xc)   XCENC  =      -237.64594754
  PAW double counting   =      1133.23026903     -858.32087112
  entropy T*S    EENTRO =        -0.00000000
  eigenvalues    EBANDS =      -143.01176249
  atomic energy  EATOM  =       702.42789710
  Solvation  Ediel_sol  =         0.00000000
  ---------------------------------------------------
  free energy    TOTEN  =       -16.26173641 eV

  energy without entropy =      -16.26173641  energy(sigma->0) =      -16.26173641


--------------------------------------------------------------------------------------------------------




 average (electrostatic) potential at core
  the test charge radii are     1.4072  1.0808
  (the norm of the test charge is              1.0000)
       1 -51.3053       2 -51.3053       3 -59.9639       4 -59.9639
 
 
 
 E-fermi :  -1.5423     XC(G=0):  -3.3243     alpha+bet : -2.6480


 k-point     1 :       0.0000    0.0000    0.0000
  band No.  band energies     occupation 
      1     -15.2957      2.00000
      2     -14.3196      2.00000
      3      -8.3081      2.00000
      4      -7.3386      2.00000
      5      -5.4209      2.00000
      6      -5.1155      2.00000
      7      -4.9867      2.00000
      8      -3.8737      2.00000
      9      -3.8072      2.00000
     10      -2.6523      2.00000
     11      -0.4867      0.00000
     12       1.3283      0.00000
     13       1.7676      0.00000
     14       1.9096      0.00000

 k-point     2 :       0.0667    0.0000    0.0000
  band No.  band energies     occupation 
      1     -15.2781      2.00000
      2     -14.3180      2.00000
      3      -8.3751      2.00000
      4      -7.4183      2.00000
      5      -5.4213      2.00000
      6      -5.0438      2.00000
      7      -4.9570      2.00000
      8      -3.7874      2.00000
      9      -3.7647      2.00000
     10      -2.6711      2.00000
     11      -0.4748      0.00000
     12       1.3741      0.00000
     13       1.6080      0.00000
     14       1.8815      0.00000

 k-point     3 :       0.1333    0.0000    0.0000
  band No.  band energies     occupation 
      1     -15.2265      2.00000
[...]
      3      -8.8753      2.00000
      4      -8.5124      2.00000
      5      -6.1651      2.00000
      6      -4.9903      2.00000
      7      -4.8446      2.00000
      8      -3.9081      2.00000
      9      -3.8054      2.00000
     10      -2.7489      2.00000
     11      -0.2734      0.00000
     12       0.6945      0.00000
     13       0.9823      0.00000
     14       1.5006      0.00000

 k-point    46 :       0.3333    0.3333    0.0000
  band No.  band energies     occupation 
      1     -14.6143      2.00000
      2     -14.3138      2.00000
      3      -8.7692      2.00000
      4      -8.5113      2.00000
      5      -6.3562      2.00000
      6      -5.2087      2.00000
      7      -5.0169      2.00000
      8      -4.0985      2.00000
      9      -3.9778      2.00000
     10      -3.0840      2.00000
     11       0.1227      0.00000
     12       1.0833      0.00000
     13       1.4327      0.00000
     14       1.6862      0.00000

 k-point    47 :       0.4000    0.3333    0.0000
  band No.  band energies     occupation 
      1     -14.5249      2.00000
      2     -14.3360      2.00000
      3      -8.6810      2.00000
      4      -8.5308      2.00000
      5      -6.3807      2.00000
      6      -5.5977      2.00000
      7      -4.9999      2.00000
      8      -4.3612      2.00000
      9      -3.9391      2.00000
     10      -3.3742      2.00000
     11       0.4837      0.00000
     12       1.2905      0.00000
     13       1.5263      0.00000
     14       2.2336      0.00000

 k-point    48 :       0.4667    0.3333    0.0000
  band No.  band energies     occupation 
      1     -14.4440      2.00000
      2     -14.3795      2.00000
      3      -8.6156      2.00000
      4      -8.5669      2.00000
      5      -6.2408      2.00000
      6      -5.9646      2.00000
      7      -4.8669      2.00000
      8      -4.6388      2.00000
      9      -3.7986      2.00000
     10      -3.6076      2.00000
     11       0.7978      0.00000
     12       1.0698      0.00000
     13       1.9313      0.00000
     14       2.2223      0.00000

 k-point    49 :       0.0000    0.4000    0.0000
  band No.  band energies     occupation 
      1     -14.7486      2.00000
      2     -14.3943      2.00000
      3      -9.2363      2.00000
      4      -8.8768      2.00000
      5      -4.8038      2.00000
      6      -4.3166      2.00000
      7      -4.0956      2.00000
      8      -3.6331      2.00000
      9      -2.8972      2.00000
     10      -2.2123      2.00000
     11      -1.0445      0.00000
     12      -0.0812      0.00000
     13      -0.0307      0.00000
     14       0.3318      0.00000

 k-point    50 :       0.0667    0.4000    0.0000
  band No.  band energies     occupation 
      1     -14.7370      2.00000
      2     -14.3891      2.00000
      3      -9.2107      2.00000
      4      -8.8592      2.00000
      5      -4.8004      2.00000
      6      -4.6498      2.00000
      7      -3.9878      2.00000
      8      -3.8070      2.00000
      9      -2.7334      2.00000
     10      -2.4719      2.00000
     11      -0.8081      0.00000
     12      -0.4231      0.00000
     13       0.1909      0.00000
     14       0.3656      0.00000

 k-point    51 :       0.1333    0.4000    0.0000
  band No.  band energies     occupation 
      1     -14.7033      2.00000
      2     -14.3749      2.00000
      3      -9.1356      2.00000
      4      -8.8087      2.00000
      5      -5.1603      2.00000
      6      -4.8023      2.00000
      7      -4.1899      2.00000
      8      -3.9575      2.00000
      9      -3.0031      2.00000
     10      -2.5732      2.00000
     11      -0.6603      0.00000
     12      -0.2374      0.00000
     13       0.4777      0.00000
     14       0.7337      0.00000

 k-point    52 :       0.2000    0.4000    0.0000
  band No.  band energies     occupation 
      1     -14.6509      2.00000
      2     -14.3553      2.00000
      3      -9.0161      2.00000
      4      -8.7313      2.00000
      5      -5.6539      2.00000
      6      -4.8683      2.00000
      7      -4.5876      2.00000
      8      -4.0038      2.00000
      9      -3.5252      2.00000
     10      -2.7657      2.00000
     11      -0.4054      0.00000
     12       0.4695      0.00000
     13       0.6828      0.00000
     14       1.1818      0.00000

 k-point    53 :       0.2667    0.4000    0.0000
  band No.  band energies     occupation 
      1     -14.5854      2.00000
      2     -14.3361      2.00000
      3      -8.8629      2.00000
      4      -8.6381      2.00000
      5      -6.0690      2.00000
      6      -5.1332      2.00000
      7      -4.8685      2.00000
      8      -4.1396      2.00000
      9      -3.8595      2.00000
     10      -3.1075      2.00000
     11       0.0594      0.00000
     12       1.0178      0.00000
     13       1.0920      0.00000
     14       1.5123      0.00000

 k-point    54 :       0.3333    0.4000    0.0000
  band No.  band energies     occupation 
      1     -14.5142      2.00000
      2     -14.3242      2.00000
      3      -8.6961      2.00000
      4      -8.5444      2.00000
      5      -6.3662      2.00000
      6      -5.5181      2.00000
      7      -5.0883      2.00000
      8      -4.3882      2.00000
      9      -3.9492      2.00000
     10      -3.3781      2.00000
     11       0.4667      0.00000
     12       1.2819      0.00000
     13       1.4904      0.00000
     14       2.1172      0.00000

 k-point    55 :       0.4000    0.4000    0.0000
  band No.  band energies     occupation 
      1     -14.4456      2.00000
      2     -14.3263      2.00000
      3      -8.5478      2.00000
      4      -8.4689      2.00000
      5      -6.5094      2.00000
      6      -5.9190      2.00000
      7      -5.1966      2.00000
      8      -4.6973      2.00000
      9      -3.9025      2.00000
     10      -3.5542      2.00000
     11       0.7772      0.00000
     12       1.2797      0.00000
     13       1.9854      0.00000
     14       2.5906      0.00000

 k-point    56 :       0.4667    0.4000    0.0000
  band No.  band energies     occupation 
      1     -14.3879      2.00000
      2     -14.3472      2.00000
      3      -8.4544      2.00000
      4      -8.4320      2.00000
      5      -6.4718      2.00000
      6      -6.2597      2.00000
      7      -5.1539      2.00000
      8      -4.9745      2.00000
      9      -3.8043      2.00000
     10      -3.6871      2.00000
     11       1.0165      0.00000
     12       1.1866      0.00000
     13       2.3647      0.00000
     14       2.5900      0.00000

 k-point    57 :       0.0000    0.4667    0.0000
  band No.  band energies     occupation 
      1     -14.6063      2.00000
      2     -14.4845      2.00000
      3      -9.2183      2.00000
      4      -9.0948      2.00000
      5      -4.5674      2.00000
      6      -4.3650      2.00000
      7      -3.9279      2.00000
      8      -3.7436      2.00000
      9      -2.6536      2.00000
     10      -2.3403      2.00000
     11      -0.9438      0.00000
     12      -0.5280      0.00000
     13      -0.0862      0.00000
     14       0.1089      0.00000

 k-point    58 :       0.0667    0.4667    0.0000
  band No.  band energies     occupation 
      1     -14.5969      2.00000
      2     -14.4773      2.00000
      3      -9.1920      2.00000
      4      -9.0713      2.00000
      5      -4.5851      2.00000
      6      -4.4874      2.00000
      7      -4.0523      2.00000
      8      -3.9361      2.00000
      9      -2.5790      2.00000
     10      -2.4834      2.00000
     11      -0.8474      0.00000
     12      -0.7313      0.00000
     13       0.2489      0.00000
     14       0.5502      0.00000

 k-point    59 :       0.1333    0.4667    0.0000
  band No.  band energies     occupation 
      1     -14.5697      2.00000
      2     -14.4568      2.00000
      3      -9.1144      2.00000
      4      -9.0022      2.00000
      5      -4.8896      2.00000
      6      -4.7041      2.00000
      7      -4.2779      2.00000
      8      -4.1559      2.00000
      9      -2.9100      2.00000
     10      -2.7145      2.00000
     11      -0.6036      0.00000
     12      -0.3875      0.00000
     13       0.7753      0.00000
     14       0.8440      0.00000

 k-point    60 :       0.2000    0.4667    0.0000
  band No.  band energies     occupation 
      1     -14.5283      2.00000
      2     -14.4268      2.00000
      3      -8.9895      2.00000
      4      -8.8920      2.00000
      5      -5.3802      2.00000
      6      -5.0632      2.00000
      7      -4.4699      2.00000
      8      -4.2385      2.00000
      9      -3.3837      2.00000
     10      -3.0961      2.00000
     11      -0.1005      0.00000
     12       0.2473      0.00000
     13       0.9793      0.00000
     14       1.2008      0.00000

 k-point    61 :       0.2667    0.4667    0.0000
  band No.  band energies     occupation 
      1     -14.4782      2.00000
      2     -14.3927      2.00000
      3      -8.8261      2.00000
      4      -8.7498      2.00000
      5      -5.8327      2.00000
      6      -5.4984      2.00000
      7      -4.6711      2.00000
      8      -4.4108      2.00000
      9      -3.6974      2.00000
     10      -3.4337      2.00000
     11       0.4189      0.00000
     12       0.7770      0.00000
     13       1.3405      0.00000
     14       1.5748      0.00000

 k-point    62 :       0.3333    0.4667    0.0000
  band No.  band energies     occupation 
      1     -14.4267      2.00000
      2     -14.3616      2.00000
      3      -8.6413      2.00000
      4      -8.5917      2.00000
      5      -6.1996      2.00000
      6      -5.8958      2.00000
      7      -4.9552      2.00000
      8      -4.7003      2.00000
      9      -3.8029      2.00000
     10      -3.6095      2.00000
     11       0.7767      0.00000
     12       1.0527      0.00000
     13       1.8573      0.00000
     14       2.1142      0.00000

 k-point    63 :       0.4000    0.4667    0.0000
  band No.  band energies     occupation 
      1     -14.3816      2.00000
      2     -14.3407      2.00000
      3      -8.4675      2.00000
      4      -8.4446      2.00000
      5      -6.4472      2.00000
      6      -6.2254      2.00000
      7      -5.1941      2.00000
      8      -5.0049      2.00000
      9      -3.8018      2.00000
     10      -3.6842      2.00000
     11       1.0101      0.00000
     12       1.1809      0.00000
     13       2.3377      0.00000
     14       2.5562      0.00000

 k-point    64 :       0.4667    0.4667    0.0000
  band No.  band energies     occupation 
      1     -14.3497      2.00000
      2     -14.3358      2.00000
      3      -8.3558      2.00000
      4      -8.3508      2.00000
      5      -6.5397      2.00000
      6      -6.4566      2.00000
      7      -5.2916      2.00000
      8      -5.2214      2.00000
      9      -3.7678      2.00000
     10      -3.7281      2.00000
     11       1.1568      0.00000
     12       1.2147      0.00000
     13       2.6209      0.00000
     14       2.7323      0.00000


--------------------------------------------------------------------------------------------------------


 soft charge-density along one line, spin component           1
         0         1         2         3         4         5         6         7         8         9
 total charge-density along one line
 
 pseudopotential strength for first ion, spin component:           1
 30.103 -23.447  -0.000  -0.090   0.040  -0.000  -0.142   0.062
-23.447  28.125   0.000   0.051  -0.022   0.000   0.083  -0.036
 -0.000   0.000   6.335  -0.000   0.000   9.801  -0.000   0.000
 -0.090   0.051  -0.000   6.332   0.002  -0.000   9.796   0.003
  0.040  -0.022   0.000   0.002   6.334   0.000   0.003   9.800
 -0.000   0.000   9.801  -0.000   0.000  15.233  -0.000   0.000
 -0.142   0.083  -0.000   9.796   0.003  -0.000  15.226   0.004
  0.062  -0.036   0.000   0.003   9.800   0.000   0.004  15.231
  0.000  -0.000   0.008   0.000  -0.000   0.013   0.000  -0.000
 -0.000   0.000  -0.020  -0.000   0.000  -0.031  -0.000   0.000
 -0.003   0.004  -0.000  -0.023  -0.005  -0.000  -0.035  -0.007
  0.003  -0.002   0.000   0.009  -0.020   0.000   0.015  -0.031
 -0.001   0.000   0.000  -0.000   0.010   0.000  -0.000   0.015
 total augmentation occupancy for first ion, spin component:           1
  2.023  -0.015   0.000   0.239  -0.101  -0.000  -0.043   0.019   0.000   0.000   0.022   0.003  -0.000
 -0.015   0.009   0.000  -0.073   0.031   0.000   0.019  -0.007  -0.000   0.000  -0.002   0.001  -0.001
  0.000   0.000   1.507  -0.000   0.000  -0.405   0.000   0.000   0.141  -0.044  -0.000   0.000   0.000
  0.239  -0.073   0.000   1.843   0.002   0.000  -0.485  -0.017   0.000   0.000  -0.266  -0.022  -0.001
 -0.101   0.031  -0.000   0.002   1.486   0.000  -0.017  -0.392   0.000  -0.000  -0.091  -0.047  -0.007
 -0.000   0.000  -0.405   0.000   0.000   0.117   0.000  -0.000  -0.038   0.012   0.000   0.000   0.000
 -0.043   0.019   0.000  -0.485  -0.017   0.000   0.139   0.008   0.000   0.000   0.074   0.006   0.000
  0.019  -0.007  -0.000  -0.017  -0.392   0.000   0.008   0.112   0.000   0.000   0.024   0.013   0.002
  0.000   0.000   0.141   0.000   0.000  -0.038   0.000   0.000   0.074   0.000   0.000  -0.000  -0.000
  0.000   0.000  -0.044   0.000   0.000   0.012   0.000  -0.000   0.000   0.021   0.000   0.000   0.000
  0.022  -0.002   0.000  -0.266  -0.091   0.000   0.074   0.024   0.000   0.000   0.077   0.007   0.002
  0.003   0.001   0.000  -0.022  -0.047   0.000   0.006   0.013  -0.000  -0.000   0.007   0.022   0.001
 -0.000  -0.001   0.000  -0.001  -0.007   0.000   0.000   0.002   0.000  -0.000   0.002   0.001   0.017


------------------------ aborting loop because EDIFF is reached ----------------------------------------


    CHARGE:  cpu time    0.1123: real time    0.1136
    FORLOC:  cpu time    0.0018: real time    0.0018
    FORNL :  cpu time    0.1772: real time    0.1773
    STRESS:  cpu time    0.3443: real time    0.3449
    FORCOR:  cpu time    0.0384: real time    0.0384
    FORHAR:  cpu time    0.0099: real time    0.0099
    MIXING:  cpu time    0.0009: real time    0.0009
    OFIELD:  cpu time    0.0000: real time    0.0000

  FORCE on cell =-STRESS in cart. coord.  units (eV):
  Direction    XX          YY          ZZ          XY          YZ          ZX
  --------------------------------------------------------------------------------------
  Alpha Z     9.41012     9.41012     9.41012
  Ewald    1589.29876  1595.17382 -2045.47973     0.00000     0.00000     0.00000
  Hartree  1711.57536  1713.88091 -1664.37873    -0.00000    -0.00000     0.00000
  E(xc)     -77.62993   -77.64969   -78.83954     0.00000    -0.00000     0.00000
  Local   -3553.56531 -3561.00910  3455.10084     0.00000     0.00000     0.00000
  n-local   162.42416   162.66566   167.15712    -0.32778     0.00000     0.00000
  augment   -31.87658   -31.80679   -32.80248     0.00000     0.00000     0.00000
  Kinetic   190.12071   189.13580   189.83497     5.37704    -0.00000    -0.00000
  Fock        0.00000     0.00000     0.00000     0.00000     0.00000     0.00000
  -------------------------------------------------------------------------------------
  Total      -0.24271    -0.19928     0.00256     0.00000     0.00000     0.00000
  in kB      -1.02337    -0.84024     0.01079     0.00000     0.00000     0.00000
  external pressure =       -0.62 kB  Pullay stress =        0.00 kB


 VOLUME and BASIS-vectors are now :
 -----------------------------------------------------------------------------
  energy-cutoff  :      600.00
  volume of cell :      379.99
      direct lattice vectors                 reciprocal lattice vectors
     4.426180333  0.000000000  0.000000000     0.225928436  0.000000000  0.000000000
     0.000000000  4.292477857  0.000000000     0.000000000  0.232965675  0.000000000
     0.000000000  0.000000000 20.000000000     0.000000000  0.000000000  0.050000000

  length of vectors
     4.426180333  4.292477857 20.000000000     0.225928436  0.232965675  0.050000000


 FORCES acting on ions
    electron-ion (+dipol)            ewald-force                    non-local-force                 convergence-correction
 -----------------------------------------------------------------------------------------------
   0.500E+01 0.406E-13 -.143E+03   -.672E+01 -.185E-14 0.147E+03   0.172E+01 0.278E-16 -.383E+01   -.179E-03 -.128E-13 0.540E-03
   0.500E+01 0.331E-14 0.143E+03   -.672E+01 -.111E-14 -.147E+03   0.172E+01 0.278E-16 0.383E+01   -.179E-03 0.227E-13 -.540E-03
   -.621E+01 0.683E-13 -.204E+03   0.672E+01 0.216E-14 0.206E+03   -.520E+00 0.278E-16 -.204E+01   0.481E-02 0.179E-13 0.253E-02
   -.621E+01 0.325E-12 0.204E+03   0.672E+01 -.172E-16 -.206E+03   -.520E+00 0.278E-16 0.204E+01   0.481E-02 -.913E-13 -.253E-02
 -----------------------------------------------------------------------------------------------
   -.241E+01 0.437E-12 -.657E-06   0.000E+00 -.812E-15 0.000E+00   0.240E+01 0.111E-15 0.000E+00   0.926E-02 -.635E-13 -.130E-10
 
 
 POSITION                                       TOTAL-FORCE (eV/Angst)
 -----------------------------------------------------------------------------------
      2.59129      3.21936     11.37625        -0.000003     -0.000000      0.000712
      0.37820      1.07312      8.62375        -0.000003     -0.000000     -0.000712
      0.12685      1.07312     11.33636         0.000003      0.000000      0.000112
      2.33994      3.21936      8.66364         0.000003     -0.000000     -0.000112
 -----------------------------------------------------------------------------------
    total drift:                                0.000635      0.000000     -0.000001


--------------------------------------------------------------------------------------------------------



  FREE ENERGIE OF THE ION-ELECTRON SYSTEM (eV)
  ---------------------------------------------------
  free  energy   TOTEN  =       -16.26315449 eV

  energy  without entropy=      -16.26315449  energy(sigma->0) =      -16.26315449
 
 d Force = 0.5766845E-05[ 0.566E-06, 0.110E-04]  d Energy = 0.6631973E-05-0.865E-06
 d Force =-0.7901188E-01[-0.791E-01,-0.789E-01]  d Ewald  =-0.7901190E-01 0.197E-07


--------------------------------------------------------------------------------------------------------


    POTLOK:  cpu time    0.0393: real time    0.0394


--------------------------------------------------------------------------------------------------------




--------------------------------------------------------------------------------------------------------


  
 reached required accuracy - stopping structural energy minimisation
 writing wavefunctions
     LOOP+:  cpu time    5.6285: real time    5.8457
    4ORBIT:  cpu time    0.0000: real time    0.0000

 total amount of memory used by VASP MPI-rank0    52213. kBytes
=======================================================================

   base      :      30000. kBytes
   nonl-proj :       7236. kBytes
   fftplans  :       2678. kBytes
   grid      :       4349. kBytes
   one-center:          8. kBytes
   wavefun   :       7942. kBytes
 
  
  
 General timing and accounting informations for this job:
 ========================================================
  
                  Total CPU time used (sec):      127.856
                            User time (sec):      127.111
                          System time (sec):        0.745
                         Elapsed time (sec):      135.522
  
                   Maximum memory used (kb):      201048.
                   Average memory used (kb):           0.
  
                          Minor page faults:       106780
                          Major page faults:          604
                 Voluntary context switches:         8379
