LAMMPS (29 Sep 2021)
Running on 7 partitions of processors
Step MaxReplicaForce MaxAtomForce GradV0 GradV1 GradVc EBF EBR RDT RD1 PE1 RD2 PE2 ... RDN PEN
0    10225.669    20579.298    37.617078     7158.335    9814.9165    156840.88    106039.98    96.788565            0   -963406.55   0.16666667   -876509.61   0.33333333   -822533.82          0.5   -806565.66   0.66666667   -810074.68   0.83333333    -852709.5            1   -912605.64 
100    1764.8081    499.09587    10.074764     318.5232    1194.9455      84366.1    47671.415    113.45944            0   -963408.39   0.19817278   -930038.43   0.34612273   -884946.74   0.49350635      -881597   0.63920559   -879042.29   0.80079626   -894343.74            1    -926713.7 
200     740.0437    1633.3878    1.1033345    40.129946    310.43064     76941.21     40726.24    134.23162            0   -963408.84   0.22229402   -937570.67   0.35078568   -895695.12   0.49701637   -888113.56   0.62238838   -886467.63    0.7773806   -906470.87            1   -927193.87 
300    868.87081    1332.3386   0.15271043    6.4291056     215.0348    76238.153     40031.06    143.46728            0   -963408.85   0.22548664    -938403.7   0.36657696   -902876.49   0.51273134   -888558.08   0.63104637    -887170.7   0.78672489   -908850.31            1   -927201.76 
400    386.58718    1565.0994  0.024612152    1.0367752    181.47988    75890.826    39683.952    149.70351            0   -963408.85   0.22343891   -939495.44    0.3827639   -907348.87   0.52457449   -888608.91   0.63876141   -887518.02   0.79821854   -910250.41            1   -927201.97 
500    356.31008    1173.6152  0.049122501   0.26283982    160.04772    75606.096    39399.229     152.6924            0   -963408.85   0.22003433   -940802.71   0.37955868   -909808.94   0.51889449   -888614.67   0.63145911   -887802.75   0.79814933   -913444.13            1   -927201.98 
600    148.75238    1071.3674 0.0086720613   0.16357651     132.8104    75330.028    39123.162    155.02409            0   -963408.85   0.21711941   -941850.45   0.37548416   -910130.29   0.51271191   -888615.49    0.6240477   -888078.82    0.7993377      -914369            1   -927201.98 
700    130.55718    1581.8848  0.010849864   0.15054053    118.70418    75217.073    39010.207     155.8636            0   -963408.85   0.21616199   -941988.27   0.37387266   -910168.92   0.51032107   -888615.59   0.62121907   -888191.78   0.80073544   -914544.39            1   -927201.98 
739    113.22796    846.91163 0.0070361002    0.1473215    114.38041    75185.793    38978.928    156.10961            0   -963408.85   0.21589421   -942030.38   0.37339574   -910177.71   0.50961523    -888615.6   0.62038056   -888223.06   0.80115057   -914586.74            1   -927201.98 
Climbing replica = 5
Step MaxReplicaForce MaxAtomForce GradV0 GradV1 GradVc EBF EBR RDT RD1 PE1 RD2 PE2 ... RDN PEN
739    114.37933     846.8873 0.0095488221   0.14740394    114.37933    75185.792    38978.926    156.10961            0   -963408.85   0.21589421   -942030.38   0.37339574   -910177.71   0.50961523    -888615.6   0.62038056   -888223.06   0.80115057   -914586.74            1   -927201.98 
745     114.3665    844.45264  0.006599312   0.14741016     114.3665    75185.705    38978.841     156.1108            0   -963408.85   0.21589284    -942030.5    0.3733933   -910177.74   0.50961171   -888615.61   0.62037941   -888223.14   0.80115244   -914586.87            1   -927201.98 
