LAMMPS (29 Sep 2021)
Processor partition = 1
# System Setup
    units    real
    dimension   3
    boundary    p p s
    atom_style  charge
    neigh_modify  delay 5
    atom_modify map array sort 0 0.0
    newton      on

# Read Data
    read_data ./image-0.lmp
Reading data file ...
  orthogonal box = (0.0000000 0.0000000 0.0000000) to (253.84801 95.581365 20.000000)
  8 by 2 by 1 MPI processor grid
  reading atoms ...
  8280 atoms
  read_data CPU = 0.051 seconds

# Force field setup
    pair_style reaxff NULL
    pair_coeff * * ./H-S-Mo.reaxff Mo S
    mass 1 95.75
    mass 2 32.06

# Molecular Static run setup
timestep 0.25  # metal 1=1ps; real 1=1fs

# Charge equllibrium step
    fix 0 all qeq/reaxff 1 0.0 10.0 1.0e-6 reaxff  # Charge equillibrium at each step

# Minimization
    thermo 10
    fix 1 all box/relax x 0.0 y 0.0 vmax 0.01
    thermo_style custom step pe lx ly lz pxx pyy pzz press
    min_style cg
    minimize 1e-10 1e-10 5000 10000

CITE-CITE-CITE-CITE-CITE-CITE-CITE-CITE-CITE-CITE-CITE-CITE-CITE

Your simulation uses code contributions which should be cited:

- pair reaxff command:

@Article{Aktulga12,
 author = {H. M. Aktulga, J. C. Fogarty, S. A. Pandit, A. Y. Grama},
 title = {Parallel reactive molecular dynamics: Numerical methods and algorithmic techniques},
 journal = {Parallel Computing},
 year =    2012,
 volume =  38,
 pages =   {245--259}
}

- fix qeq/reaxff command:

@Article{Aktulga12,
 author = {H. M. Aktulga, J. C. Fogarty, S. A. Pandit, A. Y. Grama},
 title = {Parallel reactive molecular dynamics: Numerical methods and algorithmic techniques},
 journal = {Parallel Computing},
 year =    2012,
 volume =  38,
 pages =   {245--259}
}

CITE-CITE-CITE-CITE-CITE-CITE-CITE-CITE-CITE-CITE-CITE-CITE-CITE

WARNING: Using 'neigh_modify every 1 delay 0 check yes' setting during minimization (../min.cpp:188)
Neighbor list info ...
  update every 1 steps, delay 0 steps, check yes
  max neighbors/atom: 2000, page size: 100000
  master list distance cutoff = 12
  ghost atom cutoff = 12
  binsize = 6, bins = 43 16 1
  2 neighbor lists, perpetual/occasional/extra = 2 0 0
  (1) pair reaxff, perpetual
      attributes: half, newton off, ghost
      pair build: half/bin/newtoff/ghost
      stencil: full/ghost/bin/3d
      bin: standard
  (2) fix qeq/reaxff, perpetual, copy from (1)
      attributes: half, newton off, ghost
      pair build: copy
      stencil: none
      bin: none
Per MPI rank memory allocation (min/avg/max) = 28.83 | 29.17 | 29.50 Mbytes
Step PotEng Lx Ly Lz Pxx Pyy Pzz Press 
       0    -963236.9    253.84801    95.581365     3.191507    16794.306   -11625.094   -3075.8427    697.78964 
      10   -963347.45    254.04634    95.614913    3.1887875   -2254.5022   -12797.206    4731.8188   -3439.9632 
      20   -963379.87    253.95465    95.549377    3.1896444     976.1835   -242.24437   -1414.5988   -226.88657 
      30   -963393.32    253.92703    95.559564     3.189457   -11.186399    170.31794   -955.85544   -265.57463 
      40   -963399.62    253.89098    95.572466    3.1892959    211.31636   -369.31195   -620.31079   -259.43546 
      50   -963403.67    253.93958    95.554191    3.1890773   -3368.2577    2743.2152   -166.52574   -263.85605 
      59   -963406.55    253.83825    95.585517     3.188815    9.2237543    10.105001   -121.64787   -34.106371 
Loop time of 4.29796 on 16 procs for 59 steps with 8280 atoms

99.5% CPU use with 16 MPI tasks x no OpenMP threads

Minimization stats:
  Stopping criterion = energy tolerance
  Energy initial, next-to-last, final = 
     -963236.898696757  -963406.545661106  -963406.545737087
  Force two-norm initial, final = 23080.639 40.668383
  Force max component initial, final = 18966.218 11.411384
  Final line search alpha, max atom move = 0.00017597652 0.0020081358
  Iterations, force evaluations = 59 118

MPI task timing breakdown:
Section |  min time  |  avg time  |  max time  |%varavg| %total
---------------------------------------------------------------
Pair    | 2.5435     | 3.2164     | 3.5861     |  16.1 | 74.84
Neigh   | 0.1797     | 0.20602    | 0.21896    |   2.8 |  4.79
Comm    | 0.015679   | 0.30171    | 1.0554     |  54.7 |  7.02
Output  | 0.00025673 | 0.00026728 | 0.0003166  |   0.0 |  0.01
Modify  | 0.46122    | 0.47416    | 0.50001    |   1.8 | 11.03
Other   |            | 0.09941    |            |       |  2.31

Nlocal:        517.500 ave         540 max         495 min
Histogram: 8 0 0 0 0 0 0 0 0 8
Nghost:        855.000 ave         901 max         810 min
Histogram: 8 0 0 0 0 0 0 0 0 8
Neighs:        50130.5 ave       52057 max       48204 min
Histogram: 8 0 0 0 0 0 0 0 0 8

Total # of neighbors = 802088
Ave neighs/atom = 96.870531
Neighbor list builds = 104
Dangerous builds = 98
    reset_timestep	0
    fix 2 all neb 1.0 parallel ideal
    unfix 1

# NEB
    min_style quickmin
    variable u uloop 200
    dump  1 all atom 10 dump.neb.$u
    dump  1 all atom 10 dump.neb.2
    neb	  1e-6 1e-6 10000 10000 100 final ./image-1.cord
WARNING: Using 'neigh_modify every 1 delay 0 check yes' setting during minimization (../min.cpp:188)
Per MPI rank memory allocation (min/avg/max) = 28.74 | 29.06 | 29.39 Mbytes
Step PotEng Lx Ly Lz Pxx Pyy Pzz Press 
       0   -876509.61    253.83825    95.585517    3.1920923    367900.22   -52027.305    247575.63    187816.18 
      10   -878696.09    253.83825    95.585517    3.1920923     342979.6   -64155.178     269354.6    182726.34 
      20   -884805.56    253.83825    95.585517    3.1920923    277121.31   -88836.208    318291.29     168858.8 
      30   -892553.38    253.83825    95.585517    3.1920923     217547.5   -87860.283    325449.42    151712.21 
      40   -899735.47    253.83825    95.585517    3.1920923    202568.24   -46571.951    252990.78    136329.02 
      50   -905403.67    253.83825    95.585517    3.1920923    226770.12    24602.132    142158.81    131177.02 
      60   -910361.25    253.83825    95.585517    3.1920923       291576    149736.71    15941.024    152417.91 
      70   -915803.93    253.83825    95.585517    3.1920923    379276.98     280282.8   -80854.805    192901.66 
      80   -921209.33    253.83825    95.585517    3.1920923    419428.65    323222.94    -98778.38     214624.4 
      90   -926159.23    253.83825    95.585517    3.1920923    422871.78     327476.4   -95104.349    218414.61 
     100   -930038.43    253.83825    95.585517    3.1920923    412482.65     323487.5   -91062.874    214969.09 
     110   -933145.05    253.83825    95.585517    3.1920923     403951.1    333006.69   -78300.799    219552.33 
     120   -935455.22    253.83825    95.585517    3.1920923    393185.17    345527.48   -68314.779    223465.96 
     130   -936118.29    253.83825    95.585517    3.1920923    370555.46    321578.88   -114664.51    192489.94 
     140   -936407.48    253.83825    95.585517    3.1920923    366422.48    322192.89   -109070.39    193181.66 
     150   -936638.08    253.83825    95.585517    3.1920923       361816    321653.56    -103386.1    193361.15 
     160   -936830.46    253.83825    95.585517    3.1920923    356834.74    319928.67   -97731.202    193010.73 
     170   -937005.33    253.83825    95.585517    3.1920923    351394.99    316359.61   -92350.372    191801.41 
     180   -937170.32    253.83825    95.585517    3.1920923    345990.72    311615.45   -87233.715    190124.15 
     190   -937361.63    253.83825    95.585517    3.1920923    341313.17    307750.69   -81446.919    189205.65 
     200   -937570.67    253.83825    95.585517    3.1920923    336720.93     303478.9   -76611.986    187862.62 
     210   -937756.52    253.83825    95.585517    3.1920923    332295.68    299110.49   -73275.268    186043.63 
     220   -937903.08    253.83825    95.585517    3.1920923    328533.79    295461.54   -70744.911    184416.81 
     230   -938014.36    253.83825    95.585517    3.1920923    325505.47    292510.63   -68913.988    183034.04 
     240   -938094.19    253.83825    95.585517    3.1920923    322923.11     290002.2   -67471.859    181817.81 
     250    -938150.2    253.83825    95.585517    3.1920923    320738.86    287819.39   -66374.943    180727.77 
     260   -938200.57    253.83825    95.585517    3.1920923    318714.26    286138.38   -64983.324    179956.44 
     270   -938249.49    253.83825    95.585517    3.1920923    316354.76    284187.38   -63282.892    179086.42 
     280   -938298.19    253.83825    95.585517    3.1920923    313619.67    281888.04   -61274.033    178077.89 
     290   -938348.27    253.83825    95.585517    3.1920923    310842.33    279526.33   -58818.292    177183.46 
     300    -938403.7    253.83825    95.585517    3.1920923    308249.67    277325.97   -55838.166    176579.16 
     310   -938473.08    253.83825    95.585517    3.1920923    305258.13    274334.68   -52350.768    175747.34 
     320   -938560.16    253.83825    95.585517    3.1920923    302139.21    270468.79   -48472.134    174711.95 
     330   -938659.09    253.83825    95.585517    3.1920923    299249.64    266117.62   -44769.264    173532.67 
     340    -938769.3    253.83825    95.585517    3.1920923    296366.81    260576.21   -41409.969    171844.35 
     350   -938894.28    253.83825    95.585517    3.1920923    293235.21    254154.58    -38134.24    169751.85 
     360   -939009.67    253.83825    95.585517    3.1920923    289531.55    248031.65   -36498.794    167021.47 
     370   -939130.05    253.83825    95.585517    3.1920923    286505.38    243178.07    -34772.53    164970.31 
     380   -939255.59    253.83825    95.585517    3.1920923    283373.65    238722.04   -33344.278    162917.14 
     390   -939379.59    253.83825    95.585517    3.1920923    280434.78     234552.4   -31912.518    161024.89 
     400   -939495.44    253.83825    95.585517    3.1920923    277830.51    230602.83   -30367.698    159355.21 
     410   -939598.17    253.83825    95.585517    3.1920923    275579.62    226838.81   -28598.292    157940.04 
     420   -939689.32    253.83825    95.585517    3.1920923    273722.72    223312.09   -26494.916    156846.63 
     430    -939779.6    253.83825    95.585517    3.1920923    272119.42    219705.55   -24054.393    155923.53 
     440   -939874.62    253.83825    95.585517    3.1920923    270750.06    215989.66   -21528.993    155070.24 
     450   -939976.61    253.83825    95.585517    3.1920923    269663.24    212283.08   -19128.787    154272.51 
     460   -940087.63    253.83825    95.585517    3.1920923    268799.18    208548.21   -17052.399    153431.66 
     470   -940216.11    253.83825    95.585517    3.1920923     268310.6    204739.68   -15156.536    152631.25 
     480   -940375.44    253.83825    95.585517    3.1920923    268246.55    200668.51   -13485.543    151809.84 
     490   -940573.29    253.83825    95.585517    3.1920923    268601.45    196233.89   -11913.236    150974.03 
     500   -940802.71    253.83825    95.585517    3.1920923    269406.03    190509.71   -9895.0671    150006.89 
     510   -941048.82    253.83825    95.585517    3.1920923    269934.84    183575.47   -7952.4328    148519.29 
     520   -941268.01    253.83825    95.585517    3.1920923     270065.7    176653.54   -6585.2223    146711.34 
     530   -941446.56    253.83825    95.585517    3.1920923     269763.7    171076.34   -5568.3716    145090.56 
     540   -941591.22    253.83825    95.585517    3.1920923    269261.11    166281.51   -5059.7632    143494.29 
     550   -941691.59    253.83825    95.585517    3.1920923    268720.79     162469.2   -5370.8174    141939.72 
     560   -941745.31    253.83825    95.585517    3.1920923    268169.27    160012.78   -5770.1939    140803.95 
     570   -941777.52    253.83825    95.585517    3.1920923    267609.23    158714.52   -5742.7495    140193.67 
     580   -941803.99    253.83825    95.585517    3.1920923    266990.67    157859.47   -5558.6263    139763.84 
     590   -941829.06    253.83825    95.585517    3.1920923    266355.92    157171.12   -5323.7256     139401.1 
     600   -941850.45    253.83825    95.585517    3.1920923     265758.4    156577.12   -5099.7252     139078.6 
     610   -941868.73    253.83825    95.585517    3.1920923    265213.87    156075.97   -4867.6096    138807.41 
     620   -941884.47    253.83825    95.585517    3.1920923    264712.01    155677.08   -4610.1134    138592.99 
     630   -941898.76    253.83825    95.585517    3.1920923    264234.28    155304.19   -4371.2464    138389.08 
     640   -941912.08    253.83825    95.585517    3.1920923    263787.56    154971.71   -4140.3391    138206.31 
     650   -941924.65    253.83825    95.585517    3.1920923    263368.18    154663.41   -3926.5989       138035 
     660   -941937.01    253.83825    95.585517    3.1920923    262964.68    154383.46   -3713.8132    137878.11 
     670   -941949.81    253.83825    95.585517    3.1920923    262569.48    154107.31   -3526.0255    137716.92 
     680   -941962.99    253.83825    95.585517    3.1920923    262196.37    153843.87   -3355.5557    137561.56 
     690   -941975.59    253.83825    95.585517    3.1920923    261853.59    153612.04    -3217.471    137416.06 
     700   -941988.27    253.83825    95.585517    3.1920923    261544.89     153403.1   -3103.5405    137281.48 
     710   -942000.72    253.83825    95.585517    3.1920923    261262.19    153210.22   -3017.6796    137151.58 
     720   -942012.17    253.83825    95.585517    3.1920923    261010.34    153041.89   -2960.6548    137030.52 
     730   -942022.14    253.83825    95.585517    3.1920923    260794.78    152908.13    -2917.215    136928.56 
     739   -942030.38    253.83825    95.585517    3.1920923    260619.24     152790.7   -2895.4144    136838.18 
Loop time of 27.0542 on 16 procs for 739 steps with 8280 atoms

99.7% CPU use with 16 MPI tasks x no OpenMP threads

Minimization stats:
  Stopping criterion = energy tolerance
  Energy initial, next-to-last, final = 
     -876509.609967467  -942029.558349657  -942030.382311738
  Force two-norm initial, final = 10225.669 106.08420
  Force max component initial, final = 121.38472 29.101746
  Final line search alpha, max atom move = 0.0000000 0.0000000
  Iterations, force evaluations = 739 739

MPI task timing breakdown:
Section |  min time  |  avg time  |  max time  |%varavg| %total
---------------------------------------------------------------
Pair    | 15.517     | 20.624     | 23.274     |  45.8 | 76.23
Neigh   | 0          | 0          | 0          |   0.0 |  0.00
Comm    | 0.029286   | 2.0782     | 7.7981     | 151.1 |  7.68
Output  | 0.13522    | 0.13531    | 0.13584    |   0.0 |  0.50
Modify  | 3.2921     | 3.9106     | 5.292      |  31.5 | 14.45
Other   |            | 0.3058     |            |       |  1.13

Nlocal:        517.500 ave         540 max         495 min
Histogram: 8 0 0 0 0 0 0 0 0 8
Nghost:        843.750 ave         878 max         810 min
Histogram: 8 0 0 0 0 0 0 0 0 8
Neighs:        49458.5 ave       51367 max       47551 min
Histogram: 8 0 0 0 0 0 0 0 0 8

Total # of neighbors = 791336
Ave neighs/atom = 95.571981
Neighbor list builds = 0
Dangerous builds = 0
WARNING: Using 'neigh_modify every 1 delay 0 check yes' setting during minimization (../min.cpp:188)
Per MPI rank memory allocation (min/avg/max) = 28.74 | 29.06 | 29.39 Mbytes
Step PotEng Lx Ly Lz Pxx Pyy Pzz Press 
     739   -942030.38    253.83825    95.585517    3.3468992    248564.61    145723.55   -2761.4826    130508.89 
     740   -942030.38    253.83825    95.585517    3.3468992    248545.24    145689.62     -2778.55    130485.44 
     745    -942030.5    253.83825    95.585517    3.3468992    248541.42    145690.54   -2776.6779    130485.09 
Loop time of 0.255993 on 16 procs for 6 steps with 8280 atoms

99.6% CPU use with 16 MPI tasks x no OpenMP threads

Minimization stats:
  Stopping criterion = energy tolerance
  Energy initial, next-to-last, final = 
     -942030.382280397  -942030.462748352  -942030.503055513
  Force two-norm initial, final = 106.08370 105.98916
  Force max component initial, final = 29.101328 29.059467
  Final line search alpha, max atom move = 0.0000000 0.0000000
  Iterations, force evaluations = 6 6

MPI task timing breakdown:
Section |  min time  |  avg time  |  max time  |%varavg| %total
---------------------------------------------------------------
Pair    | 0.14401    | 0.19508    | 0.21981    |   4.6 | 76.20
Neigh   | 0          | 0          | 0          |   0.0 |  0.00
Comm    | 0.00026198 | 0.019304   | 0.076196   |  15.3 |  7.54
Output  | 0.0012081  | 0.0012102  | 0.0012178  |   0.0 |  0.47
Modify  | 0.032468   | 0.038348   | 0.052114   |   3.1 | 14.98
Other   |            | 0.002055   |            |       |  0.80

Nlocal:        517.500 ave         540 max         495 min
Histogram: 8 0 0 0 0 0 0 0 0 8
Nghost:        835.000 ave         878 max         808 min
Histogram: 8 0 0 0 0 0 6 0 0 2
Neighs:        49662.2 ave       51716 max       47525 min
Histogram: 8 0 0 0 0 0 0 0 0 8

Total # of neighbors = 794595
Ave neighs/atom = 95.965580
Neighbor list builds = 0
Dangerous builds = 0
Total wall time: 0:00:31
