LAMMPS (29 Sep 2021)
Processor partition = 3
# System Setup
    units    real
    dimension   3
    boundary    p p s
    atom_style  charge
    neigh_modify  delay 5
    atom_modify map array sort 0 0.0
    newton      on

# Read Data
    read_data ./image-0.lmp
Reading data file ...
  orthogonal box = (0.0000000 0.0000000 0.0000000) to (253.84801 95.581365 20.000000)
  8 by 2 by 1 MPI processor grid
  reading atoms ...
  8280 atoms
  read_data CPU = 0.060 seconds

# Force field setup
    pair_style reaxff NULL
    pair_coeff * * ./H-S-Mo.reaxff Mo S
    mass 1 95.75
    mass 2 32.06

# Molecular Static run setup
timestep 0.25  # metal 1=1ps; real 1=1fs

# Charge equllibrium step
    fix 0 all qeq/reaxff 1 0.0 10.0 1.0e-6 reaxff  # Charge equillibrium at each step

# Minimization
    thermo 10
    fix 1 all box/relax x 0.0 y 0.0 vmax 0.01
    thermo_style custom step pe lx ly lz pxx pyy pzz press
    min_style cg
    minimize 1e-10 1e-10 5000 10000

CITE-CITE-CITE-CITE-CITE-CITE-CITE-CITE-CITE-CITE-CITE-CITE-CITE

Your simulation uses code contributions which should be cited:

- pair reaxff command:

@Article{Aktulga12,
 author = {H. M. Aktulga, J. C. Fogarty, S. A. Pandit, A. Y. Grama},
 title = {Parallel reactive molecular dynamics: Numerical methods and algorithmic techniques},
 journal = {Parallel Computing},
 year =    2012,
 volume =  38,
 pages =   {245--259}
}

- fix qeq/reaxff command:

@Article{Aktulga12,
 author = {H. M. Aktulga, J. C. Fogarty, S. A. Pandit, A. Y. Grama},
 title = {Parallel reactive molecular dynamics: Numerical methods and algorithmic techniques},
 journal = {Parallel Computing},
 year =    2012,
 volume =  38,
 pages =   {245--259}
}

CITE-CITE-CITE-CITE-CITE-CITE-CITE-CITE-CITE-CITE-CITE-CITE-CITE

WARNING: Using 'neigh_modify every 1 delay 0 check yes' setting during minimization (../min.cpp:188)
Neighbor list info ...
  update every 1 steps, delay 0 steps, check yes
  max neighbors/atom: 2000, page size: 100000
  master list distance cutoff = 12
  ghost atom cutoff = 12
  binsize = 6, bins = 43 16 1
  2 neighbor lists, perpetual/occasional/extra = 2 0 0
  (1) pair reaxff, perpetual
      attributes: half, newton off, ghost
      pair build: half/bin/newtoff/ghost
      stencil: full/ghost/bin/3d
      bin: standard
  (2) fix qeq/reaxff, perpetual, copy from (1)
      attributes: half, newton off, ghost
      pair build: copy
      stencil: none
      bin: none
Per MPI rank memory allocation (min/avg/max) = 28.83 | 29.17 | 29.50 Mbytes
Step PotEng Lx Ly Lz Pxx Pyy Pzz Press 
       0    -963236.9    253.84801    95.581365     3.191507    16794.306   -11625.094   -3075.8427    697.78964 
      10   -963347.45    254.04634    95.614913    3.1887875   -2254.5022   -12797.206    4731.8188   -3439.9632 
      20   -963379.87    253.95465    95.549377    3.1896444     976.1835   -242.24437   -1414.5988   -226.88657 
      30   -963393.32    253.92703    95.559564     3.189457   -11.186399    170.31794   -955.85544   -265.57463 
      40   -963399.62    253.89098    95.572466    3.1892959    211.31636   -369.31195   -620.31079   -259.43546 
      50   -963403.67    253.93958    95.554191    3.1890773   -3368.2577    2743.2152   -166.52574   -263.85605 
      59   -963406.55    253.83825    95.585517     3.188815    9.2237543    10.105001   -121.64787   -34.106371 
Loop time of 4.08217 on 16 procs for 59 steps with 8280 atoms

99.6% CPU use with 16 MPI tasks x no OpenMP threads

Minimization stats:
  Stopping criterion = energy tolerance
  Energy initial, next-to-last, final = 
     -963236.898696757  -963406.545661106  -963406.545737087
  Force two-norm initial, final = 23080.639 40.668383
  Force max component initial, final = 18966.218 11.411384
  Final line search alpha, max atom move = 0.00017597652 0.0020081358
  Iterations, force evaluations = 59 118

MPI task timing breakdown:
Section |  min time  |  avg time  |  max time  |%varavg| %total
---------------------------------------------------------------
Pair    | 2.5693     | 3.1224     | 3.4507     |  14.9 | 76.49
Neigh   | 0.17994    | 0.20054    | 0.21405    |   2.4 |  4.91
Comm    | 0.010993   | 0.2746     | 0.89861    |  51.1 |  6.73
Output  | 0.00025767 | 0.00026358 | 0.00030869 |   0.0 |  0.01
Modify  | 0.38358    | 0.39768    | 0.41792    |   1.7 |  9.74
Other   |            | 0.08668    |            |       |  2.12

Nlocal:        517.500 ave         540 max         495 min
Histogram: 8 0 0 0 0 0 0 0 0 8
Nghost:        855.000 ave         901 max         810 min
Histogram: 8 0 0 0 0 0 0 0 0 8
Neighs:        50130.5 ave       52057 max       48204 min
Histogram: 8 0 0 0 0 0 0 0 0 8

Total # of neighbors = 802088
Ave neighs/atom = 96.870531
Neighbor list builds = 104
Dangerous builds = 98
    reset_timestep	0
    fix 2 all neb 1.0 parallel ideal
    unfix 1

# NEB
    min_style quickmin
    variable u uloop 200
    dump  1 all atom 10 dump.neb.$u
    dump  1 all atom 10 dump.neb.4
    neb	  1e-6 1e-6 10000 10000 100 final ./image-1.cord
WARNING: Using 'neigh_modify every 1 delay 0 check yes' setting during minimization (../min.cpp:188)
Per MPI rank memory allocation (min/avg/max) = 28.71 | 29.04 | 29.38 Mbytes
Step PotEng Lx Ly Lz Pxx Pyy Pzz Press 
       0   -806565.66    253.83825    95.585517    3.1998933     355457.8   -36270.984    83087.132    134091.32 
      10   -808514.77    253.83825    95.585517    3.1998933    326117.36   -60066.175    115121.53    127057.57 
      20   -813324.44    253.83825    95.585517    3.1998933    248870.81   -122363.93    202408.41    109638.43 
      30   -819053.01    253.83825    95.585517    3.1998933    173435.92   -188126.08    298770.72    94693.518 
      40   -827771.21    253.83825    95.585517    3.1998933    118063.27   -245115.59    385454.86    86134.178 
      50    -844236.1    253.83825    95.585517    3.1998933    55150.892   -240689.88     430213.6    81558.206 
      60   -864226.41    253.83825    95.585517    3.1998933    80410.047    40751.802    194420.78    105194.21 
      70   -871670.34    253.83825    95.585517    3.1998933    229942.17    183263.52   -21331.913    130624.59 
      80   -875761.04    253.83825    95.585517    3.1998933    249935.35    222853.39   -30961.997    147275.58 
      90   -879022.52    253.83825    95.585517    3.1998933    239009.43    240528.08   -21961.233    152525.43 
     100      -881597    253.83825    95.585517    3.1998933    231467.83    249592.13   -12807.144    156084.27 
     110   -883718.33    253.83825    95.585517    3.1998933    228223.32    259771.72    3469.3962    163821.48 
     120   -885526.06    253.83825    95.585517    3.1998933    227639.73    273883.92    24346.909    175290.19 
     130   -886248.06    253.83825    95.585517    3.1998933    202920.52    266920.41   -22492.167    149116.26 
     140   -886661.63    253.83825    95.585517    3.1998933    200913.03    270355.09   -17777.155    151163.66 
     150   -887051.14    253.83825    95.585517    3.1998933    198431.31    273725.46   -13507.377    152883.13 
     160    -887397.3    253.83825    95.585517    3.1998933    195332.08    276537.83   -10172.854    153899.02 
     170   -887671.14    253.83825    95.585517    3.1998933    191573.41     277744.1   -8186.0099     153710.5 
     180   -887849.85    253.83825    95.585517    3.1998933     188480.9    277870.45   -6863.3719    153162.66 
     190    -887987.5    253.83825    95.585517    3.1998933    186530.59    278808.23    -5295.511    153347.77 
     200   -888113.56    253.83825    95.585517    3.1998933    184564.15    279722.42   -3875.8791    153470.23 
     210    -888223.3    253.83825    95.585517    3.1998933    182506.66    280308.11   -2730.0824    153361.56 
     220   -888313.08    253.83825    95.585517    3.1998933    180537.97    280651.05   -1843.0266    153115.33 
     230   -888383.98    253.83825    95.585517    3.1998933    178735.54    280821.85   -1180.5853    152792.27 
     240   -888434.91    253.83825    95.585517    3.1998933    177143.55    280666.25   -756.93169    152350.96 
     250   -888468.84    253.83825    95.585517    3.1998933    176055.06    280728.71   -470.78975    152104.32 
     260   -888496.61    253.83825    95.585517    3.1998933    175088.58    280830.43   -245.16812    151891.28 
     270   -888519.26    253.83825    95.585517    3.1998933    174178.87    280884.73   -75.864735    151662.58 
     280   -888536.15    253.83825    95.585517    3.1998933    173278.87    280858.99    31.978342    151389.95 
     290   -888548.31    253.83825    95.585517    3.1998933    172747.58    280897.48    114.19814    151253.09 
     300   -888558.08    253.83825    95.585517    3.1998933    172287.78    280952.25    174.93588    151138.32 
     310   -888566.99    253.83825    95.585517    3.1998933    171836.41    281023.04    225.62015    151028.36 
     320    -888575.6    253.83825    95.585517    3.1998933    171352.83    281093.46    266.61248     150904.3 
     330   -888583.54    253.83825    95.585517    3.1998933    170846.32    281146.65    294.78186    150762.59 
     340   -888590.51    253.83825    95.585517    3.1998933    170338.56    281185.96    308.47417       150611 
     350   -888596.19    253.83825    95.585517    3.1998933    169853.84    281195.26    309.58956     150452.9 
     360   -888599.89    253.83825    95.585517    3.1998933     169489.6    281184.01    302.16653    150325.26 
     370   -888602.86    253.83825    95.585517    3.1998933    169175.32     281197.2    293.48225       150222 
     380   -888605.33    253.83825    95.585517    3.1998933    168881.79     281205.3    281.77085    150122.96 
     390   -888607.33    253.83825    95.585517    3.1998933     168614.9    281209.93    268.32084    150031.05 
     400   -888608.91    253.83825    95.585517    3.1998933    168379.63    281211.99    253.39735    149948.34 
     410   -888610.11    253.83825    95.585517    3.1998933    168180.67    281211.96    239.54388    149877.39 
     420   -888611.01    253.83825    95.585517    3.1998933       168016    281212.65    226.08593    149818.24 
     430   -888611.75    253.83825    95.585517    3.1998933    167869.34    281213.91    214.02196    149765.76 
     440   -888612.37    253.83825    95.585517    3.1998933    167734.06    281214.87    201.40283    149716.78 
     450   -888612.91    253.83825    95.585517    3.1998933    167607.35    281215.42    190.04247    149670.94 
     460   -888613.37    253.83825    95.585517    3.1998933    167487.22    281215.57     177.7106    149626.83 
     470   -888613.77    253.83825    95.585517    3.1998933    167371.52    281215.44    165.40436    149584.12 
     480   -888614.12    253.83825    95.585517    3.1998933    167259.58    281214.68    153.22187     149542.5 
     490   -888614.42    253.83825    95.585517    3.1998933    167151.68    281213.25    141.12166    149502.02 
     500   -888614.67    253.83825    95.585517    3.1998933    167050.17    281211.37    128.81102    149463.45 
     510   -888614.88    253.83825    95.585517    3.1998933    166958.51    281208.45    117.43248    149428.13 
     520   -888615.02    253.83825    95.585517    3.1998933    166884.33    281205.47    107.27415    149399.03 
     530   -888615.13    253.83825    95.585517    3.1998933    166823.06    281203.05    99.124327    149375.08 
     540   -888615.23    253.83825    95.585517    3.1998933    166765.56    281200.81     90.70091    149352.36 
     550   -888615.31    253.83825    95.585517    3.1998933    166710.72    281198.07    82.651234    149330.48 
     560   -888615.37    253.83825    95.585517    3.1998933     166665.1    281195.08    76.245089    149312.14 
     570   -888615.41    253.83825    95.585517    3.1998933    166629.35    281192.55     71.28378    149297.73 
     580   -888615.44    253.83825    95.585517    3.1998933    166600.18    281190.32    66.946991    149285.82 
     590   -888615.47    253.83825    95.585517    3.1998933    166575.26    281188.41    61.939759    149275.21 
     600   -888615.49    253.83825    95.585517    3.1998933    166554.69    281186.52    58.875633     149266.7 
     610   -888615.51    253.83825    95.585517    3.1998933    166537.67    281184.85    55.993335     149259.5 
     620   -888615.53    253.83825    95.585517    3.1998933    166523.45    281183.39    53.667796     149253.5 
     630   -888615.54    253.83825    95.585517    3.1998933    166511.13    281181.98    51.787087     149248.3 
     640   -888615.55    253.83825    95.585517    3.1998933    166500.55    281180.69    50.206029    149243.82 
     650   -888615.56    253.83825    95.585517    3.1998933     166491.4    281179.67    47.821958    149239.63 
     660   -888615.56    253.83825    95.585517    3.1998933    166483.16    281178.57    46.584021    149236.11 
     670   -888615.57    253.83825    95.585517    3.1998933    166475.69    281177.56    45.121769    149232.79 
     680   -888615.58    253.83825    95.585517    3.1998933    166468.95    281176.64     43.53944    149229.71 
     690   -888615.58    253.83825    95.585517    3.1998933    166462.75    281175.59     43.35575    149227.23 
     700   -888615.59    253.83825    95.585517    3.1998933    166456.96    281174.71    42.151311    149224.61 
     710   -888615.59    253.83825    95.585517    3.1998933    166451.32    281173.79    41.029862    149222.05 
     720    -888615.6    253.83825    95.585517    3.1998933    166445.99    281172.89     39.99167    149219.63 
     730    -888615.6    253.83825    95.585517    3.1998933    166441.01    281171.98     39.17524    149217.39 
     739    -888615.6    253.83825    95.585517    3.1998933     166436.9    281171.26    37.970166    149215.38 
Loop time of 27.0558 on 16 procs for 739 steps with 8280 atoms

99.6% CPU use with 16 MPI tasks x no OpenMP threads

Minimization stats:
  Stopping criterion = energy tolerance
  Energy initial, next-to-last, final = 
     -806565.664971658   -888615.60460186  -888615.604501017
  Force two-norm initial, final = 9806.6858 2.6454462
  Force max component initial, final = 137.36408 0.044847945
  Final line search alpha, max atom move = 0.0000000 0.0000000
  Iterations, force evaluations = 739 739

MPI task timing breakdown:
Section |  min time  |  avg time  |  max time  |%varavg| %total
---------------------------------------------------------------
Pair    | 14.169     | 17.967     | 19.853     |  43.9 | 66.41
Neigh   | 0          | 0          | 0          |   0.0 |  0.00
Comm    | 0.035154   | 1.8074     | 5.8096     | 140.6 |  6.68
Output  | 0.237      | 0.23712    | 0.23766    |   0.0 |  0.88
Modify  | 6.6337     | 6.839      | 7.097      |   6.5 | 25.28
Other   |            | 0.2057     |            |       |  0.76

Nlocal:        517.500 ave         540 max         495 min
Histogram: 4 0 0 4 0 0 4 0 0 4
Nghost:        853.750 ave         888 max         820 min
Histogram: 4 0 4 0 0 0 0 4 0 4
Neighs:        48537.2 ave       50390 max       46660 min
Histogram: 4 0 0 4 0 0 4 0 0 4

Total # of neighbors = 776596
Ave neighs/atom = 93.791787
Neighbor list builds = 0
Dangerous builds = 0
WARNING: Using 'neigh_modify every 1 delay 0 check yes' setting during minimization (../min.cpp:188)
Per MPI rank memory allocation (min/avg/max) = 28.72 | 29.05 | 29.40 Mbytes
Step PotEng Lx Ly Lz Pxx Pyy Pzz Press 
     739    -888615.6    253.83825    95.585517    3.0800344    172913.77    292113.03    39.190997       155022 
     740    -888615.6    253.83825    95.585517    3.0800344    172913.75    292112.98    39.306069    155022.01 
     745   -888615.61    253.83825    95.585517    3.0800344     172913.7    292112.99     39.11861    155021.93 
Loop time of 0.255993 on 16 procs for 6 steps with 8280 atoms

99.7% CPU use with 16 MPI tasks x no OpenMP threads

Minimization stats:
  Stopping criterion = energy tolerance
  Energy initial, next-to-last, final = 
     -888615.604945195  -888615.604100631  -888615.605113969
  Force two-norm initial, final = 2.6481163 2.6470533
  Force max component initial, final = 0.046364109 0.046317315
  Final line search alpha, max atom move = 0.0000000 0.0000000
  Iterations, force evaluations = 6 6

MPI task timing breakdown:
Section |  min time  |  avg time  |  max time  |%varavg| %total
---------------------------------------------------------------
Pair    | 0.13483    | 0.1678     | 0.18707    |   4.3 | 65.55
Neigh   | 0          | 0          | 0          |   0.0 |  0.00
Comm    | 0.00023763 | 0.017455   | 0.052574   |  13.5 |  6.82
Output  | 0.0013076  | 0.0013101  | 0.0013196  |   0.0 |  0.51
Modify  | 0.065262   | 0.067458   | 0.072725   |   0.9 | 26.35
Other   |            | 0.00197    |            |       |  0.77

Nlocal:        517.500 ave         540 max         495 min
Histogram: 4 0 0 4 0 0 4 0 0 4
Nghost:        828.250 ave         853 max         800 min
Histogram: 4 0 4 0 0 0 0 0 4 4
Neighs:        49249.2 ave       51138 max       47338 min
Histogram: 4 0 0 4 0 0 4 0 0 4

Total # of neighbors = 787988
Ave neighs/atom = 95.167633
Neighbor list builds = 0
Dangerous builds = 0
Total wall time: 0:00:32
