LAMMPS (29 Sep 2021)
Processor partition = 5
Reading data file ...
  orthogonal box = (0.0000000 0.0000000 0.0000000) to (253.84801 95.581365 20.000000)
  8 by 2 by 1 MPI processor grid
  reading atoms ...
  8280 atoms
  read_data CPU = 0.063 seconds

CITE-CITE-CITE-CITE-CITE-CITE-CITE-CITE-CITE-CITE-CITE-CITE-CITE

Your simulation uses code contributions which should be cited:
- pair reaxff command:
- fix qeq/reaxff command:
The log file lists these citations in BibTeX format.

CITE-CITE-CITE-CITE-CITE-CITE-CITE-CITE-CITE-CITE-CITE-CITE-CITE

WARNING: Using 'neigh_modify every 1 delay 0 check yes' setting during minimization (../min.cpp:188)
Neighbor list info ...
  update every 1 steps, delay 0 steps, check yes
  max neighbors/atom: 2000, page size: 100000
  master list distance cutoff = 12
  ghost atom cutoff = 12
  binsize = 6, bins = 43 16 1
  2 neighbor lists, perpetual/occasional/extra = 2 0 0
  (1) pair reaxff, perpetual
      attributes: half, newton off, ghost
      pair build: half/bin/newtoff/ghost
      stencil: full/ghost/bin/3d
      bin: standard
  (2) fix qeq/reaxff, perpetual, copy from (1)
      attributes: half, newton off, ghost
      pair build: copy
      stencil: none
      bin: none
Setting up cg style minimization ...
  Unit style    : real
  Current step  : 0
WARNING: Energy due to 3 extra global DOFs will be included in minimizer energies
Per MPI rank memory allocation (min/avg/max) = 28.83 | 29.17 | 29.50 Mbytes
Step PotEng Lx Ly Lz Pxx Pyy Pzz Press 
       0    -963236.9    253.84801    95.581365     3.191507    16794.306   -11625.094   -3075.8427    697.78964 
      10   -963347.45    254.04634    95.614913    3.1887875   -2254.5022   -12797.206    4731.8188   -3439.9632 
      20   -963379.87    253.95465    95.549377    3.1896444     976.1835   -242.24437   -1414.5988   -226.88657 
      30   -963393.32    253.92703    95.559564     3.189457   -11.186399    170.31794   -955.85544   -265.57463 
      40   -963399.62    253.89098    95.572466    3.1892959    211.31636   -369.31195   -620.31079   -259.43546 
      50   -963403.67    253.93958    95.554191    3.1890773   -3368.2577    2743.2152   -166.52574   -263.85605 
      59   -963406.55    253.83825    95.585517     3.188815    9.2237543    10.105001   -121.64787   -34.106371 
Loop time of 4.14937 on 16 procs for 59 steps with 8280 atoms

99.5% CPU use with 16 MPI tasks x no OpenMP threads

Minimization stats:
  Stopping criterion = energy tolerance
  Energy initial, next-to-last, final = 
     -963236.898696757  -963406.545661106  -963406.545737087
  Force two-norm initial, final = 23080.639 40.668383
  Force max component initial, final = 18966.218 11.411384
  Final line search alpha, max atom move = 0.00017597652 0.0020081358
  Iterations, force evaluations = 59 118

MPI task timing breakdown:
Section |  min time  |  avg time  |  max time  |%varavg| %total
---------------------------------------------------------------
Pair    | 2.5755     | 3.0766     | 3.4577     |  18.0 | 74.15
Neigh   | 0.17968    | 0.19844    | 0.21842    |   2.9 |  4.78
Comm    | 0.012044   | 0.36593    | 0.91396    |  52.0 |  8.82
Output  | 0.0002546  | 0.00026025 | 0.00030135 |   0.0 |  0.01
Modify  | 0.41058    | 0.4301     | 0.44884    |   2.0 | 10.37
Other   |            | 0.07803    |            |       |  1.88

Nlocal:        517.500 ave         540 max         495 min
Histogram: 8 0 0 0 0 0 0 0 0 8
Nghost:        855.000 ave         901 max         810 min
Histogram: 8 0 0 0 0 0 0 0 0 8
Neighs:        50130.5 ave       52057 max       48204 min
Histogram: 8 0 0 0 0 0 0 0 0 8

Total # of neighbors = 802088
Ave neighs/atom = 96.870531
Neighbor list builds = 104
Dangerous builds = 98
WARNING: Using 'neigh_modify every 1 delay 0 check yes' setting during minimization (../min.cpp:188)
Setting up quickmin style minimization ...
  Unit style    : real
  Current step  : 0
Per MPI rank memory allocation (min/avg/max) = 28.71 | 29.05 | 29.40 Mbytes
Step PotEng Lx Ly Lz Pxx Pyy Pzz Press 
       0    -852709.5    253.83825    95.585517    3.2076943    340386.31   -188935.29    286906.07    146119.03 
      10   -854045.52    253.83825    95.585517    3.2076943    323154.92   -197339.68     297774.5    141196.58 
      20   -858109.93    253.83825    95.585517    3.2076943    274312.85   -212433.32    318709.21    126862.91 
      30   -863658.25    253.83825    95.585517    3.2076943       221228    -200039.6    301376.38    107521.59 
      40   -868313.13    253.83825    95.585517    3.2076943    198757.42   -147238.07    227860.61    93126.653 
      50    -871580.6    253.83825    95.585517    3.2076943    205720.77   -91275.311    152153.52    88866.324 
      60   -874709.18    253.83825    95.585517    3.2076943    236991.53   -43509.408     91952.17    95144.764 
      70   -878963.43    253.83825    95.585517    3.2076943    301447.99   -6330.3944    57669.881    117595.83 
      80   -883443.18    253.83825    95.585517    3.2076943    332185.91    8512.2393    30271.903    123656.68 
      90   -888385.14    253.83825    95.585517    3.2076943    306016.13    29792.259    20868.378    118892.26 
     100   -894343.74    253.83825    95.585517    3.2076943    275836.05    69503.036    37469.348    127602.81 
     110   -899558.72    253.83825    95.585517    3.2076943    257479.62    108363.85    32642.732    132828.73 
     120   -902986.31    253.83825    95.585517    3.2076943    234267.41    129333.03    45387.034    136329.16 
     130   -904012.06    253.83825    95.585517    3.2076943    212465.61    117432.55   -36135.647    97920.837 
     140   -904492.85    253.83825    95.585517    3.2076943    212113.88    120070.27    -28791.89    101130.75 
     150    -904882.3    253.83825    95.585517    3.2076943    212655.62    121475.81   -22282.508    103949.64 
     160   -905189.38    253.83825    95.585517    3.2076943    214513.48    122075.72   -17189.657    106466.52 
     170    -905448.1    253.83825    95.585517    3.2076943    218134.28     122196.9   -14398.631    108644.18 
     180   -905735.31    253.83825    95.585517    3.2076943    223448.57    121851.06    -12297.37    111000.75 
     190   -906083.97    253.83825    95.585517    3.2076943    228411.63    121105.28   -9504.0544    113337.62 
     200   -906470.87    253.83825    95.585517    3.2076943    232900.75    120643.07   -6935.6382    115536.06 
     210   -906863.79    253.83825    95.585517    3.2076943    236687.22    119789.68   -5572.3747    116968.18 
     220   -907231.68    253.83825    95.585517    3.2076943    239904.59    118877.66    -5201.547    117860.24 
     230   -907562.35    253.83825    95.585517    3.2076943    242833.67    118216.72   -5391.7523    118552.88 
     240   -907833.32    253.83825    95.585517    3.2076943    244942.27       116357   -6998.1757    118100.37 
     250   -908039.55    253.83825    95.585517    3.2076943    247005.61    116264.25   -7509.8416    118586.67 
     260   -908232.42    253.83825    95.585517    3.2076943    249185.36    116824.07   -7733.5661    119425.29 
     270   -908410.59    253.83825    95.585517    3.2076943    251240.96    117396.07   -8166.4961    120156.85 
     280   -908575.22    253.83825    95.585517    3.2076943    253242.57    117842.04   -8754.6256    120776.66 
     290    -908717.9    253.83825    95.585517    3.2076943    255024.35    118372.75   -9304.0092    121364.36 
     300   -908850.31    253.83825    95.585517    3.2076943    256551.76    119092.39   -9752.0671    121964.03 
     310   -908978.63    253.83825    95.585517    3.2076943    258180.27    120550.24   -9868.2824    122954.07 
     320   -909118.68    253.83825    95.585517    3.2076943    259936.77    122358.88   -10029.464    124088.73 
     330   -909275.18    253.83825    95.585517    3.2076943    261841.32    124429.45   -10315.709    125318.36 
     340   -909428.94    253.83825    95.585517    3.2076943    263563.14    126932.28   -10772.186    126574.41 
     350   -909592.46    253.83825    95.585517    3.2076943    265142.11     129268.9   -11723.724    127562.43 
     360   -909714.21    253.83825    95.585517    3.2076943    266092.65    131271.31   -12806.876    128185.69 
     370   -909842.02    253.83825    95.585517    3.2076943     267208.5    134334.07   -13457.493    129361.69 
     380   -909970.55    253.83825    95.585517    3.2076943    267994.28    138122.16   -14301.403    130605.01 
     390   -910106.62    253.83825    95.585517    3.2076943    268760.21    143146.24    -15118.71    132262.58 
     400   -910250.41    253.83825    95.585517    3.2076943    269096.71    149078.03   -16412.173    133920.85 
     410   -910395.47    253.83825    95.585517    3.2076943     269302.3    156664.12   -17831.514    136044.97 
     420   -910564.98    253.83825    95.585517    3.2076943    269269.34    165325.79   -19783.703    138270.48 
     430   -910756.79    253.83825    95.585517    3.2076943    269129.01    176539.18   -21835.748    141277.48 
     440   -911013.67    253.83825    95.585517    3.2076943    269870.28    190062.32    -23853.32    145359.76 
     450   -911357.86    253.83825    95.585517    3.2076943    271972.76    204312.84   -25594.646    150230.32 
     460   -911773.85    253.83825    95.585517    3.2076943    275412.71    217712.22   -26964.409    155386.84 
     470    -912222.7    253.83825    95.585517    3.2076943    280081.12    229374.57   -27761.042    160564.88 
     480   -912680.49    253.83825    95.585517    3.2076943    285447.75    238729.94   -28484.634    165231.02 
     490   -913106.54    253.83825    95.585517    3.2076943    290547.66    245713.62   -28865.821    169131.82 
     500   -913444.13    253.83825    95.585517    3.2076943     293497.9    249411.17   -29536.888    171124.06 
     510   -913672.38    253.83825    95.585517    3.2076943    294679.95    251569.28   -30110.861    172046.12 
     520   -913825.94    253.83825    95.585517    3.2076943    295442.92    252614.95   -30539.113    172506.25 
     530   -913949.78    253.83825    95.585517    3.2076943    296402.84    253512.56   -30365.608    173183.26 
     540   -914052.78    253.83825    95.585517    3.2076943    296731.95    254231.97   -30387.249    173525.56 
     550    -914141.9    253.83825    95.585517    3.2076943    296582.24    254924.68   -30338.373    173722.85 
     560   -914208.39    253.83825    95.585517    3.2076943    296058.79    255128.13   -30638.588    173516.11 
     570   -914255.91    253.83825    95.585517    3.2076943     295763.4    255692.11   -30566.246    173629.75 
     580   -914303.09    253.83825    95.585517    3.2076943    295633.72    256058.37   -30486.682    173735.14 
     590   -914338.36    253.83825    95.585517    3.2076943    295311.64    256418.79   -30550.515    173726.64 
     600      -914369    253.83825    95.585517    3.2076943    295128.94    256759.39   -30508.244    173793.36 
     610   -914396.53    253.83825    95.585517    3.2076943    295022.35    257062.13   -30453.176     173877.1 
     620   -914421.47    253.83825    95.585517    3.2076943    294890.42    257260.76   -30422.383     173909.6 
     630   -914441.11    253.83825    95.585517    3.2076943    294742.38    257502.26   -30397.449    173949.06 
     640   -914458.71    253.83825    95.585517    3.2076943     294602.5    257700.24   -30402.368    173966.79 
     650   -914475.48    253.83825    95.585517    3.2076943    294530.71    257886.36   -30339.235    174025.95 
     660   -914490.61    253.83825    95.585517    3.2076943    294410.66    258032.33   -30331.551    174037.15 
     670   -914504.11    253.83825    95.585517    3.2076943     294320.8    258192.46   -30292.432    174073.61 
     680   -914517.18    253.83825    95.585517    3.2076943    294260.24    258326.56   -30262.691    174108.04 
     690   -914530.99    253.83825    95.585517    3.2076943    294264.74    258444.51   -30192.843    174172.13 
     700   -914544.39    253.83825    95.585517    3.2076943    294203.49    258500.95   -30181.477    174174.32 
     710   -914556.12    253.83825    95.585517    3.2076943    294129.01    258579.76   -30136.093    174190.89 
     720   -914567.13    253.83825    95.585517    3.2076943     294033.7    258647.03   -30105.611    174191.71 
     730   -914577.94    253.83825    95.585517    3.2076943    293960.95    258712.29   -30031.329    174213.97 
     739   -914586.74    253.83825    95.585517    3.2076943    293835.16    258738.43   -30027.843    174181.92 
Loop time of 27.0558 on 16 procs for 739 steps with 8280 atoms

99.6% CPU use with 16 MPI tasks x no OpenMP threads

Minimization stats:
  Stopping criterion = energy tolerance
  Energy initial, next-to-last, final = 
      -852709.50032262  -914585.848154367  -914586.738454534
  Force two-norm initial, final = 7905.7039 113.22796
  Force max component initial, final = 130.53890 27.337575
  Final line search alpha, max atom move = 0.0000000 0.0000000
  Iterations, force evaluations = 739 739

MPI task timing breakdown:
Section |  min time  |  avg time  |  max time  |%varavg| %total
---------------------------------------------------------------
Pair    | 17.101     | 20.366     | 22.688     |  49.2 | 75.27
Neigh   | 0          | 0          | 0          |   0.0 |  0.00
Comm    | 0.036809   | 2.2423     | 5.7122     | 148.0 |  8.29
Output  | 0.23948    | 0.23963    | 0.24018    |   0.0 |  0.89
Modify  | 3.8006     | 4.0058     | 4.3092     |   8.1 | 14.81
Other   |            | 0.2023     |            |       |  0.75

Nlocal:        517.500 ave         525 max         510 min
Histogram: 8 0 0 0 0 0 0 0 0 8
Nghost:        843.750 ave         863 max         825 min
Histogram: 8 0 0 0 0 0 0 0 0 8
Neighs:        48992.0 ave       49614 max       48370 min
Histogram: 8 0 0 0 0 0 0 0 0 8

Total # of neighbors = 783872
Ave neighs/atom = 94.670531
Neighbor list builds = 0
Dangerous builds = 0
WARNING: Using 'neigh_modify every 1 delay 0 check yes' setting during minimization (../min.cpp:188)
Setting up quickmin style minimization ...
  Unit style    : real
  Current step  : 739
Per MPI rank memory allocation (min/avg/max) = 28.69 | 29.05 | 29.43 Mbytes
Step PotEng Lx Ly Lz Pxx Pyy Pzz Press 
     739   -914586.74    253.83825    95.585517    3.2226375    292472.67    257538.68   -29888.584    173374.25 
     740   -914586.74    253.83825    95.585517    3.2226375       292451    257494.61     -29922.3    173341.11 
     745   -914586.87    253.83825    95.585517    3.2226375    292464.91    257506.22   -29898.999    173357.38 
Loop time of 0.255992 on 16 procs for 6 steps with 8280 atoms

99.5% CPU use with 16 MPI tasks x no OpenMP threads

Minimization stats:
  Stopping criterion = energy tolerance
  Energy initial, next-to-last, final = 
     -914586.738379707  -914586.824619509  -914586.867255967
  Force two-norm initial, final = 113.22639 112.34818
  Force max component initial, final = 27.336853 27.168396
  Final line search alpha, max atom move = 0.0000000 0.0000000
  Iterations, force evaluations = 6 6

MPI task timing breakdown:
Section |  min time  |  avg time  |  max time  |%varavg| %total
---------------------------------------------------------------
Pair    | 0.17244    | 0.2016     | 0.22561    |   4.7 | 78.75
Neigh   | 0          | 0          | 0          |   0.0 |  0.00
Comm    | 0.00027249 | 0.0205     | 0.05317    |  15.4 |  8.01
Output  | 0.0013344  | 0.0013365  | 0.0013454  |   0.0 |  0.52
Modify  | 0.025797   | 0.030614   | 0.034867   |   2.1 | 11.96
Other   |            | 0.001943   |            |       |  0.76

Nlocal:        517.500 ave         531 max         504 min
Histogram: 2 1 3 1 1 2 0 3 1 2
Nghost:        843.750 ave         861 max         827 min
Histogram: 1 0 2 3 2 3 2 2 0 1
Neighs:        49118.4 ave       50255 max       48000 min
Histogram: 2 2 1 2 1 1 1 4 0 2

Total # of neighbors = 785894
Ave neighs/atom = 94.914734
Neighbor list builds = 0
Dangerous builds = 0
Total wall time: 0:00:31
