LAMMPS (29 Sep 2021)
Running on 7 partitions of processors
Reading NEB coordinate file(s) ...
Setting up regular NEB ...
Step MaxReplicaForce MaxAtomForce GradV0 GradV1 GradVc EBF EBR RDT RD1 PE1 RD2 PE2 ... RDN PEN
0    10225.669    20579.298    37.617078     7158.335    9814.9165    156840.88    106039.98    96.788565            0   -963406.55   0.16666667   -876509.61   0.33333333   -822533.82          0.5   -806565.66   0.66666667   -810074.68   0.83333333    -852709.5            1   -912605.64 
100    1764.8081    499.09587    10.074764     318.5232    1194.9455      84366.1    47671.415    113.45944            0   -963408.39   0.19817278   -930038.43   0.34612273   -884946.74   0.49350635      -881597   0.63920559   -879042.29   0.80079626   -894343.74            1    -926713.7 
200     740.0437    1633.3878    1.1033345    40.129946    310.43064     76941.21     40726.24    134.23162            0   -963408.84   0.22229402   -937570.67   0.35078568   -895695.12   0.49701637   -888113.56   0.62238838   -886467.63    0.7773806   -906470.87            1   -927193.87 
300    868.87081    1332.3386   0.15271043    6.4291056     215.0348    76238.153     40031.06    143.46728            0   -963408.85   0.22548664    -938403.7   0.36657696   -902876.49   0.51273134   -888558.08   0.63104637    -887170.7   0.78672489   -908850.31            1   -927201.76 
400    386.58718    1565.0994  0.024612152    1.0367752    181.47988    75890.826    39683.952    149.70351            0   -963408.85   0.22343891   -939495.44    0.3827639   -907348.87   0.52457449   -888608.91   0.63876141   -887518.02   0.79821854   -910250.41            1   -927201.97 
500    356.31008    1173.6152  0.049122501   0.26283982    160.04772    75606.096    39399.229     152.6924            0   -963408.85   0.22003433   -940802.71   0.37955868   -909808.94   0.51889449   -888614.67   0.63145911   -887802.75   0.79814933   -913444.13            1   -927201.98 
600    148.75238    1071.3674 0.0086720613   0.16357651     132.8104    75330.028    39123.162    155.02409            0   -963408.85   0.21711941   -941850.45   0.37548416   -910130.29   0.51271191   -888615.49    0.6240477   -888078.82    0.7993377      -914369            1   -927201.98 
700    130.55718    1581.8848  0.010849864   0.15054053    118.70418    75217.073    39010.207     155.8636            0   -963408.85   0.21616199   -941988.27   0.37387266   -910168.92   0.51032107   -888615.59   0.62121907   -888191.78   0.80073544   -914544.39            1   -927201.98 
739    113.22796    846.91163 0.0070361002    0.1473215    114.38041    75185.793    38978.928    156.10961            0   -963408.85   0.21589421   -942030.38   0.37339574   -910177.71   0.50961523    -888615.6   0.62038056   -888223.06   0.80115057   -914586.74            1   -927201.98 
Setting up climbing ...
Climbing replica = 5
Step MaxReplicaForce MaxAtomForce GradV0 GradV1 GradVc EBF EBR RDT RD1 PE1 RD2 PE2 ... RDN PEN
739    114.37933     846.8873 0.0095488221   0.14740394    114.37933    75185.792    38978.926    156.10961            0   -963408.85   0.21589421   -942030.38   0.37339574   -910177.71   0.50961523    -888615.6   0.62038056   -888223.06   0.80115057   -914586.74            1   -927201.98 
745     114.3665    844.45264  0.006599312   0.14741016     114.3665    75185.705    38978.841     156.1108            0   -963408.85   0.21589284    -942030.5    0.3733933   -910177.74   0.50961171   -888615.61   0.62037941   -888223.14   0.80115244   -914586.87            1   -927201.98 
[1652883648.442911] [cn603-10-r:32611:0]          mpool.c:43   UCX  WARN  object 0x48d7980 was not returned to mpool ucp_requests
[1652883648.442935] [cn603-10-r:32611:0]          mpool.c:43   UCX  WARN  object 0x48d7b40 was not returned to mpool ucp_requests
[1652883648.442942] [cn603-10-r:32611:0]          mpool.c:43   UCX  WARN  object 0x48d7d00 was not returned to mpool ucp_requests
[1652883648.442953] [cn603-10-r:32611:0]          mpool.c:43   UCX  WARN  object 0x48d7ec0 was not returned to mpool ucp_requests
[1652883648.442965] [cn603-10-r:32611:0]          mpool.c:43   UCX  WARN  object 0x48d8080 was not returned to mpool ucp_requests
[1652883648.442970] [cn603-10-r:32611:0]          mpool.c:43   UCX  WARN  object 0x48d8240 was not returned to mpool ucp_requests
[1652883648.442976] [cn603-10-r:32611:0]          mpool.c:43   UCX  WARN  object 0x48d85c0 was not returned to mpool ucp_requests
[1652883648.442981] [cn603-10-r:32611:0]          mpool.c:43   UCX  WARN  object 0x48d8780 was not returned to mpool ucp_requests
[1652883648.442992] [cn603-10-r:32611:0]          mpool.c:43   UCX  WARN  object 0x48d8940 was not returned to mpool ucp_requests
[1652883648.442998] [cn603-10-r:32611:0]          mpool.c:43   UCX  WARN  object 0x48d8b00 was not returned to mpool ucp_requests
[1652883648.443003] [cn603-10-r:32611:0]          mpool.c:43   UCX  WARN  object 0x48d8cc0 was not returned to mpool ucp_requests
[1652883648.443008] [cn603-10-r:32611:0]          mpool.c:43   UCX  WARN  object 0x48d8e80 was not returned to mpool ucp_requests
[1652883648.443013] [cn603-10-r:32611:0]          mpool.c:43   UCX  WARN  object 0x48d9040 was not returned to mpool ucp_requests
[1652883648.443024] [cn603-10-r:32611:0]          mpool.c:43   UCX  WARN  object 0x48d9200 was not returned to mpool ucp_requests
[1652883648.443039] [cn603-10-r:32611:0]          mpool.c:43   UCX  WARN  object 0x48d93c0 was not returned to mpool ucp_requests
[1652883648.443045] [cn603-10-r:32611:0]          mpool.c:43   UCX  WARN  object 0x48d9580 was not returned to mpool ucp_requests
[1652883648.443055] [cn603-10-r:32611:0]          mpool.c:43   UCX  WARN  object 0x48d9740 was not returned to mpool ucp_requests
[1652883648.443060] [cn603-10-r:32611:0]          mpool.c:43   UCX  WARN  object 0x48d9900 was not returned to mpool ucp_requests
[1652883648.443066] [cn603-10-r:32611:0]          mpool.c:43   UCX  WARN  object 0x48d9ac0 was not returned to mpool ucp_requests
[1652883648.443071] [cn603-10-r:32611:0]          mpool.c:43   UCX  WARN  object 0x48d9c80 was not returned to mpool ucp_requests
[1652883648.443078] [cn603-10-r:32611:0]          mpool.c:43   UCX  WARN  object 0x48d9e40 was not returned to mpool ucp_requests
[1652883648.443084] [cn603-10-r:32611:0]          mpool.c:43   UCX  WARN  object 0x48da000 was not returned to mpool ucp_requests
[1652883648.443089] [cn603-10-r:32611:0]          mpool.c:43   UCX  WARN  object 0x48da1c0 was not returned to mpool ucp_requests
[1652883648.443101] [cn603-10-r:32611:0]          mpool.c:43   UCX  WARN  object 0x48da380 was not returned to mpool ucp_requests
[1652883648.443106] [cn603-10-r:32611:0]          mpool.c:43   UCX  WARN  object 0x48da540 was not returned to mpool ucp_requests
[1652883648.443112] [cn603-10-r:32611:0]          mpool.c:43   UCX  WARN  object 0x48da700 was not returned to mpool ucp_requests
[1652883648.443117] [cn603-10-r:32611:0]          mpool.c:43   UCX  WARN  object 0x48da8c0 was not returned to mpool ucp_requests
[1652883648.443123] [cn603-10-r:32611:0]          mpool.c:43   UCX  WARN  object 0x48daa80 was not returned to mpool ucp_requests
[1652883648.443128] [cn603-10-r:32611:0]          mpool.c:43   UCX  WARN  object 0x48dac40 was not returned to mpool ucp_requests
[1652883648.443134] [cn603-10-r:32611:0]          mpool.c:43   UCX  WARN  object 0x48dae00 was not returned to mpool ucp_requests
[1652883648.443139] [cn603-10-r:32611:0]          mpool.c:43   UCX  WARN  object 0x48dafc0 was not returned to mpool ucp_requests
[1652883648.443145] [cn603-10-r:32611:0]          mpool.c:43   UCX  WARN  object 0x48db180 was not returned to mpool ucp_requests
[1652883648.443150] [cn603-10-r:32611:0]          mpool.c:43   UCX  WARN  object 0x48db340 was not returned to mpool ucp_requests
[1652883648.443155] [cn603-10-r:32611:0]          mpool.c:43   UCX  WARN  object 0x48db500 was not returned to mpool ucp_requests
[1652883648.443160] [cn603-10-r:32611:0]          mpool.c:43   UCX  WARN  object 0x48db6c0 was not returned to mpool ucp_requests
[1652883648.443171] [cn603-10-r:32611:0]          mpool.c:43   UCX  WARN  object 0x48db880 was not returned to mpool ucp_requests
[1652883648.443184] [cn603-10-r:32611:0]          mpool.c:43   UCX  WARN  object 0x48dba40 was not returned to mpool ucp_requests
[1652883648.443190] [cn603-10-r:32611:0]          mpool.c:43   UCX  WARN  object 0x48dbc00 was not returned to mpool ucp_requests
[1652883648.443195] [cn603-10-r:32611:0]          mpool.c:43   UCX  WARN  object 0x48dbdc0 was not returned to mpool ucp_requests
[1652883648.443201] [cn603-10-r:32611:0]          mpool.c:43   UCX  WARN  object 0x48dbf80 was not returned to mpool ucp_requests
[1652883648.443211] [cn603-10-r:32611:0]          mpool.c:43   UCX  WARN  object 0x48dc140 was not returned to mpool ucp_requests
[1652883648.443217] [cn603-10-r:32611:0]          mpool.c:43   UCX  WARN  object 0x48dc300 was not returned to mpool ucp_requests
[1652883648.443222] [cn603-10-r:32611:0]          mpool.c:43   UCX  WARN  object 0x48dc4c0 was not returned to mpool ucp_requests
[1652883648.443227] [cn603-10-r:32611:0]          mpool.c:43   UCX  WARN  object 0x48dc680 was not returned to mpool ucp_requests
[1652883648.443232] [cn603-10-r:32611:0]          mpool.c:43   UCX  WARN  object 0x48dc840 was not returned to mpool ucp_requests
[1652883648.442679] [cn603-13-r:170164:0]          mpool.c:43   UCX  WARN  object 0x3800fc0 was not returned to mpool ucp_requests
[1652883648.442754] [cn603-13-r:170164:0]          mpool.c:43   UCX  WARN  object 0x3801180 was not returned to mpool ucp_requests
[1652883648.442775] [cn603-13-r:170164:0]          mpool.c:43   UCX  WARN  object 0x3801340 was not returned to mpool ucp_requests
[1652883648.442801] [cn603-13-r:170164:0]          mpool.c:43   UCX  WARN  object 0x3801500 was not returned to mpool ucp_requests
[1652883648.442819] [cn603-13-r:170164:0]          mpool.c:43   UCX  WARN  object 0x38016c0 was not returned to mpool ucp_requests
[1652883648.442835] [cn603-13-r:170164:0]          mpool.c:43   UCX  WARN  object 0x3801880 was not returned to mpool ucp_requests
[1652883648.443238] [cn603-10-r:32611:0]          mpool.c:43   UCX  WARN  object 0x48dca00 was not returned to mpool ucp_requests
[1652883648.443244] [cn603-10-r:32611:0]          mpool.c:43   UCX  WARN  object 0x48dcbc0 was not returned to mpool ucp_requests
[1652883648.443249] [cn603-10-r:32611:0]          mpool.c:43   UCX  WARN  object 0x48dcd80 was not returned to mpool ucp_requests
[1652883648.443254] [cn603-10-r:32611:0]          mpool.c:43   UCX  WARN  object 0x48dcf40 was not returned to mpool ucp_requests
[1652883648.443260] [cn603-10-r:32611:0]          mpool.c:43   UCX  WARN  object 0x48dd100 was not returned to mpool ucp_requests
[1652883648.443265] [cn603-10-r:32611:0]          mpool.c:43   UCX  WARN  object 0x48dd2c0 was not returned to mpool ucp_requests
[1652883648.443270] [cn603-10-r:32611:0]          mpool.c:43   UCX  WARN  object 0x48dd480 was not returned to mpool ucp_requests
[1652883648.443276] [cn603-10-r:32611:0]          mpool.c:43   UCX  WARN  object 0x48dd640 was not returned to mpool ucp_requests
[1652883648.443281] [cn603-10-r:32611:0]          mpool.c:43   UCX  WARN  object 0x48dd800 was not returned to mpool ucp_requests
[1652883648.443286] [cn603-10-r:32611:0]          mpool.c:43   UCX  WARN  object 0x48dd9c0 was not returned to mpool ucp_requests
[1652883648.443291] [cn603-10-r:32611:0]          mpool.c:43   UCX  WARN  object 0x48ddb80 was not returned to mpool ucp_requests
[1652883648.443306] [cn603-10-r:32611:0]          mpool.c:43   UCX  WARN  object 0x48ddd40 was not returned to mpool ucp_requests
[1652883648.443311] [cn603-10-r:32611:0]          mpool.c:43   UCX  WARN  object 0x48ddf00 was not returned to mpool ucp_requests
[1652883648.443317] [cn603-10-r:32611:0]          mpool.c:43   UCX  WARN  object 0x48de0c0 was not returned to mpool ucp_requests
[1652883648.443322] [cn603-10-r:32611:0]          mpool.c:43   UCX  WARN  object 0x48de280 was not returned to mpool ucp_requests
[1652883648.443328] [cn603-10-r:32611:0]          mpool.c:43   UCX  WARN  object 0x48de440 was not returned to mpool ucp_requests
[1652883648.443333] [cn603-10-r:32611:0]          mpool.c:43   UCX  WARN  object 0x48de600 was not returned to mpool ucp_requests
[1652883648.443338] [cn603-10-r:32611:0]          mpool.c:43   UCX  WARN  object 0x48de7c0 was not returned to mpool ucp_requests
[1652883648.443343] [cn603-10-r:32611:0]          mpool.c:43   UCX  WARN  object 0x48de980 was not returned to mpool ucp_requests
[1652883648.443349] [cn603-10-r:32611:0]          mpool.c:43   UCX  WARN  object 0x48deb40 was not returned to mpool ucp_requests
[1652883648.443354] [cn603-10-r:32611:0]          mpool.c:43   UCX  WARN  object 0x48ded00 was not returned to mpool ucp_requests
[1652883648.443359] [cn603-10-r:32611:0]          mpool.c:43   UCX  WARN  object 0x48deec0 was not returned to mpool ucp_requests
[1652883648.443365] [cn603-10-r:32611:0]          mpool.c:43   UCX  WARN  object 0x48df080 was not returned to mpool ucp_requests
[1652883648.443376] [cn603-10-r:32611:0]          mpool.c:43   UCX  WARN  object 0x48df240 was not returned to mpool ucp_requests
[1652883648.443381] [cn603-10-r:32611:0]          mpool.c:43   UCX  WARN  object 0x48df400 was not returned to mpool ucp_requests
[1652883648.443387] [cn603-10-r:32611:0]          mpool.c:43   UCX  WARN  object 0x48df5c0 was not returned to mpool ucp_requests
[1652883648.443392] [cn603-10-r:32611:0]          mpool.c:43   UCX  WARN  object 0x48df780 was not returned to mpool ucp_requests
[1652883648.443397] [cn603-10-r:32611:0]          mpool.c:43   UCX  WARN  object 0x48df940 was not returned to mpool ucp_requests
[1652883648.443403] [cn603-10-r:32611:0]          mpool.c:43   UCX  WARN  object 0x48dfb00 was not returned to mpool ucp_requests
[1652883648.443408] [cn603-10-r:32611:0]          mpool.c:43   UCX  WARN  object 0x48dfcc0 was not returned to mpool ucp_requests
[1652883648.443413] [cn603-10-r:32611:0]          mpool.c:43   UCX  WARN  object 0x48dfe80 was not returned to mpool ucp_requests
[1652883648.443424] [cn603-10-r:32611:0]          mpool.c:43   UC[1652883648.442852] [cn603-13-r:170164:0]          mpool.c:43   UCX  WARN  object 0x3801a40 was not returned to mpool ucp_requests
[1652883648.442870] [cn603-13-r:170164:0]          mpool.c:43   UCX  WARN  object 0x3801c00 was not returned to mpool ucp_requests
[1652883648.442886] [cn603-13-r:170164:0]          mpool.c:43   UCX  WARN  object 0x3801dc0 was not returned to mpool ucp_requests
[1652883648.442903] [cn603-13-r:170164:0]          mpool.c:43   UCX  WARN  object 0x3801f80 was not returned to mpool ucp_requests
[1652883648.442919] [cn603-13-r:170164:0]          mpool.c:43   UCX  WARN  object 0x3802140 was not returned to mpool ucp_requests
[1652883648.442935] [cn603-13-r:170164:0]          mpool.c:43   UCX  WARN  object 0x3802300 was not returned to mpool ucp_requests
[1652883648.442952] [cn603-13-r:170164:0]          mpool.c:43   UCX  WARN  object 0x38024c0 was not returned to mpool ucp_requests
[1652883648.442969] [cn603-13-r:170164:0]          mpool.c:43   UCX  WARN  object 0x3802680 was not returned to mpool ucp_requests
X  WARN  object 0x48e0040 was not returned to mpool ucp_requests
[1652883648.443429] [cn603-10-r:32611:0]          mpool.c:43   UCX  WARN  object 0x48e0200 was not returned to mpool ucp_requests
[1652883648.443435] [cn603-10-r:32611:0]          mpool.c:43   UCX  WARN  object 0x48e03c0 was not returned to mpool ucp_requests
[1652883648.443440] [cn603-10-r:32611:0]          mpool.c:43   UCX  WARN  object 0x48e0580 was not returned to mpool ucp_requests
[1652883648.443450] [cn603-10-r:32611:0]          mpool.c:43   UCX  WARN  object 0x48e0740 was not returned to mpool ucp_requests
[1652883648.443456] [cn603-10-r:32611:0]          mpool.c:43   UCX  WARN  object 0x48e0900 was not returned to mpool ucp_requests
[1652883648.443461] [cn603-10-r:32611:0]          mpool.c:43   UCX  WARN  object 0x48e0ac0 was not returned to mpool ucp_requests
[1652883648.443467] [cn603-10-r:32611:0]          mpool.c:43   UCX  WARN  object 0x48e0c80 was not returned to mpool ucp_requests
[1652883648.443472] [cn603-10-r:32611:0]          mpool.c:43   UCX  WARN  object 0x48e0e40 was not returned to mpool ucp_requests
[1652883648.443478] [cn603-10-r:32611:0]          mpool.c:43   UCX  WARN  object 0x48e1000 was not returned to mpool ucp_requests
[1652883648.443483] [cn603-10-r:32611:0]          mpool.c:43   UCX  WARN  object 0x48e11c0 was not returned to mpool ucp_requests
[1652883648.443488] [cn603-10-r:32611:0]          mpool.c:43   UCX  WARN  object 0x48e1380 was not returned to mpool ucp_requests
[1652883648.443494] [cn603-10-r:32611:0]          mpool.c:43   UCX  WARN  object 0x48e1540 was not returned to mpool ucp_requests
[1652883648.443499] [cn603-10-r:32611:0]          mpool.c:43   UCX  WARN  object 0x48e1700 was not returned to mpool ucp_requests
[1652883648.443509] [cn603-10-r:32611:0]          mpool.c:43   UCX  WARN  object 0x48e18c0 was not returned to mpool ucp_requests
[1652883648.443515] [cn603-10-r:32611:0]          mpool.c:43   UCX  WARN  object 0x48e1a80 was not returned to mpool ucp_requests
[1652883648.443520] [cn603-10-r:32611:0]          mpool.c:43   UCX  WARN  object 0x48e1c40 was not returned to mpool ucp_requests
[1652883648.443526] [cn603-10-r:32611:0]          mpool.c:43   UCX  WARN  object 0x48e1e00 was not returned to mpool ucp_requests
[1652883648.443531] [cn603-10-r:32611:0]          mpool.c:43   UCX  WARN  object 0x48e1fc0 was not returned to mpool ucp_requests
[1652883648.443536] [cn603-10-r:32611:0]          mpool.c:43   UCX  WARN  object 0x48e2180 was not returned to mpool ucp_requests
[1652883648.443542] [cn603-10-r:32611:0]          mpool.c:43   UCX  WARN  object 0x48e2340 was not returned to mpool ucp_requests
[1652883648.443547] [cn603-10-r:32611:0]          mpool.c:43   UCX  WARN  object 0x48e2500 was not returned to mpool ucp_requests
[1652883648.443553] [cn603-10-r:32611:0]          mpool.c:43   UCX  WARN  object 0x48e26c0 was not returned to mpool ucp_requests
[1652883648.443558] [cn603-10-r:32611:0]          mpool.c:43   UCX  WARN  object 0x48e2880 was not returned to mpool ucp_requests
[1652883648.443564] [cn603-10-r:32611:0]          mpool.c:43   UCX  WARN  object 0x48e2a40 was not returned to mpool ucp_requests
[1652883648.443569] [cn603-10-r:32611:0]          mpool.c:43   UCX  WARN  object 0x48e2c00 was not returned to mpool ucp_requests
[1652883648.443579] [cn603-10-r:32611:0]          mpool.c:43   UCX  WARN  object 0x48e2dc0 was not returned to mpool ucp_requests
[1652883648.443585] [cn603-10-r:32611:0]          mpool.c:43   UCX  WARN  object 0x48e2f80 was not returned to mpool ucp_requests
[1652883648.443595] [cn603-10-r:32611:0]          mpool.c:43   UCX  WARN  object 0x48e3140 was not returned to mpool ucp_requests
[1652883648.443601] [cn603-10-r:32611:0]          mpool.c:43   UCX  WARN  object 0x48e3300 was not returned to mpool ucp_requests
[1652883648.443607] [cn603-10-r:32611:0]          mpool.c:43   UCX  WARN  object 0x48e34c0 was not returned to mpool ucp_requests
[1652883648.443612] [cn603-10-r:32611:0]          mpool.c:43   UCX  WARN  object 0x48e3680 was not returned to mpool ucp_requests
[1652883648.442986] [cn603-13-r:170164:0]          mpool.c:43   UCX  WARN  object 0x3802840 was not returned to mpool ucp_requests
[1652883648.443002] [cn603-13-r:170164:0]          mpool.c:43   UCX  WARN  object 0x3802a00 was not returned to mpool ucp_requests
[1652883648.443019] [cn603-13-r:170164:0]          mpool.c:43   UCX  WARN  object 0x3802bc0 was not returned to mpool ucp_requests
[1652883648.443042] [cn603-13-r:170164:0]          mpool.c:43   UCX  WARN  object 0x3802d80 was not returned to mpool ucp_requests
[1652883648.443059] [cn603-13-r:170164:0]          mpool.c:43   UCX  WARN  object 0x3802f40 was not returned to mpool ucp_requests
[1652883648.443618] [cn603-10-r:32611:0]          mpool.c:43   UCX  WARN  object 0x48e3840 was not returned to mpool ucp_requests
[1652883648.443990] [cn603-10-r:32611:0]          mpool.c:43   UCX  WARN  object 0x48c7980 was not returned to mpool ucp_requests
[1652883648.444011] [cn603-10-r:32611:0]          mpool.c:43   UCX  WARN  object 0x48c7b40 was not returned to mpool ucp_requests
[1652883648.444025] [cn603-10-r:32611:0]          mpool.c:43   UCX  WARN  object 0x48c7d00 was not returned to mpool ucp_requests
[1652883648.444038] [cn603-10-r:32611:0]          mpool.c:43   UCX  WARN  object 0x48c7ec0 was not returned to mpool ucp_requests
[1652883648.444050] [cn603-10-r:32611:0]          mpool.c:43   UCX  WARN  object 0x48c8080 was not returned to mpool ucp_requests
[1652883648.444063] [cn603-10-r:32611:0]          mpool.c:43   UCX  WARN  object 0x48c8240 was not returned to mpool ucp_requests
[1652883648.444075] [cn603-10-r:32611:0]          mpool.c:43   UCX  WARN  object 0x48c8400 was not returned to mpool ucp_requests
[1652883648.444088] [cn603-10-r:32611:0]          mpool.c:43   UCX  WARN  object 0x48c85c0 was not returned to mpool ucp_requests
[1652883648.444100] [cn603-10-r:32611:0]          mpool.c:43   UCX  WARN  object 0x48c8780 was not returned to mpool ucp_requests
[1652883648.444113] [cn603-10-r:32611:0]          mpool.c:43   UCX  WARN  object 0x48c8940 was not returned to mpool ucp_requests
[1652883648.444125] [cn603-10-r:32611:0]          mpool.c:43   UCX  WARN  object 0x48c8b00 was not returned to mpool ucp_requests
[1652883648.444138] [cn603-10-r:32611:0]          mpool.c:43   UCX  WARN  object 0x48c8cc0 was not returned to mpool ucp_requests
[1652883648.444150] [cn603-10-r:32611:0]          mpool.c:43   UCX  WARN  object 0x48c8e80 was not returned to mpool ucp_requests
[1652883648.444162] [cn603-10-r:32611:0]          mpool.c:43   UCX  WARN  object 0x48c9040 was not returned to mpool ucp_requests
[1652883648.444175] [cn603-10-r:32611:0]          mpool.c:43   UCX  WARN  object 0x48c9200 was not returned to mpool ucp_requests
[1652883648.444187] [cn603-10-r:32611:0]          mpool.c:43   UCX  WARN  object 0x48c93c0 was not returned to mpool ucp_requests
[1652883648.444199] [cn603-10-r:32611:0]          mpool.c:43   UCX  WARN  object 0x48c9580 was not returned to mpool ucp_requests
[1652883648.444212] [cn603-10-r:32611:0]          mpool.c:43   UCX  WARN  object 0x48c9740 was not returned to mpool ucp_requests
[1652883648.444224] [cn603-10-r:32611:0]          mpool.c:43   UCX  WARN  object 0x48c9900 was not returned to mpool ucp_requests
[1652883648.444237] [cn603-10-r:32611:0]          mpool.c:43   UCX  WARN  object 0x48c9ac0 was not returned to mpool ucp_requests
[1652883648.444249] [cn603-10-r:32611:0]          mpool.c:43   UCX  WARN  object 0x48c9c80 was not returned to mpool ucp_requests
[1652883648.444262] [cn603-10-r:32611:0]          mpool.c:43   UCX  WARN  object 0x48c9e40 was not returned to mpool ucp_requests
[1652883648.444274] [cn603-10-r:32611:0]          mpool.c:43   UCX  WARN  object 0x48ca000 was not returned to mpool ucp_requests
[1652883648.444287] [cn603-10-r:32611:0]          mpool.c:43   UCX  WARN  object 0x48ca1c0 was not returned to mpool ucp_requests
[1652883648.444299] [cn603-10-r:32611:0]          mpool.c:43   UCX  WARN  object 0x48ca380 was not returned to mpool ucp_requests
[1652883648.444311] [cn603-10-r:32611:0]          mpool.c:43   UCX  WARN  object 0x48ca540 was not returned to mpool ucp_requests
[1652883648.444323] [cn603-10-r:32611:0]          mpool.c:43   UCX  WARN  object 0x48ca700 was not returned to mpool ucp_requests
[1652883648.444335] [cn603-10-r:32611:0]          mpool.c:43   UCX  WARN  object 0x48ca8c0 was not returned to mpool ucp_requests
[1652883648.444348] [cn603-10-r:32611:0]          mpool.c:43   UCX  WARN  object 0x48caa80 was not returned to mpool ucp_requests
[1652883648.444360] [cn603-10-r:32611:0]          mpool.c:43   UCX  WARN  object 0x48cac40 was not returned to mpool ucp_requests
[1652883648.444373] [cn603-10-r:32611:0]          mpool.c:43   UC[1652883648.443076] [cn603-13-r:170164:0]          mpool.c:43   UCX  WARN  object 0x3803100 was not returned to mpool ucp_requests
[1652883648.443093] [cn603-13-r:170164:0]          mpool.c:43   UCX  WARN  object 0x38032c0 was not returned to mpool ucp_requests
[1652883648.443109] [cn603-13-r:170164:0]          mpool.c:43   UCX  WARN  object 0x3803480 was not returned to mpool ucp_requests
[1652883648.443130] [cn603-13-r:170164:0]          mpool.c:43   UCX  WARN  object 0x3803640 was not returned to mpool ucp_requests
[1652883648.443147] [cn603-13-r:170164:0]          mpool.c:43   UCX  WARN  object 0x3803800 was not returned to mpool ucp_requests
[1652883648.444377] [cn603-10-r:32629:0]          mpool.c:43   UCX  WARN  object 0x3bea2c0 was not returned to mpool ucp_requests
[1652883648.444408] [cn603-10-r:32629:0]          mpool.c:43   UCX  WARN  object 0x3bea480 was not returned to mpool ucp_requests
[1652883648.444420] [cn603-10-r:32629:0]          mpool.c:43   UCX  WARN  object 0x3bea640 was not returned to mpool ucp_requests
[1652883648.444426] [cn603-10-r:32629:0]          mpool.c:43   UCX  WARN  object 0x3bea800 was not returned to mpool ucp_requests
[1652883648.444431] [cn603-10-r:32629:0]          mpool.c:43   UCX  WARN  object 0x3bea9c0 was not returned to mpool ucp_requests
[1652883648.444437] [cn603-10-r:32629:0]          mpool.c:43   UCX  WARN  object 0x3beab80 was not returned to mpool ucp_requests
[1652883648.444442] [cn603-10-r:32629:0]          mpool.c:43   UCX  WARN  object 0x3bead40 was not returned to mpool ucp_requests
[1652883648.444452] [cn603-10-r:32629:0]          mpool.c:43   UCX  WARN  object 0x3beaf00 was not returned to mpool ucp_requests
[1652883648.444457] [cn603-10-r:32629:0]          mpool.c:43   UCX  WARN  object 0x3beb0c0 was not returned to mpool ucp_requests
[1652883648.444463] [cn603-10-r:32629:0]          mpool.c:43   UCX  WARN  object 0x3beb280 was not returned to mpool ucp_requests
[1652883648.444468] [cn603-10-r:32629:0]          mpool.c:43   UCX  WARN  object 0x3beb440 was not returned to mpool ucp_requests
[1652883648.444473] [cn603-10-r:32629:0]          mpool.c:43   UCX  WARN  object 0x3beb600 was not returned to mpool ucp_requests
[1652883648.444489] [cn603-10-r:32629:0]          mpool.c:43   UCX  WARN  object 0x3beb7c0 was not returned to mpool ucp_requests
[1652883648.444494] [cn603-10-r:32629:0]          mpool.c:43   UCX  WARN  object 0x3beb980 was not returned to mpool ucp_requests
[1652883648.444500] [cn603-10-r:32629:0]          mpool.c:43   UCX  WARN  object 0x3bebb40 was not returned to mpool ucp_requests
[1652883648.444505] [cn603-10-r:32629:0]          mpool.c:43   UCX  WARN  object 0x3bebd00 was not returned to mpool ucp_requests
[1652883648.444515] [cn603-10-r:32629:0]          mpool.c:43   UCX  WARN  object 0x3bebec0 was not returned to mpool ucp_requests
[1652883648.444520] [cn603-10-r:32629:0]          mpool.c:43   UCX  WARN  object 0x3bec080 was not returned to mpool ucp_requests
[1652883648.444526] [cn603-10-r:32629:0]          mpool.c:43   UCX  WARN  object 0x3bec240 was not returned to mpool ucp_requests
[1652883648.444535] [cn603-10-r:32629:0]          mpool.c:43   UCX  WARN  object 0x3bec400 was not returned to mpool ucp_requests
[1652883648.444541] [cn603-10-r:32629:0]          mpool.c:43   UCX  WARN  object 0x3bec5c0 was not returned to mpool ucp_requests
[1652883648.444551] [cn603-10-r:32629:0]          mpool.c:43   UCX  WARN  object 0x3bec780 was not returned to mpool ucp_requests
[1652883648.444556] [cn603-10-r:32629:0]          mpool.c:43   UCX  WARN  object 0x3bec940 was not returned to mpool ucp_requests
[1652883648.444562] [cn603-10-r:32629:0]          mpool.c:43   UCX  WARN  object 0x3becb00 was not returned to mpool ucp_requests
[1652883648.444572] [cn603-10-r:32629:0]          mpool.c:43   UCX  WARN  object 0x3beccc0 was not returned to mpool ucp_requests
[1652883648.444577] [cn603-10-r:32629:0]          mpool.c:43   UCX  WARN  object 0x3bece80 was not returned to mpool ucp_requests
[1652883648.444582] [cn603-10-r:32629:0]          mpool.c:43   UCX  WARN  object 0x3bed040 was not returned to mpool ucp_requests
[1652883648.444588] [cn603-10-r:32629:0]          mpool.c:43   UCX  WARN  object 0x3bed200 was not returned to mpool ucp_requests
[1652883648.444593] [cn603-10-r:32629:0]          mpool.c:43   UCX  WARN  object 0x3bed3c0 was not returned to mpool ucp_requests
[1652883648.444608] [cn603-10-r:32629:0]          mpool.c:43   UCX  WARN  object 0x3bed580 was not returned to mpool ucp_requests
[1652883648.444613] [cn603-10-r:32629:0]          mpool.c:43   UCX  WARN  object 0x3bed740 was not returned to mpool ucp_requests
[1652883648.444618] [cn603-10-r:32629:0]          mpool.c:43   UCX  WARN  object 0x48cae00 was not returned to mpool ucp_requests
[1652883648.444386] [cn603-10-r:32611:0]          mpool.c:43   UCX  WARN  object 0x48cafc0 was not returned to mpool ucp_requests
[1652883648.444398] [cn603-10-r:32611:0]          mpool.c:43   UCX  WARN  object 0x48cb180 was not returned to mpool ucp_requests
[1652883648.444411] [cn603-10-r:32611:0]          mpool.c:43   UCX  WARN  object 0x48cb340 was not returned to mpool ucp_requests
[1652883648.444423] [cn603-10-r:32611:0]          mpool.c:43   UCX  WARN  object 0x48cb500 was not returned to mpool ucp_requests
[1652883648.444435] [cn603-10-r:32611:0]          mpool.c:43   UCX  WARN  object 0x48cb6c0 was not returned to mpool ucp_requests
[1652883648.444442] [cn603-10-r:32611:0]          mpool.c:43   UCX  WARN  object 0x48cb880 was not returned to mpool ucp_requests
[1652883648.444450] [cn603-10-r:32611:0]          mpool.c:43   UCX  WARN  object 0x48cba40 was not returned to mpool ucp_requests
[1652883648.444463] [cn603-10-r:32611:0]          mpool.c:43   UCX  WARN  object 0x48cbc00 was not returned to mpool ucp_requests
[1652883648.444476] [cn603-10-r:32611:0]          mpool.c:43   UCX  WARN  object 0x48cbdc0 was not returned to mpool ucp_requests
[1652883648.444488] [cn603-10-r:32611:0]          mpool.c:43   UCX  WARN  object 0x48cbf80 was not returned to mpool ucp_requests
[1652883648.444499] [cn603-10-r:32611:0]          mpool.c:43   UCX  WARN  object 0x48cc140 was not returned to mpool ucp_requests
[1652883648.444512] [cn603-10-r:32611:0]          mpool.c:43   UCX  WARN  object 0x48cc300 was not returned to mpool ucp_requests
[1652883648.444524] [cn603-10-r:32611:0]          mpool.c:43   UCX  WARN  object 0x48cc4c0 was not returned to mpool ucp_requests
[1652883648.444536] [cn603-10-r:32611:0]          mpool.c:43   UCX  WARN  object 0x48cc680 was not returned to mpool ucp_requests
[1652883648.444548] [cn603-10-r:32611:0]          mpool.c:43   UCX  WARN  object 0x48cc840 was not returned to mpool ucp_requests
[1652883648.444560] [cn603-10-r:32611:0]          mpool.c:43   UCX  WARN  object 0x48cca00 was not returned to mpool ucp_requests
[1652883648.444572] [cn603-10-r:32611:0]          mpool.c:43   UCX  WARN  object 0x48ccbc0 was not returned to mpool ucp_requests
[1652883648.444584] [cn603-10-r:32611:0]          mpool.c:43   UCX  WARN  object 0x48ccd80 was not returned to mpool ucp_requests
[1652883648.444595] [cn603-10-r:32611:0]          mpool.c:43   UCX  WARN  object 0x48ccf40 was not returned to mpool ucp_requests
[1652883648.444607] [cn603-10-r:32611:0]          mpool.c:43   UCX  WARN  object 0x48cd100 was not returned to mpool ucp_requests
[1652883648.444619] [cn603-10-r:32611:0]          mpool.c:43   UCX  WARN  object 0x48cd2c0 was not returned to mpool ucp_requests
[1652883648.444631] [cn603-10-r:32611:0]          mpool.c:43   UCX  WARN  object 0x48cd480 was not returned to mpool ucp_requests
[1652883648.444643] [cn603-10-r:32611:0]          mpool.c:43   UCX  WARN  object 0x48cd640 was not returned to mpool ucp_requests
[1652883648.444655] [cn603-10-r:32611:0]          mpool.c:43   UCX  WARN  object 0x48cd800 was not returned to mpool ucp_requests
[1652883648.444667] [cn603-10-r:32611:0]          mpool.c:43   UCX  WARN  object 0x48cd9c0 was not returned to mpool ucp_requests
[1652883648.444680] [cn603-10-r:32611:0]          mpool.c:43   UCX  WARN  object 0x48cdb80 was not returned to mpool ucp_requests
[1652883648.444691] [cn603-10-r:32611:0]          mpool.c:43   UCX  WARN  object 0x48cdd40 was not returned to mpool ucp_requests
[1652883648.444703] [cn603-10-r:32611:0]          mpool.c:43   UCX  WARN  object 0x48cdf00 was not returned to mpool ucp_requests
[1652883648.444715] [cn603-10-r:32611:0]          mpool.c:43   UCX  WARN  object 0x48ce0c0 was not returned to mpool ucp_requests
[1652883648.444727] [cn603-10-r:32611:0]          mpool.c:43   UCX  WARN  object 0x48ce280 was not returned to mpool ucp_requests
[1652883648.444740] [cn603-10-r:32611:0]          mpool.c:43   UCX  WARN  object 0x48ce440 was not returned to mpool ucp_requests
[1652883648.443172] [cn603-13-r:170164:0]          mpool.c:43   UCX  WARN  object 0x38039c0 was not returned to mpool ucp_requests
[1652883648.443189] [cn603-13-r:170164:0]          mpool.c:43   UCX  WARN  object 0x3803b80 was not returned to mpool ucp_requests
[1652883648.443205] [cn603-13-r:170164:0]          mpool.c:43   UCX  WARN  object 0x3803d40 was not returned to mpool ucp_requests
[1652883648.443231] [cn603-13-r:170164:0]          mpool.c:43   UCX  WARN  object 0x3803f00 was not returned to mpool ucp_requests
[1652883648.443248] [cn603-13-r:170164:0]          mpool.c:43   UCX  WARN  object 0x38040c0 was not returned to mpool ucp_requests
X  WARN  object 0x3bed900 was not returned to mpool ucp_requests
[1652883648.444624] [cn603-10-r:32629:0]          mpool.c:43   UCX  WARN  object 0x3bedac0 was not returned to mpool ucp_requests
[1652883648.444629] [cn603-10-r:32629:0]          mpool.c:43   UCX  WARN  object 0x3bedc80 was not returned to mpool ucp_requests
[1652883648.444635] [cn603-10-r:32629:0]          mpool.c:43   UCX  WARN  object 0x3bede40 was not returned to mpool ucp_requests
[1652883648.444640] [cn603-10-r:32629:0]          mpool.c:43   UCX  WARN  object 0x3bee000 was not returned to mpool ucp_requests
[1652883648.444651] [cn603-10-r:32629:0]          mpool.c:43   UCX  WARN  object 0x3bee1c0 was not returned to mpool ucp_requests
[1652883648.444657] [cn603-10-r:32629:0]          mpool.c:43   UCX  WARN  object 0x3bee380 was not returned to mpool ucp_requests
[1652883648.444662] [cn603-10-r:32629:0]          mpool.c:43   UCX  WARN  object 0x3bee540 was not returned to mpool ucp_requests
[1652883648.444668] [cn603-10-r:32629:0]          mpool.c:43   UCX  WARN  object 0x3bee700 was not returned to mpool ucp_requests
[1652883648.444673] [cn603-10-r:32629:0]          mpool.c:43   UCX  WARN  object 0x3bee8c0 was not returned to mpool ucp_requests
[1652883648.444679] [cn603-10-r:32629:0]          mpool.c:43   UCX  WARN  object 0x3beea80 was not returned to mpool ucp_requests
[1652883648.444689] [cn603-10-r:32629:0]          mpool.c:43   UCX  WARN  object 0x3beec40 was not returned to mpool ucp_requests
[1652883648.444695] [cn603-10-r:32629:0]          mpool.c:43   UCX  WARN  object 0x3beee00 was not returned to mpool ucp_requests
[1652883648.444700] [cn603-10-r:32629:0]          mpool.c:43   UCX  WARN  object 0x3beefc0 was not returned to mpool ucp_requests
[1652883648.444711] [cn603-10-r:32629:0]          mpool.c:43   UCX  WARN  object 0x3bef180 was not returned to mpool ucp_requests
[1652883648.444716] [cn603-10-r:32629:0]          mpool.c:43   UCX  WARN  object 0x3bef340 was not returned to mpool ucp_requests
[1652883648.444722] [cn603-10-r:32629:0]          mpool.c:43   UCX  WARN  object 0x3bef500 was not returned to mpool ucp_requests
[1652883648.444727] [cn603-10-r:32629:0]          mpool.c:43   UCX  WARN  object 0x3bef6c0 was not returned to mpool ucp_requests
[1652883648.444733] [cn603-10-r:32629:0]          mpool.c:43   UCX  WARN  object 0x3bef880 was not returned to mpool ucp_requests
[1652883648.444739] [cn603-10-r:32629:0]          mpool.c:43   UCX  WARN  object 0x3befa40 was not returned to mpool ucp_requests
[1652883648.444745] [cn603-10-r:32629:0]          mpool.c:43   UCX  WARN  object 0x3befc00 was not returned to mpool ucp_requests
[1652883648.444750] [cn603-10-r:32629:0]          mpool.c:43   UCX  WARN  object 0x3befdc0 was not returned to mpool ucp_requests
[1652883648.444756] [cn603-10-r:32629:0]          mpool.c:43   UCX  WARN  object 0x3beff80 was not returned to mpool ucp_requests
[1652883648.444768] [cn603-10-r:32629:0]          mpool.c:43   UCX  WARN  object 0x3bf0140 was not returned to mpool ucp_requests
[1652883648.444773] [cn603-10-r:32629:0]          mpool.c:43   UCX  WARN  object 0x3bf0300 was not returned to mpool ucp_requests
[1652883648.444795] [cn603-10-r:32629:0]          mpool.c:43   UCX  WARN  object 0x3bf04c0 was not returned to mpool ucp_requests
[1652883648.444814] [cn603-10-r:32629:0]          mpool.c:43   UCX  WARN  object 0x3bf0680 was not returned to mpool ucp_requests
[1652883648.444820] [cn603-10-r:32629:0]          mpool.c:43   UCX  WARN  object 0x3bf0840 was not returned to mpool ucp_requests
[1652883648.444825] [cn603-10-r:32629:0]          mpool.c:43   UCX  WARN  object 0x3bf0a00 was not returned to mpool ucp_requests
[1652883648.444831] [cn603-10-r:32629:0]          mpool.c:43   UCX  WARN  object 0x3bf0bc0 was not returned to mpool ucp_requests
[1652883648.444836] [cn603-10-r:32629:0]          mpool.c:43   UCX  WARN  object 0x3bf0d80 was not returned to mpool ucp_requests
[1652883648.444846] [cn603-10-r:32629:0]          mpool.c:43   UCX  WARN  object 0x3bf0f40 was not returned to mpool ucp_requests
[1652883648.444753] [cn603-10-r:32611:0]          mpool.c:43   UCX  WARN  object 0x48ce600 was not returned to mpool ucp_requests
[1652883648.444765] [cn603-10-r:32611:0]          mpool.c:43   UCX  WARN  object 0x48ce7c0 was not returned to mpool ucp_requests
[1652883648.444777] [cn603-10-r:32611:0]          mpool.c:43   UCX  WARN  object 0x48ce980 was not returned to mpool ucp_requests
[1652883648.444789] [cn603-10-r:32611:0]          mpool.c:43   UCX  WARN  object 0x48ceb40 was not returned to mpool ucp_requests
[1652883648.444801] [cn603-10-r:32611:0]          mpool.c:43   UCX  WARN  object 0x48ced00 was not returned to mpool ucp_requests
[1652883648.444820] [cn603-10-r:32611:0]          mpool.c:43   UCX  WARN  object 0x48ceec0 was not returned to mpool ucp_requests
[1652883648.444828] [cn603-10-r:32611:0]          mpool.c:43   UCX  WARN  object 0x48cf080 was not returned to mpool ucp_requests
[1652883648.444836] [cn603-10-r:32611:0]          mpool.c:43   UCX  WARN  object 0x48cf240 was not returned to mpool ucp_requests
[1652883648.444849] [cn603-10-r:32611:0]          mpool.c:43   UCX  WARN  object 0x48cf400 was not returned to mpool ucp_requests
[1652883648.444862] [cn603-10-r:32611:0]          mpool.c:43   UCX  WARN  object 0x48cf5c0 was not returned to mpool ucp_requests
[1652883648.444874] [cn603-10-r:32611:0]          mpool.c:43   UCX  WARN  object 0x48cf780 was not returned to mpool ucp_requests
[1652883648.444886] [cn603-10-r:32611:0]          mpool.c:43   UCX  WARN  object 0x48cf940 was not returned to mpool ucp_requests
[1652883648.444898] [cn603-10-r:32611:0]          mpool.c:43   UCX  WARN  object 0x48cfb00 was not returned to mpool ucp_requests
[1652883648.444911] [cn603-10-r:32611:0]          mpool.c:43   UCX  WARN  object 0x48cfcc0 was not returned to mpool ucp_requests
[1652883648.444923] [cn603-10-r:32611:0]          mpool.c:43   UCX  WARN  object 0x48cfe80 was not returned to mpool ucp_requests
[1652883648.444935] [cn603-10-r:32611:0]          mpool.c:43   UCX  WARN  object 0x48d0040 was not returned to mpool ucp_requests
[1652883648.444947] [cn603-10-r:32611:0]          mpool.c:43   UCX  WARN  object 0x48d0200 was not returned to mpool ucp_requests
[1652883648.444968] [cn603-10-r:32611:0]          mpool.c:43   UCX  WARN  object 0x48d03c0 was not returned to mpool ucp_requests
[1652883648.444983] [cn603-10-r:32611:0]          mpool.c:43   UCX  WARN  object 0x48d0580 was not returned to mpool ucp_requests
[1652883648.444995] [cn603-10-r:32611:0]          mpool.c:43   UCX  WARN  object 0x48d0740 was not returned to mpool ucp_requests
[1652883648.445007] [cn603-10-r:32611:0]          mpool.c:43   UCX  WARN  object 0x48d0900 was not returned to mpool ucp_requests
[1652883648.445019] [cn603-10-r:32611:0]          mpool.c:43   UCX  WARN  object 0x48d0ac0 was not returned to mpool ucp_requests
[1652883648.445030] [cn603-10-r:32611:0]          mpool.c:43   UCX  WARN  object 0x48d0c80 was not returned to mpool ucp_requests
[1652883648.445042] [cn603-10-r:32611:0]          mpool.c:43   UCX  WARN  object 0x48d0e40 was not returned to mpool ucp_requests
[1652883648.445053] [cn603-10-r:32611:0]          mpool.c:43   UCX  WARN  object 0x48d1000 was not returned to mpool ucp_requests
[1652883648.445065] [cn603-10-r:32611:0]          mpool.c:43   UCX  WARN  object 0x48d11c0 was not returned to mpool ucp_requests
[1652883648.445076] [cn603-10-r:32611:0]          mpool.c:43   UCX  WARN  object 0x48d1380 was not returned to mpool ucp_requests
[1652883648.445088] [cn603-10-r:32611:0]          mpool.c:43   UCX  WARN  object 0x48d1540 was not returned to mpool ucp_requests
[1652883648.445099] [cn603-10-r:32611:0]          mpool.c:43   UCX  WARN  object 0x48d1700 was not returned to mpool ucp_requests
[1652883648.445111] [cn603-10-r:32611:0]          mpool.c:43   UCX  WARN  object 0x48d18c0 was not returned to mpool ucp_requests
[1652883648.445122] [cn603-10-r:32611:0]          mpool.c:43   UCX  WARN  object 0x48d1a80 was not returned to mpool ucp_requests
[1652883648.445134] [cn603-10-r:32611:0]          mpool.c:43   UC[1652883648.443271] [cn603-13-r:170164:0]          mpool.c:43   UCX  WARN  object 0x3804280 was not returned to mpool ucp_requests
[1652883648.443288] [cn603-13-r:170164:0]          mpool.c:43   UCX  WARN  object 0x3804440 was not returned to mpool ucp_requests
[1652883648.443304] [cn603-13-r:170164:0]          mpool.c:43   UCX  WARN  object 0x3804600 was not returned to mpool ucp_requests
[1652883648.443321] [cn603-13-r:170164:0]          mpool.c:43   UCX  WARN  object 0x38047c0 was not returned to mpool ucp_requests
[1652883648.444340] [cn603-11-r:242457:0]          mpool.c:43   UCX  WARN  object 0x4a07dc0 was not returned to mpool ucp_requests
[1652883648.444412] [cn603-11-r:242457:0]          mpool.c:43   UCX  WARN  object 0x4a07f80 was not returned to mpool ucp_requests
[1652883648.444445] [cn603-11-r:242457:0]          mpool.c:43   UCX  WARN  object 0x4a08140 was not returned to mpool ucp_requests
[1652883648.444464] [cn603-11-r:242457:0]          mpool.c:43   UCX  WARN  object 0x4a08300 was not returned to mpool ucp_requests
[1652883648.444481] [cn603-11-r:242457:0]          mpool.c:43   UCX  WARN  object 0x4a084c0 was not returned to mpool ucp_requests
[1652883648.444497] [cn603-11-r:242457:0]          mpool.c:43   UCX  WARN  object 0x4a08680 was not returned to mpool ucp_requests
[1652883648.444514] [cn603-11-r:242457:0]          mpool.c:43   UCX  WARN  object 0x4a08840 was not returned to mpool ucp_requests
[1652883648.444852] [cn603-10-r:32629:0]          mpool.c:43   UCX  WARN  object 0x3bf1100 was not returned to mpool ucp_requests
[1652883648.444857] [cn603-10-r:32629:0]          mpool.c:43   UCX  WARN  object 0x3bf12c0 was not returned to mpool ucp_requests
[1652883648.444862] [cn603-10-r:32629:0]          mpool.c:43   UCX  WARN  object 0x3bf1480 was not returned to mpool ucp_requests
[1652883648.444867] [cn603-10-r:32629:0]          mpool.c:43   UCX  WARN  object 0x3bf1640 was not returned to mpool ucp_requests
[1652883648.444873] [cn603-10-r:32629:0]          mpool.c:43   UCX  WARN  object 0x3bf1800 was not returned to mpool ucp_requests
[1652883648.444878] [cn603-10-r:32629:0]          mpool.c:43   UCX  WARN  object 0x3bf19c0 was not returned to mpool ucp_requests
[1652883648.444883] [cn603-10-r:32629:0]          mpool.c:43   UCX  WARN  object 0x3bf1b80 was not returned to mpool ucp_requests
[1652883648.444888] [cn603-10-r:32629:0]          mpool.c:43   UCX  WARN  object 0x3bf1d40 was not returned to mpool ucp_requests
[1652883648.444894] [cn603-10-r:32629:0]          mpool.c:43   UCX  WARN  object 0x3bf1f00 was not returned to mpool ucp_requests
[1652883648.444905] [cn603-10-r:32629:0]          mpool.c:43   UCX  WARN  object 0x3bf20c0 was not returned to mpool ucp_requests
[1652883648.444911] [cn603-10-r:32629:0]          mpool.c:43   UCX  WARN  object 0x3bf2280 was not returned to mpool ucp_requests
[1652883648.444917] [cn603-10-r:32629:0]          mpool.c:43   UCX  WARN  object 0x3bf2440 was not returned to mpool ucp_requests
[1652883648.444922] [cn603-10-r:32629:0]          mpool.c:43   UCX  WARN  object 0x3bf2600 was not returned to mpool ucp_requests
[1652883648.444927] [cn603-10-r:32629:0]          mpool.c:43   UCX  WARN  object 0x3bf27c0 was not returned to mpool ucp_requests
[1652883648.444933] [cn603-10-r:32629:0]          mpool.c:43   UCX  WARN  object 0x3bf2980 was not returned to mpool ucp_requests
[1652883648.444997] [cn603-10-r:32629:0]          mpool.c:43   UCX  WARN  object 0x3bf2b40 was not returned to mpool ucp_requests
[1652883648.445006] [cn603-10-r:32629:0]          mpool.c:43   UCX  WARN  object 0x3bf2d00 was not returned to mpool ucp_requests
[1652883648.445010] [cn603-10-r:32629:0]          mpool.c:43   UCX  WARN  object 0x3bf2ec0 was not returned to mpool ucp_requests
[1652883648.445013] [cn603-10-r:32629:0]          mpool.c:43   UCX  WARN  object 0x3bf3080 was not returned to mpool ucp_requests
[1652883648.445016] [cn603-10-r:32629:0]          mpool.c:43   UCX  WARN  object 0x3bf3240 was not returned to mpool ucp_requests
[1652883648.445019] [cn603-10-r:32629:0]          mpool.c:43   UCX  WARN  object 0x3bf3400 was not returned to mpool ucp_requests
[1652883648.445022] [cn603-10-r:32629:0]          mpool.c:43   UCX  WARN  object 0x3bf35c0 was not returned to mpool ucp_requests
[1652883648.445025] [cn603-10-r:32629:0]          mpool.c:43   UCX  WARN  object 0x3bf3780 was not returned to mpool ucp_requests
[1652883648.445028] [cn603-10-r:32629:0]          mpool.c:43   UCX  WARN  object 0x3bf3940 was not returned to mpool ucp_requests
[1652883648.445031] [cn603-10-r:32629:0]          mpool.c:43   UCX  WARN  object 0x3bf3b00 was not returned to mpool ucp_requests
[1652883648.445034] [cn603-10-r:32629:0]          mpool.c:43   UCX  WARN  object 0x3bf3cc0 was not returned to mpool ucp_requests
[1652883648.445037] [cn603-10-r:32629:0]          mpool.c:43   UCX  WARN  object 0x3bf3e80 was not returned to mpool ucp_requests
[1652883648.445040] [cn603-10-r:32629:0]          mpool.c:43   UCX  WARN  object 0x3bf4040 was not returned to mpool ucp_requests
[1652883648.445044] [cn603-10-r:32629:0]          mpool.c:43   UCX  WARN  object 0x3bf4200 was not returned to mpool ucp_requests
[1652883648.445047] [cn603-10-r:32629:0]          mpool.c:43   UCX  WARN  object 0x3bf43c0 was not returned to mpool ucp_requests
[1652883648.445050] [cn603-10-r:32629:0]          mpool.c:43   UCX  WARN  object 0x3bf4580 was not returned to mpool ucp_requests
[1652883648.445053] [cn603-10-r:32629:0]          mpool.c:43   UCX  WARN  object 0x48d1c40 was not returned to mpool ucp_requests
[1652883648.445146] [cn603-10-r:32611:0]          mpool.c:43   UCX  WARN  object 0x48d1e00 was not returned to mpool ucp_requests
[1652883648.445157] [cn603-10-r:32611:0]          mpool.c:43   UCX  WARN  object 0x48d1fc0 was not returned to mpool ucp_requests
[1652883648.445169] [cn603-10-r:32611:0]          mpool.c:43   UCX  WARN  object 0x48d2180 was not returned to mpool ucp_requests
[1652883648.445180] [cn603-10-r:32611:0]          mpool.c:43   UCX  WARN  object 0x48d2340 was not returned to mpool ucp_requests
[1652883648.445192] [cn603-10-r:32611:0]          mpool.c:43   UCX  WARN  object 0x48d2500 was not returned to mpool ucp_requests
[1652883648.445203] [cn603-10-r:32611:0]          mpool.c:43   UCX  WARN  object 0x48d26c0 was not returned to mpool ucp_requests
[1652883648.445214] [cn603-10-r:32611:0]          mpool.c:43   UCX  WARN  object 0x48d2880 was not returned to mpool ucp_requests
[1652883648.445226] [cn603-10-r:32611:0]          mpool.c:43   UCX  WARN  object 0x48d2a40 was not returned to mpool ucp_requests
[1652883648.445238] [cn603-10-r:32611:0]          mpool.c:43   UCX  WARN  object 0x48d2c00 was not returned to mpool ucp_requests
[1652883648.445250] [cn603-10-r:32611:0]          mpool.c:43   UCX  WARN  object 0x48d2dc0 was not returned to mpool ucp_requests
[1652883648.445263] [cn603-10-r:32611:0]          mpool.c:43   UCX  WARN  object 0x48d2f80 was not returned to mpool ucp_requests
[1652883648.445275] [cn603-10-r:32611:0]          mpool.c:43   UCX  WARN  object 0x48d3140 was not returned to mpool ucp_requests
[1652883648.445286] [cn603-10-r:32611:0]          mpool.c:43   UCX  WARN  object 0x48d3300 was not returned to mpool ucp_requests
[1652883648.445298] [cn603-10-r:32611:0]          mpool.c:43   UCX  WARN  object 0x48d34c0 was not returned to mpool ucp_requests
[1652883648.445309] [cn603-10-r:32611:0]          mpool.c:43   UCX  WARN  object 0x48d3680 was not returned to mpool ucp_requests
[1652883648.445321] [cn603-10-r:32611:0]          mpool.c:43   UCX  WARN  object 0x48d3840 was not returned to mpool ucp_requests
[1652883648.445332] [cn603-10-r:32611:0]          mpool.c:43   UCX  WARN  object 0x48d3a00 was not returned to mpool ucp_requests
[1652883648.445343] [cn603-10-r:32611:0]          mpool.c:43   UCX  WARN  object 0x48d3bc0 was not returned to mpool ucp_requests
[1652883648.445355] [cn603-10-r:32611:0]          mpool.c:43   UCX  WARN  object 0x48d3d80 was not returned to mpool ucp_requests
[1652883648.445373] [cn603-10-r:32611:0]          mpool.c:43   UCX  WARN  object 0x48d3f40 was not returned to mpool ucp_requests
[1652883648.445393] [cn603-10-r:32611:0]          mpool.c:43   UCX  WARN  object 0x48d4100 was not returned to mpool ucp_requests
[1652883648.445405] [cn603-10-r:32611:0]          mpool.c:43   UCX  WARN  object 0x48d42c0 was not returned to mpool ucp_requests
[1652883648.445417] [cn603-10-r:32611:0]          mpool.c:43   UCX  WARN  object 0x48d4480 was not returned to mpool ucp_requests
[1652883648.445428] [cn603-10-r:32611:0]          mpool.c:43   UCX  WARN  object 0x48d4640 was not returned to mpool ucp_requests
[1652883648.445440] [cn603-10-r:32611:0]          mpool.c:43   UCX  WARN  object 0x48d4800 was not returned to mpool ucp_requests
[1652883648.445452] [cn603-10-r:32611:0]          mpool.c:43   UCX  WARN  object 0x48d49c0 was not returned to mpool ucp_requests
[1652883648.445463] [cn603-10-r:32611:0]          mpool.c:43   UCX  WARN  object 0x48d4b80 was not returned to mpool ucp_requests
[1652883648.445475] [cn603-10-r:32611:0]          mpool.c:43   UCX  WARN  object 0x48d4d40 was not returned to mpool ucp_requests
[1652883648.445486] [cn603-10-r:32611:0]          mpool.c:43   UCX  WARN  object 0x48d4f00 was not returned to mpool ucp_requests
[1652883648.445498] [cn603-10-r:32611:0]          mpool.c:43   UCX  WARN  object 0x48d50c0 was not returned to mpool ucp_requests
[1652883648.445509] [cn603-10-r:32611:0]          mpool.c:43   UCX  WARN  object 0x48d5280 was not returned to mpool ucp_requests
[1652883648.443337] [cn603-13-r:170164:0]          mpool.c:43   UCX  WARN  object 0x3804980 was not returned to mpool ucp_requests
[1652883648.443356] [cn603-13-r:170164:0]          mpool.c:43   UCX  WARN  object 0x3804b40 was not returned to mpool ucp_requests
[1652883648.443373] [cn603-13-r:170164:0]          mpool.c:43   UCX  WARN  object 0x3804d00 was not returned to mpool ucp_requests
[1652883648.443389] [cn603-13-r:170164:0]          mpool.c:43   UCX  WARN  object 0x3804ec0 was not returned to mpool ucp_requests
[1652883648.443406] [cn603-13-r:170164:0]          mpool.c:43   UCX  WARN  object 0x3805080 was not returned to mpool ucp_requests
[1652883648.444530] [cn603-11-r:242457:0]          mpool.c:43   UCX  WARN  object 0x4a08a00 was not returned to mpool ucp_requests
[1652883648.444559] [cn603-11-r:242457:0]          mpool.c:43   UCX  WARN  object 0x4a08bc0 was not returned to mpool ucp_requests
[1652883648.444576] [cn603-11-r:242457:0]          mpool.c:43   UCX  WARN  object 0x4a08d80 was not returned to mpool ucp_requests
[1652883648.444593] [cn603-11-r:242457:0]          mpool.c:43   UCX  WARN  object 0x4a08f40 was not returned to mpool ucp_requests
[1652883648.444610] [cn603-11-r:242457:0]          mpool.c:43   UCX  WARN  object 0x4a09100 was not returned to mpool ucp_requests
[1652883648.444626] [cn603-11-r:242457:0]          mpool.c:43   UCX  WARN  object 0x4a092c0 was not returned to mpool ucp_requests
[1652883648.444651] [cn603-11-r:242457:0]          mpool.c:43   UCX  WARN  object 0x4a09480 was not returned to mpool ucp_requests
[1652883648.444670] [cn603-11-r:242457:0]          mpool.c:43   UCX  WARN  object 0x4a09640 was not returned to mpool ucp_requests
[1652883648.444687] [cn603-11-r:242457:0]          mpool.c:43   UCX  WARN  object 0x4a09800 was not returned to mpool ucp_requests
X  WARN  object 0x3bf4740 was not returned to mpool ucp_requests
[1652883648.445057] [cn603-10-r:32629:0]          mpool.c:43   UCX  WARN  object 0x3bf4900 was not returned to mpool ucp_requests
[1652883648.445914] [cn603-10-r:32629:0]          mpool.c:43   UCX  WARN  object 0x3bf4ac0 was not returned to mpool ucp_requests
[1652883648.445941] [cn603-10-r:32629:0]          mpool.c:43   UCX  WARN  object 0x3bf4c80 was not returned to mpool ucp_requests
[1652883648.445976] [cn603-10-r:32629:0]          mpool.c:43   UCX  WARN  object 0x3bf4e40 was not returned to mpool ucp_requests
[1652883648.445995] [cn603-10-r:32629:0]          mpool.c:43   UCX  WARN  object 0x3bf5000 was not returned to mpool ucp_requests
[1652883648.446012] [cn603-10-r:32629:0]          mpool.c:43   UCX  WARN  object 0x3bf51c0 was not returned to mpool ucp_requests
[1652883648.446029] [cn603-10-r:32629:0]          mpool.c:43   UCX  WARN  object 0x3bf5380 was not returned to mpool ucp_requests
[1652883648.446045] [cn603-10-r:32629:0]          mpool.c:43   UCX  WARN  object 0x3bf5540 was not returned to mpool ucp_requests
[1652883648.446062] [cn603-10-r:32629:0]          mpool.c:43   UCX  WARN  object 0x3bf5700 was not returned to mpool ucp_requests
[1652883648.446078] [cn603-10-r:32629:0]          mpool.c:43   UCX  WARN  object 0x3bf58c0 was not returned to mpool ucp_requests
[1652883648.446094] [cn603-10-r:32629:0]          mpool.c:43   UCX  WARN  object 0x3bf5a80 was not returned to mpool ucp_requests
[1652883648.446111] [cn603-10-r:32629:0]          mpool.c:43   UCX  WARN  object 0x3bf5c40 was not returned to mpool ucp_requests
[1652883648.446127] [cn603-10-r:32629:0]          mpool.c:43   UCX  WARN  object 0x3bf5e00 was not returned to mpool ucp_requests
[1652883648.446143] [cn603-10-r:32629:0]          mpool.c:43   UCX  WARN  object 0x3bf5fc0 was not returned to mpool ucp_requests
[1652883648.446162] [cn603-10-r:32629:0]          mpool.c:43   UCX  WARN  object 0x3bda140 was not returned to mpool ucp_requests
[1652883648.446178] [cn603-10-r:32629:0]          mpool.c:43   UCX  WARN  object 0x3bda300 was not returned to mpool ucp_requests
[1652883648.446194] [cn603-10-r:32629:0]          mpool.c:43   UCX  WARN  object 0x3bda4c0 was not returned to mpool ucp_requests
[1652883648.446211] [cn603-10-r:32629:0]          mpool.c:43   UCX  WARN  object 0x3bda680 was not returned to mpool ucp_requests
[1652883648.446227] [cn603-10-r:32629:0]          mpool.c:43   UCX  WARN  object 0x3bda840 was not returned to mpool ucp_requests
[1652883648.446243] [cn603-10-r:32629:0]          mpool.c:43   UCX  WARN  object 0x3bdaa00 was not returned to mpool ucp_requests
[1652883648.446260] [cn603-10-r:32629:0]          mpool.c:43   UCX  WARN  object 0x3bdabc0 was not returned to mpool ucp_requests
[1652883648.446276] [cn603-10-r:32629:0]          mpool.c:43   UCX  WARN  object 0x3bdad80 was not returned to mpool ucp_requests
[1652883648.446292] [cn603-10-r:32629:0]          mpool.c:43   UCX  WARN  object 0x3bdaf40 was not returned to mpool ucp_requests
[1652883648.446308] [cn603-10-r:32629:0]          mpool.c:43   UCX  WARN  object 0x3bdb100 was not returned to mpool ucp_requests
[1652883648.446325] [cn603-10-r:32629:0]          mpool.c:43   UCX  WARN  object 0x3bdb2c0 was not returned to mpool ucp_requests
[1652883648.446342] [cn603-10-r:32629:0]          mpool.c:43   UCX  WARN  object 0x3bdb480 was not returned to mpool ucp_requests
[1652883648.446358] [cn603-10-r:32629:0]          mpool.c:43   UCX  WARN  object 0x3bdb640 was not returned to mpool ucp_requests
[1652883648.446374] [cn603-10-r:32629:0]          mpool.c:43   UCX  WARN  object 0x3bdb800 was not returned to mpool ucp_requests
[1652883648.446391] [cn603-10-r:32629:0]          mpool.c:43   UCX  WARN  object 0x3bdb9c0 was not returned to mpool ucp_requests
[1652883648.446407] [cn603-10-r:32629:0]          mpool.c:43   UCX  WARN  object 0x3bdbb80 was not returned to mpool ucp_requests
[1652883648.446423] [cn603-10-r:32629:0]          mpool.c:43   UCX  WARN  object 0x3bdbd40 was not returned to mpool ucp_requests
[1652883648.445521] [cn603-10-r:32611:0]          mpool.c:43   UCX  WARN  object 0x48d5440 was not returned to mpool ucp_requests
[1652883648.445533] [cn603-10-r:32611:0]          mpool.c:43   UCX  WARN  object 0x48d5600 was not returned to mpool ucp_requests
[1652883648.445544] [cn603-10-r:32611:0]          mpool.c:43   UCX  WARN  object 0x48d57c0 was not returned to mpool ucp_requests
[1652883648.445555] [cn603-10-r:32611:0]          mpool.c:43   UCX  WARN  object 0x48b9940 was not returned to mpool ucp_requests
[1652883648.445567] [cn603-10-r:32611:0]          mpool.c:43   UCX  WARN  object 0x48b9b00 was not returned to mpool ucp_requests
[1652883648.445578] [cn603-10-r:32611:0]          mpool.c:43   UCX  WARN  object 0x48b9cc0 was not returned to mpool ucp_requests
[1652883648.445589] [cn603-10-r:32611:0]          mpool.c:43   UCX  WARN  object 0x48b9e80 was not returned to mpool ucp_requests
[1652883648.445601] [cn603-10-r:32611:0]          mpool.c:43   UCX  WARN  object 0x48ba040 was not returned to mpool ucp_requests
[1652883648.445612] [cn603-10-r:32611:0]          mpool.c:43   UCX  WARN  object 0x48ba200 was not returned to mpool ucp_requests
[1652883648.445623] [cn603-10-r:32611:0]          mpool.c:43   UCX  WARN  object 0x48ba3c0 was not returned to mpool ucp_requests
[1652883648.445635] [cn603-10-r:32611:0]          mpool.c:43   UCX  WARN  object 0x48ba580 was not returned to mpool ucp_requests
[1652883648.445646] [cn603-10-r:32611:0]          mpool.c:43   UCX  WARN  object 0x48ba740 was not returned to mpool ucp_requests
[1652883648.445658] [cn603-10-r:32611:0]          mpool.c:43   UCX  WARN  object 0x48ba900 was not returned to mpool ucp_requests
[1652883648.445669] [cn603-10-r:32611:0]          mpool.c:43   UCX  WARN  object 0x48baac0 was not returned to mpool ucp_requests
[1652883648.445680] [cn603-10-r:32611:0]          mpool.c:43   UCX  WARN  object 0x48bac80 was not returned to mpool ucp_requests
[1652883648.445691] [cn603-10-r:32611:0]          mpool.c:43   UCX  WARN  object 0x48bae40 was not returned to mpool ucp_requests
[1652883648.445703] [cn603-10-r:32611:0]          mpool.c:43   UCX  WARN  object 0x48bb000 was not returned to mpool ucp_requests
[1652883648.445715] [cn603-10-r:32611:0]          mpool.c:43   UCX  WARN  object 0x48bb1c0 was not returned to mpool ucp_requests
[1652883648.445726] [cn603-10-r:32611:0]          mpool.c:43   UCX  WARN  object 0x48bb380 was not returned to mpool ucp_requests
[1652883648.445737] [cn603-10-r:32611:0]          mpool.c:43   UCX  WARN  object 0x48bb540 was not returned to mpool ucp_requests
[1652883648.445749] [cn603-10-r:32611:0]          mpool.c:43   UCX  WARN  object 0x48bb700 was not returned to mpool ucp_requests
[1652883648.445760] [cn603-10-r:32611:0]          mpool.c:43   UCX  WARN  object 0x48bb8c0 was not returned to mpool ucp_requests
[1652883648.445771] [cn603-10-r:32611:0]          mpool.c:43   UCX  WARN  object 0x48bba80 was not returned to mpool ucp_requests
[1652883648.445783] [cn603-10-r:32611:0]          mpool.c:43   UCX  WARN  object 0x48bbc40 was not returned to mpool ucp_requests
[1652883648.445795] [cn603-10-r:32611:0]          mpool.c:43   UCX  WARN  object 0x48bbe00 was not returned to mpool ucp_requests
[1652883648.445806] [cn603-10-r:32611:0]          mpool.c:43   UCX  WARN  object 0x48bbfc0 was not returned to mpool ucp_requests
[1652883648.445818] [cn603-10-r:32611:0]          mpool.c:43   UCX  WARN  object 0x48bc180 was not returned to mpool ucp_requests
[1652883648.445829] [cn603-10-r:32611:0]          mpool.c:43   UCX  WARN  object 0x48bc340 was not returned to mpool ucp_requests
[1652883648.445840] [cn603-10-r:32611:0]          mpool.c:43   UCX  WARN  object 0x48bc500 was not returned to mpool ucp_requests
[1652883648.445852] [cn603-10-r:32611:0]          mpool.c:43   UCX  WARN  object 0x48bc6c0 was not returned to mpool ucp_requests
[1652883648.445863] [cn603-10-r:32611:0]          mpool.c:43   UCX  WARN  object 0x48bc880 was not returned to mpool ucp_requests
[1652883648.445875] [cn603-10-r:32611:0]          mpool.c:43   UC[1652883648.443429] [cn603-13-r:170164:0]          mpool.c:43   UCX  WARN  object 0x3805240 was not returned to mpool ucp_requests
[1652883648.443445] [cn603-13-r:170164:0]          mpool.c:43   UCX  WARN  object 0x3805400 was not returned to mpool ucp_requests
[1652883648.443462] [cn603-13-r:170164:0]          mpool.c:43   UCX  WARN  object 0x38055c0 was not returned to mpool ucp_requests
[1652883648.443478] [cn603-13-r:170164:0]          mpool.c:43   UCX  WARN  object 0x3805780 was not returned to mpool ucp_requests
[1652883648.444711] [cn603-11-r:242457:0]          mpool.c:43   UCX  WARN  object 0x4a099c0 was not returned to mpool ucp_requests
[1652883648.444728] [cn603-11-r:242457:0]          mpool.c:43   UCX  WARN  object 0x4a09b80 was not returned to mpool ucp_requests
[1652883648.444745] [cn603-11-r:242457:0]          mpool.c:43   UCX  WARN  object 0x4a09d40 was not returned to mpool ucp_requests
[1652883648.444761] [cn603-11-r:242457:0]          mpool.c:43   UCX  WARN  object 0x4a09f00 was not returned to mpool ucp_requests
[1652883648.444778] [cn603-11-r:242457:0]          mpool.c:43   UCX  WARN  object 0x4a0a0c0 was not returned to mpool ucp_requests
[1652883648.446440] [cn603-10-r:32629:0]          mpool.c:43   UCX  WARN  object 0x3bdbf00 was not returned to mpool ucp_requests
[1652883648.446456] [cn603-10-r:32629:0]          mpool.c:43   UCX  WARN  object 0x3bdc0c0 was not returned to mpool ucp_requests
[1652883648.446481] [cn603-10-r:32629:0]          mpool.c:43   UCX  WARN  object 0x3bdc280 was not returned to mpool ucp_requests
[1652883648.446491] [cn603-10-r:32629:0]          mpool.c:43   UCX  WARN  object 0x3bdc440 was not returned to mpool ucp_requests
[1652883648.446509] [cn603-10-r:32629:0]          mpool.c:43   UCX  WARN  object 0x3bdc600 was not returned to mpool ucp_requests
[1652883648.446525] [cn603-10-r:32629:0]          mpool.c:43   UCX  WARN  object 0x3bdc7c0 was not returned to mpool ucp_requests
[1652883648.446541] [cn603-10-r:32629:0]          mpool.c:43   UCX  WARN  object 0x3bdc980 was not returned to mpool ucp_requests
[1652883648.446557] [cn603-10-r:32629:0]          mpool.c:43   UCX  WARN  object 0x3bdcb40 was not returned to mpool ucp_requests
[1652883648.446573] [cn603-10-r:32629:0]          mpool.c:43   UCX  WARN  object 0x3bdcd00 was not returned to mpool ucp_requests
[1652883648.446589] [cn603-10-r:32629:0]          mpool.c:43   UCX  WARN  object 0x3bdcec0 was not returned to mpool ucp_requests
[1652883648.446605] [cn603-10-r:32629:0]          mpool.c:43   UCX  WARN  object 0x3bdd080 was not returned to mpool ucp_requests
[1652883648.446622] [cn603-10-r:32629:0]          mpool.c:43   UCX  WARN  object 0x3bdd240 was not returned to mpool ucp_requests
[1652883648.446638] [cn603-10-r:32629:0]          mpool.c:43   UCX  WARN  object 0x3bdd400 was not returned to mpool ucp_requests
[1652883648.446654] [cn603-10-r:32629:0]          mpool.c:43   UCX  WARN  object 0x3bdd5c0 was not returned to mpool ucp_requests
[1652883648.446670] [cn603-10-r:32629:0]          mpool.c:43   UCX  WARN  object 0x3bdd780 was not returned to mpool ucp_requests
[1652883648.446686] [cn603-10-r:32629:0]          mpool.c:43   UCX  WARN  object 0x3bdd940 was not returned to mpool ucp_requests
[1652883648.446707] [cn603-10-r:32629:0]          mpool.c:43   UCX  WARN  object 0x3bddb00 was not returned to mpool ucp_requests
[1652883648.446723] [cn603-10-r:32629:0]          mpool.c:43   UCX  WARN  object 0x3bddcc0 was not returned to mpool ucp_requests
[1652883648.446740] [cn603-10-r:32629:0]          mpool.c:43   UCX  WARN  object 0x3bdde80 was not returned to mpool ucp_requests
[1652883648.446756] [cn603-10-r:32629:0]          mpool.c:43   UCX  WARN  object 0x3bde040 was not returned to mpool ucp_requests
X  WARN  object 0x48bca40 was not returned to mpool ucp_requests
[1652883648.445893] [cn603-10-r:32611:0]          mpool.c:43   UCX  WARN  object 0x48bcc00 was not returned to mpool ucp_requests
[1652883648.446563] [cn603-10-r:32611:0]          mpool.c:43   UCX  WARN  object 0x48bcdc0 was not returned to mpool ucp_requests
[1652883648.446591] [cn603-10-r:32611:0]          mpool.c:43   UCX  WARN  object 0x48bcf80 was not returned to mpool ucp_requests
[1652883648.446611] [cn603-10-r:32611:0]          mpool.c:43   UCX  WARN  object 0x48bd140 was not returned to mpool ucp_requests
[1652883648.446630] [cn603-10-r:32611:0]          mpool.c:43   UCX  WARN  object 0x48bd300 was not returned to mpool ucp_requests
[1652883648.446647] [cn603-10-r:32611:0]          mpool.c:43   UCX  WARN  object 0x48bd4c0 was not returned to mpool ucp_requests
[1652883648.446665] [cn603-10-r:32611:0]          mpool.c:43   UCX  WARN  object 0x48bd680 was not returned to mpool ucp_requests
[1652883648.446683] [cn603-10-r:32611:0]          mpool.c:43   UCX  WARN  object 0x48bd840 was not returned to mpool ucp_requests
[1652883648.446700] [cn603-10-r:32611:0]          mpool.c:43   UCX  WARN  object 0x48bda00 was not returned to mpool ucp_requests
[1652883648.446717] [cn603-10-r:32611:0]          mpool.c:43   UCX  WARN  object 0x48bdbc0 was not returned to mpool ucp_requests
[1652883648.446735] [cn603-10-r:32611:0]          mpool.c:43   UCX  WARN  object 0x48bdd80 was not returned to mpool ucp_requests
[1652883648.446752] [cn603-10-r:32611:0]          mpool.c:43   UCX  WARN  object 0x48bdf40 was not returned to mpool ucp_requests
[1652883648.446769] [cn603-10-r:32611:0]          mpool.c:43   UCX  WARN  object 0x48be100 was not returned to mpool ucp_requests
[1652883648.443495] [cn603-13-r:170164:0]          mpool.c:43   UCX  WARN  object 0x3805940 was not returned to mpool ucp_requests
[1652883648.443524] [cn603-13-r:170164:0]          mpool.c:43   UCX  WARN  object 0x3805b00 was not returned to mpool ucp_requests
[1652883648.443540] [cn603-13-r:170164:0]          mpool.c:43   UCX  WARN  object 0x3805cc0 was not returned to mpool ucp_requests
[1652883648.443557] [cn603-13-r:170164:0]          mpool.c:43   UCX  WARN  object 0x3805e80 was not returned to mpool ucp_requests
[1652883648.443574] [cn603-13-r:170164:0]          mpool.c:43   UCX  WARN  object 0x3806040 was not returned to mpool ucp_requests
[1652883648.444795] [cn603-11-r:242457:0]          mpool.c:43   UCX  WARN  object 0x4a0a280 was not returned to mpool ucp_requests
[1652883648.444812] [cn603-11-r:242457:0]          mpool.c:43   UCX  WARN  object 0x4a0a440 was not returned to mpool ucp_requests
[1652883648.444829] [cn603-11-r:242457:0]          mpool.c:43   UCX  WARN  object 0x4a0a600 was not returned to mpool ucp_requests
[1652883648.444845] [cn603-11-r:242457:0]          mpool.c:43   UCX  WARN  object 0x4a0a7c0 was not returned to mpool ucp_requests
[1652883648.444862] [cn603-11-r:242457:0]          mpool.c:43   UCX  WARN  object 0x4a0a980 was not returned to mpool ucp_requests
[1652883648.446772] [cn603-10-r:32629:0]          mpool.c:43   UCX  WARN  object 0x3bde200 was not returned to mpool ucp_requests
[1652883648.446789] [cn603-10-r:32629:0]          mpool.c:43   UCX  WARN  object 0x3bde3c0 was not returned to mpool ucp_requests
[1652883648.446805] [cn603-10-r:32629:0]          mpool.c:43   UCX  WARN  object 0x3bde580 was not returned to mpool ucp_requests
[1652883648.446821] [cn603-10-r:32629:0]          mpool.c:43   UCX  WARN  object 0x3bde740 was not returned to mpool ucp_requests
[1652883648.446837] [cn603-10-r:32629:0]          mpool.c:43   UCX  WARN  object 0x3bde900 was not returned to mpool ucp_requests
[1652883648.446853] [cn603-10-r:32629:0]          mpool.c:43   UCX  WARN  object 0x3bdeac0 was not returned to mpool ucp_requests
[1652883648.446870] [cn603-10-r:32629:0]          mpool.c:43   UCX  WARN  object 0x3bdec80 was not returned to mpool ucp_requests
[1652883648.446886] [cn603-10-r:32629:0]          mpool.c:43   UCX  WARN  object 0x3bdee40 was not returned to mpool ucp_requests
[1652883648.446902] [cn603-10-r:32629:0]          mpool.c:43   UCX  WARN  object 0x3bdf000 was not returned to mpool ucp_requests
[1652883648.446918] [cn603-10-r:32629:0]          mpool.c:43   UCX  WARN  object 0x3bdf1c0 was not returned to mpool ucp_requests
[1652883648.446934] [cn603-10-r:32629:0]          mpool.c:43   UCX  WARN  object 0x3bdf380 was not returned to mpool ucp_requests
[1652883648.446951] [cn603-10-r:32629:0]          mpool.c:43   UCX  WARN  object 0x3bdf540 was not returned to mpool ucp_requests
[1652883648.446979] [cn603-10-r:32629:0]          mpool.c:43   UCX  WARN  object 0x3bdf700 was not returned to mpool ucp_requests
[1652883648.446996] [cn603-10-r:32629:0]          mpool.c:43   UCX  WARN  object 0x3bdf8c0 was not returned to mpool ucp_requests
[1652883648.447013] [cn603-10-r:32629:0]          mpool.c:43   UCX  WARN  object 0x3bdfa80 was not returned to mpool ucp_requests
[1652883648.447029] [cn603-10-r:32629:0]          mpool.c:43   UCX  WARN  object 0x3bdfc40 was not returned to mpool ucp_requests
[1652883648.447045] [cn603-10-r:32629:0]          mpool.c:43   UCX  WARN  object 0x3bdfe00 was not returned to mpool ucp_requests
[1652883648.447061] [cn603-10-r:32629:0]          mpool.c:43   UCX  WARN  object 0x3bdffc0 was not returned to mpool ucp_requests
[1652883648.447078] [cn603-10-r:32629:0]          mpool.c:43   UCX  WARN  object 0x3be0180 was not returned to mpool ucp_requests
[1652883648.447094] [cn603-10-r:32629:0]          mpool.c:43   UCX  WARN  object 0x3be0340 was not returned to mpool ucp_requests
[1652883648.447110] [cn603-10-r:32629:0]          mpool.c:43   UCX  WARN  object 0x3be0500 was not returned to mpool ucp_requests
[1652883648.447126] [cn603-10-r:32629:0]          mpool.c:43   UCX  WARN  object 0x3be06c0 was not returned to mpool ucp_requests
[1652883648.447143] [cn603-10-r:32629:0]          mpool.c:43   UCX  WARN  object 0x3be0880 was not returned to mpool ucp_requests
[1652883648.447159] [cn603-10-r:32629:0]          mpool.c:43   UCX  WARN  object 0x3be0a40 was not returned to mpool ucp_requests
[1652883648.447175] [cn603-10-r:32629:0]          mpool.c:43   UCX  WARN  object 0x3be0c00 was not returned to mpool ucp_requests
[1652883648.447192] [cn603-10-r:32629:0]          mpool.c:43   UCX  WARN  object 0x3be0dc0 was not returned to mpool ucp_requests
[1652883648.446786] [cn603-10-r:32611:0]          mpool.c:43   UCX  WARN  object 0x48be2c0 was not returned to mpool ucp_requests
[1652883648.446804] [cn603-10-r:32611:0]          mpool.c:43   UCX  WARN  object 0x48be480 was not returned to mpool ucp_requests
[1652883648.446821] [cn603-10-r:32611:0]          mpool.c:43   UCX  WARN  object 0x48be640 was not returned to mpool ucp_requests
[1652883648.446838] [cn603-10-r:32611:0]          mpool.c:43   UCX  WARN  object 0x48be800 was not returned to mpool ucp_requests
[1652883648.446856] [cn603-10-r:32611:0]          mpool.c:43   UCX  WARN  object 0x48be9c0 was not returned to mpool ucp_requests
[1652883648.446873] [cn603-10-r:32611:0]          mpool.c:43   UCX  WARN  object 0x48beb80 was not returned to mpool ucp_requests
[1652883648.446890] [cn603-10-r:32611:0]          mpool.c:43   UCX  WARN  object 0x48bed40 was not returned to mpool ucp_requests
[1652883648.446907] [cn603-10-r:32611:0]          mpool.c:43   UCX  WARN  object 0x48bef00 was not returned to mpool ucp_requests
[1652883648.446924] [cn603-10-r:32611:0]          mpool.c:43   UCX  WARN  object 0x48bf0c0 was not returned to mpool ucp_requests
[1652883648.446942] [cn603-10-r:32611:0]          mpool.c:43   UCX  WARN  object 0x48bf280 was not returned to mpool ucp_requests
[1652883648.446974] [cn603-10-r:32611:0]          mpool.c:43   UCX  WARN  object 0x48bf440 was not returned to mpool ucp_requests
[1652883648.446992] [cn603-10-r:32611:0]          mpool.c:43   UCX  WARN  object 0x48bf600 was not returned to mpool ucp_requests
[1652883648.447009] [cn603-10-r:32611:0]          mpool.c:43   UCX  WARN  object 0x48bf7c0 was not returned to mpool ucp_requests
[1652883648.447026] [cn603-10-r:32611:0]          mpool.c:43   UCX  WARN  object 0x48bf980 was not returned to mpool ucp_requests
[1652883648.447042] [cn603-10-r:32611:0]          mpool.c:43   UCX  WARN  object 0x48bfb40 was not returned to mpool ucp_requests
[1652883648.447058] [cn603-10-r:32611:0]          mpool.c:43   UCX  WARN  object 0x48bfd00 was not returned to mpool ucp_requests
[1652883648.447074] [cn603-10-r:32611:0]          mpool.c:43   UCX  WARN  object 0x48bfec0 was not returned to mpool ucp_requests
[1652883648.447090] [cn603-10-r:32611:0]          mpool.c:43   UCX  WARN  object 0x48c0080 was not returned to mpool ucp_requests
[1652883648.447107] [cn603-10-r:32611:0]          mpool.c:43   UCX  WARN  object 0x48c0240 was not returned to mpool ucp_requests
[1652883648.447123] [cn603-10-r:32611:0]          mpool.c:43   UCX  WARN  object 0x48c0400 was not returned to mpool ucp_requests
[1652883648.447147] [cn603-10-r:32611:0]          mpool.c:43   UCX  WARN  object 0x48c05c0 was not returned to mpool ucp_requests
[1652883648.447163] [cn603-10-r:32611:0]          mpool.c:43   UCX  WARN  object 0x48c0780 was not returned to mpool ucp_requests
[1652883648.447179] [cn603-10-r:32611:0]          mpool.c:43   UCX  WARN  object 0x48c0940 was not returned to mpool ucp_requests
[1652883648.447197] [cn603-10-r:32611:0]          mpool.c:43   UCX  WARN  object 0x48c0b00 was not returned to mpool ucp_requests
[1652883648.443598] [cn603-13-r:170164:0]          mpool.c:43   UCX  WARN  object 0x3806200 was not returned to mpool ucp_requests
[1652883648.443615] [cn603-13-r:170164:0]          mpool.c:43   UCX  WARN  object 0x38063c0 was not returned to mpool ucp_requests
[1652883648.443631] [cn603-13-r:170164:0]          mpool.c:43   UCX  WARN  object 0x3806580 was not returned to mpool ucp_requests
[1652883648.443656] [cn603-13-r:170164:0]          mpool.c:43   UCX  WARN  object 0x3806740 was not returned to mpool ucp_requests
[1652883648.443673] [cn603-13-r:170164:0]          mpool.c:43   UCX  WARN  object 0x3806900 was not returned to mpool ucp_requests
[1652883648.444889] [cn603-11-r:242457:0]          mpool.c:43   UCX  WARN  object 0x4a0ab40 was not returned to mpool ucp_requests
[1652883648.444906] [cn603-11-r:242457:0]          mpool.c:43   UCX  WARN  object 0x4a0ad00 was not returned to mpool ucp_requests
[1652883648.444922] [cn603-11-r:242457:0]          mpool.c:43   UCX  WARN  object 0x4a0aec0 was not returned to mpool ucp_requests
[1652883648.444939] [cn603-11-r:242457:0]          mpool.c:43   UCX  WARN  object 0x4a0b080 was not returned to mpool ucp_requests
[1652883648.444955] [cn603-11-r:242457:0]          mpool.c:43   UCX  WARN  object 0x4a0b240 was not returned to mpool ucp_requests
[1652883648.447209] [cn603-10-r:32629:0]          mpool.c:43   UCX  WARN  object 0x3be0f80 was not returned to mpool ucp_requests
[1652883648.447226] [cn603-10-r:32629:0]          mpool.c:43   UCX  WARN  object 0x3be1140 was not returned to mpool ucp_requests
[1652883648.447242] [cn603-10-r:32629:0]          mpool.c:43   UCX  WARN  object 0x3be1300 was not returned to mpool ucp_requests
[1652883648.447258] [cn603-10-r:32629:0]          mpool.c:43   UCX  WARN  object 0x3be14c0 was not returned to mpool ucp_requests
[1652883648.447274] [cn603-10-r:32629:0]          mpool.c:43   UCX  WARN  object 0x3be1680 was not returned to mpool ucp_requests
[1652883648.447291] [cn603-10-r:32629:0]          mpool.c:43   UCX  WARN  object 0x3be1840 was not returned to mpool ucp_requests
[1652883648.447307] [cn603-10-r:32629:0]          mpool.c:43   UCX  WARN  object 0x3be1a00 was not returned to mpool ucp_requests
[1652883648.447323] [cn603-10-r:32629:0]          mpool.c:43   UCX  WARN  object 0x3be1bc0 was not returned to mpool ucp_requests
[1652883648.447339] [cn603-10-r:32629:0]          mpool.c:43   UCX  WARN  object 0x3be1d80 was not returned to mpool ucp_requests
[1652883648.447356] [cn603-10-r:32629:0]          mpool.c:43   UCX  WARN  object 0x3be1f40 was not returned to mpool ucp_requests
[1652883648.447372] [cn603-10-r:32629:0]          mpool.c:43   UCX  WARN  object 0x3be2100 was not returned to mpool ucp_requests
[1652883648.447388] [cn603-10-r:32629:0]          mpool.c:43   UCX  WARN  object 0x3be22c0 was not returned to mpool ucp_requests
[1652883648.447414] [cn603-10-r:32629:0]          mpool.c:43   UCX  WARN  object 0x3be2480 was not returned to mpool ucp_requests
[1652883648.447431] [cn603-10-r:32629:0]          mpool.c:43   UCX  WARN  object 0x3be2640 was not returned to mpool ucp_requests
[1652883648.447447] [cn603-10-r:32629:0]          mpool.c:43   UCX  WARN  object 0x3be2800 was not returned to mpool ucp_requests
[1652883648.447463] [cn603-10-r:32629:0]          mpool.c:43   UCX  WARN  object 0x3be29c0 was not returned to mpool ucp_requests
[1652883648.447214] [cn603-10-r:32611:0]          mpool.c:43   UCX  WARN  object 0x48c0cc0 was not returned to mpool ucp_requests
[1652883648.447231] [cn603-10-r:32611:0]          mpool.c:43   UCX  WARN  object 0x48c0e80 was not returned to mpool ucp_requests
[1652883648.447247] [cn603-10-r:32611:0]          mpool.c:43   UCX  WARN  object 0x48c1040 was not returned to mpool ucp_requests
[1652883648.447263] [cn603-10-r:32611:0]          mpool.c:43   UCX  WARN  object 0x48c1200 was not returned to mpool ucp_requests
[1652883648.447279] [cn603-10-r:32611:0]          mpool.c:43   UCX  WARN  object 0x48c13c0 was not returned to mpool ucp_requests
[1652883648.447295] [cn603-10-r:32611:0]          mpool.c:43   UCX  WARN  object 0x48c1580 was not returned to mpool ucp_requests
[1652883648.447311] [cn603-10-r:32611:0]          mpool.c:43   UCX  WARN  object 0x48c1740 was not returned to mpool ucp_requests
[1652883648.447327] [cn603-10-r:32611:0]          mpool.c:43   UCX  WARN  object 0x48c1900 was not returned to mpool ucp_requests
[1652883648.447343] [cn603-10-r:32611:0]          mpool.c:43   UCX  WARN  object 0x48c1ac0 was not returned to mpool ucp_requests
[1652883648.447359] [cn603-10-r:32611:0]          mpool.c:43   UCX  WARN  object 0x48c1c80 was not returned to mpool ucp_requests
[1652883648.447375] [cn603-10-r:32611:0]          mpool.c:43   UCX  WARN  object 0x48c1e40 was not returned to mpool ucp_requests
[1652883648.447391] [cn603-10-r:32611:0]          mpool.c:43   UCX  WARN  object 0x48c2000 was not returned to mpool ucp_requests
[1652883648.447408] [cn603-10-r:32611:0]          mpool.c:43   UCX  WARN  object 0x48c21c0 was not returned to mpool ucp_requests
[...]
[1652883648.457576] [cn603-11-r:242473:0]          mpool.c:43   UCX  WARN  object 0x2658040 was not returned to mpool ucp_requests
[1652883648.457591] [cn603-11-r:242473:0]          mpool.c:43   UCX  WARN  object 0x2658200 was not returned to mpool ucp_requests
[1652883648.457606] [cn603-11-r:242473:0]          mpool.c:43   UCX  WARN  object 0x26583c0 was not returned to mpool ucp_requests
[1652883648.457621] [cn603-11-r:242473:0]          mpool.c:43   UCX  WARN  object 0x2658580 was not returned to mpool ucp_requests
[1652883648.457635] [cn603-11-r:242473:0]          mpool.c:43   UCX  WARN  object 0x2658740 was not returned to mpool ucp_requests
[1652883648.457650] [cn603-11-r:242473:0]          mpool.c:43   UCX  WARN  object 0x2658900 was not returned to mpool ucp_requests
[1652883648.457665] [cn603-11-r:242473:0]          mpool.c:43   UCX  WARN  object 0x2658ac0 was not returned to mpool ucp_requests
[1652883648.457680] [cn603-11-r:242473:0]          mpool.c:43   UCX  WARN  object 0x2658c80 was not returned to mpool ucp_requests
[1652883648.457694] [cn603-11-r:242473:0]          mpool.c:43   UCX  WARN  object 0x2658e40 was not returned to mpool ucp_requests
[1652883648.455030] [cn603-13-r:170146:0]          mpool.c:43   UCX  WARN  object 0x34542c0 was not returned to mpool ucp_requests
[1652883648.455044] [cn603-13-r:170146:0]          mpool.c:43   UCX  WARN  object 0x3454480 was not returned to mpool ucp_requests
[1652883648.455058] [cn603-13-r:170146:0]          mpool.c:43   UCX  WARN  object 0x3454640 was not returned to mpool ucp_requests
[1652883648.455072] [cn603-13-r:170146:0]          mpool.c:43   UCX  WARN  object 0x3454800 was not returned to mpool ucp_requests
[1652883648.455086] [cn603-13-r:170146:0]          mpool.c:43   UCX  WARN  object 0x34549c0 was not returned to mpool ucp_requests
[1652883648.457709] [cn603-11-r:242473:0]          mpool.c:43   UCX  WARN  object 0x2659000 was not returned to mpool ucp_requests
[1652883648.457727] [cn603-11-r:242473:0]          mpool.c:43   UCX  WARN  object 0x26591c0 was not returned to mpool ucp_requests
[1652883648.457742] [cn603-11-r:242473:0]          mpool.c:43   UCX  WARN  object 0x2659380 was not returned to mpool ucp_requests
[1652883648.457765] [cn603-11-r:242473:0]          mpool.c:43   UCX  WARN  object 0x2659540 was not returned to mpool ucp_requests
[1652883648.457780] [cn603-11-r:242473:0]          mpool.c:43   UCX  WARN  object 0x2659700 was not returned to mpool ucp_requests
[1652883648.455105] [cn603-13-r:170146:0]          mpool.c:43   UCX  WARN  object 0x3454b80 was not returned to mpool ucp_requests
[1652883648.455119] [cn603-13-r:170146:0]          mpool.c:43   UCX  WARN  object 0x3454d40 was not returned to mpool ucp_requests
[1652883648.455133] [cn603-13-r:170146:0]          mpool.c:43   UCX  WARN  object 0x3454f00 was not returned to mpool ucp_requests
[1652883648.455150] [cn603-13-r:170146:0]          mpool.c:43   UCX  WARN  object 0x34550c0 was not returned to mpool ucp_requests
[1652883648.457795] [cn603-11-r:242473:0]          mpool.c:43   UCX  WARN  object 0x26598c0 was not returned to mpool ucp_requests
[1652883648.457810] [cn603-11-r:242473:0]          mpool.c:43   UCX  WARN  object 0x2659a80 was not returned to mpool ucp_requests
[1652883648.457825] [cn603-11-r:242473:0]          mpool.c:43   UCX  WARN  object 0x2659c40 was not returned to mpool ucp_requests
[1652883648.457848] [cn603-11-r:242473:0]          mpool.c:43   UCX  WARN  object 0x2659e00 was not returned to mpool ucp_requests
[1652883648.457862] [cn603-11-r:242473:0]          mpool.c:43   UCX  WARN  object 0x2659fc0 was not returned to mpool ucp_requests
[1652883648.455165] [cn603-13-r:170146:0]          mpool.c:43   UCX  WARN  object 0x3455280 was not returned to mpool ucp_requests
[1652883648.455179] [cn603-13-r:170146:0]          mpool.c:43   UCX  WARN  object 0x3455440 was not returned to mpool ucp_requests
[1652883648.455193] [cn603-13-r:170146:0]          mpool.c:43   UCX  WARN  object 0x3455600 was not returned to mpool ucp_requests
[1652883648.455207] [cn603-13-r:170146:0]          mpool.c:43   UCX  WARN  object 0x34557c0 was not returned to mpool ucp_requests
[1652883648.455221] [cn603-13-r:170146:0]          mpool.c:43   UCX  WARN  object 0x3455980 was not returned to mpool ucp_requests
[1652883648.457880] [cn603-11-r:242473:0]          mpool.c:43   UCX  WARN  object 0x265a180 was not returned to mpool ucp_requests
[1652883648.457896] [cn603-11-r:242473:0]          mpool.c:43   UCX  WARN  object 0x265a340 was not returned to mpool ucp_requests
[1652883648.457910] [cn603-11-r:242473:0]          mpool.c:43   UCX  WARN  object 0x265a500 was not returned to mpool ucp_requests
[1652883648.457925] [cn603-11-r:242473:0]          mpool.c:43   UCX  WARN  object 0x265a6c0 was not returned to mpool ucp_requests
[1652883648.455235] [cn603-13-r:170146:0]          mpool.c:43   UCX  WARN  object 0x3455b40 was not returned to mpool ucp_requests
[1652883648.455250] [cn603-13-r:170146:0]          mpool.c:43   UCX  WARN  object 0x3455d00 was not returned to mpool ucp_requests
[1652883648.455263] [cn603-13-r:170146:0]          mpool.c:43   UCX  WARN  object 0x3455ec0 was not returned to mpool ucp_requests
[1652883648.455287] [cn603-13-r:170146:0]          mpool.c:43   UCX  WARN  object 0x3456080 was not returned to mpool ucp_requests
[1652883648.455301] [cn603-13-r:170146:0]          mpool.c:43   UCX  WARN  object 0x3456240 was not returned to mpool ucp_requests
[1652883648.457940] [cn603-11-r:242473:0]          mpool.c:43   UCX  WARN  object 0x265a880 was not returned to mpool ucp_requests
[1652883648.457955] [cn603-11-r:242473:0]          mpool.c:43   UCX  WARN  object 0x265aa40 was not returned to mpool ucp_requests
[1652883648.457970] [cn603-11-r:242473:0]          mpool.c:43   UCX  WARN  object 0x265ac00 was not returned to mpool ucp_requests
[1652883648.457984] [cn603-11-r:242473:0]          mpool.c:43   UCX  WARN  object 0x265adc0 was not returned to mpool ucp_requests
[1652883648.457999] [cn603-11-r:242473:0]          mpool.c:43   UCX  WARN  object 0x265af80 was not returned to mpool ucp_requests
[1652883648.455320] [cn603-13-r:170146:0]          mpool.c:43   UCX  WARN  object 0x3456400 was not returned to mpool ucp_requests
[1652883648.455334] [cn603-13-r:170146:0]          mpool.c:43   UCX  WARN  object 0x34565c0 was not returned to mpool ucp_requests
[1652883648.455348] [cn603-13-r:170146:0]          mpool.c:43   UCX  WARN  object 0x3456780 was not returned to mpool ucp_requests
[1652883648.455362] [cn603-13-r:170146:0]          mpool.c:43   UCX  WARN  object 0x3456940 was not returned to mpool ucp_requests
[1652883648.455376] [cn603-13-r:170146:0]          mpool.c:43   UCX  WARN  object 0x3456b00 was not returned to mpool ucp_requests
[1652883648.458023] [cn603-11-r:242473:0]          mpool.c:43   UCX  WARN  object 0x265b140 was not returned to mpool ucp_requests
[1652883648.458038] [cn603-11-r:242473:0]          mpool.c:43   UCX  WARN  object 0x265b300 was not returned to mpool ucp_requests
[1652883648.458053] [cn603-11-r:242473:0]          mpool.c:43   UCX  WARN  object 0x265b4c0 was not returned to mpool ucp_requests
[1652883648.458074] [cn603-11-r:242473:0]          mpool.c:43   UCX  WARN  object 0x265b680 was not returned to mpool ucp_requests
[1652883648.458089] [cn603-11-r:242473:0]          mpool.c:43   UCX  WARN  object 0x265b840 was not returned to mpool ucp_requests
[1652883648.455395] [cn603-13-r:170146:0]          mpool.c:43   UCX  WARN  object 0x3456cc0 was not returned to mpool ucp_requests
[1652883648.455409] [cn603-13-r:170146:0]          mpool.c:43   UCX  WARN  object 0x3456e80 was not returned to mpool ucp_requests
[1652883648.455426] [cn603-13-r:170146:0]          mpool.c:43   UCX  WARN  object 0x3457040 was not returned to mpool ucp_requests
[1652883648.455446] [cn603-13-r:170146:0]          mpool.c:43   UCX  WARN  object 0x3457200 was not returned to mpool ucp_requests
[1652883648.455460] [cn603-13-r:170146:0]          mpool.c:43   UCX  WARN  object 0x34573c0 was not returned to mpool ucp_requests
[1652883648.458104] [cn603-11-r:242473:0]          mpool.c:43   UCX  WARN  object 0x265ba00 was not returned to mpool ucp_requests
[1652883648.458119] [cn603-11-r:242473:0]          mpool.c:43   UCX  WARN  object 0x265bbc0 was not returned to mpool ucp_requests
[1652883648.458133] [cn603-11-r:242473:0]          mpool.c:43   UCX  WARN  object 0x265bd80 was not returned to mpool ucp_requests
[1652883648.458154] [cn603-11-r:242473:0]          mpool.c:43   UCX  WARN  object 0x265bf40 was not returned to mpool ucp_requests
[1652883648.458172] [cn603-11-r:242473:0]          mpool.c:43   UCX  WARN  object 0x265c100 was not returned to mpool ucp_requests
[1652883648.455482] [cn603-13-r:170146:0]          mpool.c:43   UCX  WARN  object 0x3457580 was not returned to mpool ucp_requests
[1652883648.455496] [cn603-13-r:170146:0]          mpool.c:43   UCX  WARN  object 0x3457740 was not returned to mpool ucp_requests
[1652883648.455518] [cn603-13-r:170146:0]          mpool.c:43   UCX  WARN  object 0x3457900 was not returned to mpool ucp_requests
[1652883648.455532] [cn603-13-r:170146:0]          mpool.c:43   UCX  WARN  object 0x3457ac0 was not returned to mpool ucp_requests
[1652883648.455546] [cn603-13-r:170146:0]          mpool.c:43   UCX  WARN  object 0x3457c80 was not returned to mpool ucp_requests
[1652883648.458192] [cn603-11-r:242473:0]          mpool.c:43   UCX  WARN  object 0x265c2c0 was not returned to mpool ucp_requests
[1652883648.458207] [cn603-11-r:242473:0]          mpool.c:43   UCX  WARN  object 0x265c480 was not returned to mpool ucp_requests
[1652883648.458222] [cn603-11-r:242473:0]          mpool.c:43   UCX  WARN  object 0x265c640 was not returned to mpool ucp_requests
[1652883648.458236] [cn603-11-r:242473:0]          mpool.c:43   UCX  WARN  object 0x265c800 was not returned to mpool ucp_requests
[1652883648.458251] [cn603-11-r:242473:0]          mpool.c:43   UCX  WARN  object 0x265c9c0 was not returned to mpool ucp_requests
[1652883648.455566] [cn603-13-r:170146:0]          mpool.c:43   UCX  WARN  object 0x3457e40 was not returned to mpool ucp_requests
[1652883648.455580] [cn603-13-r:170146:0]          mpool.c:43   UCX  WARN  object 0x3458000 was not returned to mpool ucp_requests
[1652883648.455598] [cn603-13-r:170146:0]          mpool.c:43   UCX  WARN  object 0x34581c0 was not returned to mpool ucp_requests
[1652883648.455617] [cn603-13-r:170146:0]          mpool.c:43   UCX  WARN  object 0x3458380 was not returned to mpool ucp_requests
[1652883648.455631] [cn603-13-r:170146:0]          mpool.c:43   UCX  WARN  object 0x3458540 was not returned to mpool ucp_requests
[1652883648.458272] [cn603-11-r:242473:0]          mpool.c:43   UCX  WARN  object 0x265cb80 was not returned to mpool ucp_requests
[1652883648.458287] [cn603-11-r:242473:0]          mpool.c:43   UCX  WARN  object 0x265cd40 was not returned to mpool ucp_requests
[1652883648.458301] [cn603-11-r:242473:0]          mpool.c:43   UCX  WARN  object 0x265cf00 was not returned to mpool ucp_requests
[1652883648.458319] [cn603-11-r:242473:0]          mpool.c:43   UCX  WARN  object 0x265d0c0 was not returned to mpool ucp_requests
[1652883648.455645] [cn603-13-r:170146:0]          mpool.c:43   UCX  WARN  object 0x3458700 was not returned to mpool ucp_requests
[1652883648.455659] [cn603-13-r:170146:0]          mpool.c:43   UCX  WARN  object 0x34588c0 was not returned to mpool ucp_requests
[1652883648.455673] [cn603-13-r:170146:0]          mpool.c:43   UCX  WARN  object 0x3458a80 was not returned to mpool ucp_requests
[1652883648.455692] [cn603-13-r:170146:0]          mpool.c:43   UCX  WARN  object 0x3458c40 was not returned to mpool ucp_requests
[1652883648.455706] [cn603-13-r:170146:0]          mpool.c:43   UCX  WARN  object 0x3458e00 was not returned to mpool ucp_requests
[1652883648.458334] [cn603-11-r:242473:0]          mpool.c:43   UCX  WARN  object 0x265d280 was not returned to mpool ucp_requests
[1652883648.458350] [cn603-11-r:242473:0]          mpool.c:43   UCX  WARN  object 0x265d440 was not returned to mpool ucp_requests
[1652883648.458365] [cn603-11-r:242473:0]          mpool.c:43   UCX  WARN  object 0x265d600 was not returned to mpool ucp_requests
[1652883648.458380] [cn603-11-r:242473:0]          mpool.c:43   UCX  WARN  object 0x265d7c0 was not returned to mpool ucp_requests
[1652883648.458395] [cn603-11-r:242473:0]          mpool.c:43   UCX  WARN  object 0x265d980 was not returned to mpool ucp_requests
[1652883648.455727] [cn603-13-r:170146:0]          mpool.c:43   UCX  WARN  object 0x3458fc0 was not returned to mpool ucp_requests
[1652883648.455741] [cn603-13-r:170146:0]          mpool.c:43   UCX  WARN  object 0x3459180 was not returned to mpool ucp_requests
[1652883648.455755] [cn603-13-r:170146:0]          mpool.c:43   UCX  WARN  object 0x3459340 was not returned to mpool ucp_requests
[1652883648.455768] [cn603-13-r:170146:0]          mpool.c:43   UCX  WARN  object 0x3459500 was not returned to mpool ucp_requests
[1652883648.458409] [cn603-11-r:242473:0]          mpool.c:43   UCX  WARN  object 0x265db40 was not returned to mpool ucp_requests
[1652883648.458424] [cn603-11-r:242473:0]          mpool.c:43   UCX  WARN  object 0x265dd00 was not returned to mpool ucp_requests
[1652883648.458439] [cn603-11-r:242473:0]          mpool.c:43   UCX  WARN  object 0x265dec0 was not returned to mpool ucp_requests
[1652883648.458463] [cn603-11-r:242473:0]          mpool.c:43   UCX  WARN  object 0x265e080 was not returned to mpool ucp_requests
[1652883648.458478] [cn603-11-r:242473:0]          mpool.c:43   UCX  WARN  object 0x265e240 was not returned to mpool ucp_requests
[1652883648.458497] [cn603-11-r:242473:0]          mpool.c:43   UCX  WARN  object 0x265e400 was not returned to mpool ucp_requests
[1652883648.458513] [cn603-11-r:242473:0]          mpool.c:43   UCX  WARN  object 0x265e5c0 was not returned to mpool ucp_requests
[1652883648.458527] [cn603-11-r:242473:0]          mpool.c:43   UCX  WARN  object 0x265e780 was not returned to mpool ucp_requests
[1652883648.458542] [cn603-11-r:242473:0]          mpool.c:43   UCX  WARN  object 0x265e940 was not returned to mpool ucp_requests
[1652883648.458571] [cn603-11-r:242473:0]          mpool.c:43   UCX  WARN  object 0x265eb00 was not returned to mpool ucp_requests
[1652883648.458593] [cn603-11-r:242473:0]          mpool.c:43   UCX  WARN  object 0x265ecc0 was not returned to mpool ucp_requests
[1652883648.458609] [cn603-11-r:242473:0]          mpool.c:43   UCX  WARN  object 0x265ee80 was not returned to mpool ucp_requests
[1652883648.458627] [cn603-11-r:242473:0]          mpool.c:43   UCX  WARN  object 0x265f040 was not returned to mpool ucp_requests
[1652883648.458646] [cn603-11-r:242473:0]          mpool.c:43   UCX  WARN  object 0x265f200 was not returned to mpool ucp_requests
[1652883648.458661] [cn603-11-r:242473:0]          mpool.c:43   UCX  WARN  object 0x265f3c0 was not returned to mpool ucp_requests
[1652883648.458684] [cn603-11-r:242473:0]          mpool.c:43   UCX  WARN  object 0x265f580 was not returned to mpool ucp_requests
[1652883648.458700] [cn603-11-r:242473:0]          mpool.c:43   UCX  WARN  object 0x265f740 was not returned to mpool ucp_requests
[1652883648.458714] [cn603-11-r:242473:0]          mpool.c:43   UCX  WARN  object 0x265f900 was not returned to mpool ucp_requests
[1652883648.458729] [cn603-11-r:242473:0]          mpool.c:43   UCX  WARN  object 0x265fac0 was not returned to mpool ucp_requests
[1652883648.458744] [cn603-11-r:242473:0]          mpool.c:43   UCX  WARN  object 0x265fc80 was not returned to mpool ucp_requests
[1652883648.458765] [cn603-11-r:242473:0]          mpool.c:43   UCX  WARN  object 0x265fe40 was not returned to mpool ucp_requests
[1652883648.458780] [cn603-11-r:242473:0]          mpool.c:43   UCX  WARN  object 0x2660000 was not returned to mpool ucp_requests
[1652883648.458798] [cn603-11-r:242473:0]          mpool.c:43   UCX  WARN  object 0x26601c0 was not returned to mpool ucp_requests
[1652883648.458820] [cn603-11-r:242473:0]          mpool.c:43   UCX  WARN  object 0x2660380 was not returned to mpool ucp_requests
[1652883648.458835] [cn603-11-r:242473:0]          mpool.c:43   UCX  WARN  object 0x2660540 was not returned to mpool ucp_requests
[1652883648.458858] [cn603-11-r:242473:0]          mpool.c:43   UCX  WARN  object 0x2660700 was not returned to mpool ucp_requests
[1652883648.458873] [cn603-11-r:242473:0]          mpool.c:43   UCX  WARN  object 0x26608c0 was not returned to mpool ucp_requests
[1652883648.458887] [cn603-11-r:242473:0]          mpool.c:43   UCX  WARN  object 0x2660a80 was not returned to mpool ucp_requests
[1652883648.458902] [cn603-11-r:242473:0]          mpool.c:43   UCX  WARN  object 0x2660c40 was not returned to mpool ucp_requests
[1652883648.458917] [cn603-11-r:242473:0]          mpool.c:43   UCX  WARN  object 0x2660e00 was not returned to mpool ucp_requests
[1652883648.458939] [cn603-11-r:242473:0]          mpool.c:43   UCX  WARN  object 0x2660fc0 was not returned to mpool ucp_requests
[1652883648.458957] [cn603-11-r:242473:0]          mpool.c:43   UCX  WARN  object 0x2661180 was not returned to mpool ucp_requests
[1652883648.458972] [cn603-11-r:242473:0]          mpool.c:43   UCX  WARN  object 0x2661340 was not returned to mpool ucp_requests
[1652883648.458993] [cn603-11-r:242473:0]          mpool.c:43   UCX  WARN  object 0x2661500 was not returned to mpool ucp_requests
[1652883648.459008] [cn603-11-r:242473:0]          mpool.c:43   UCX  WARN  object 0x26616c0 was not returned to mpool ucp_requests
[1652883648.459023] [cn603-11-r:242473:0]          mpool.c:43   UCX  WARN  object 0x2661880 was not returned to mpool ucp_requests
[1652883648.459038] [cn603-11-r:242473:0]          mpool.c:43   UCX  WARN  object 0x2661a40 was not returned to mpool ucp_requests
[1652883648.459052] [cn603-11-r:242473:0]          mpool.c:43   UCX  WARN  object 0x2661c00 was not returned to mpool ucp_requests
[1652883648.459073] [cn603-11-r:242473:0]          mpool.c:43   UCX  WARN  object 0x2661dc0 was not returned to mpool ucp_requests
[1652883648.459088] [cn603-11-r:242473:0]          mpool.c:43   UCX  WARN  object 0x2661f80 was not returned to mpool ucp_requests
[1652883648.459106] [cn603-11-r:242473:0]          mpool.c:43   UCX  WARN  object 0x2662140 was not returned to mpool ucp_requests
[1652883648.459122] [cn603-11-r:242473:0]          mpool.c:43   UCX  WARN  object 0x2662300 was not returned to mpool ucp_requests
[1652883648.459136] [cn603-11-r:242473:0]          mpool.c:43   UCX  WARN  object 0x26624c0 was not returned to mpool ucp_requests
[1652883648.459151] [cn603-11-r:242473:0]          mpool.c:43   UCX  WARN  object 0x2662680 was not returned to mpool ucp_requests
[1652883648.459166] [cn603-11-r:242473:0]          mpool.c:43   UCX  WARN  object 0x2662840 was not returned to mpool ucp_requests
[1652883648.459181] [cn603-11-r:242473:0]          mpool.c:43   UCX  WARN  object 0x2662a00 was not returned to mpool ucp_requests
[1652883648.459195] [cn603-11-r:242473:0]          mpool.c:43   UCX  WARN  object 0x2662bc0 was not returned to mpool ucp_requests
[1652883648.459219] [cn603-11-r:242473:0]          mpool.c:43   UCX  WARN  object 0x2662d80 was not returned to mpool ucp_requests
[1652883648.459234] [cn603-11-r:242473:0]          mpool.c:43   UCX  WARN  object 0x2662f40 was not returned to mpool ucp_requests
[1652883648.459248] [cn603-11-r:242473:0]          mpool.c:43   UCX  WARN  object 0x2663100 was not returned to mpool ucp_requests
[1652883648.459263] [cn603-11-r:242473:0]          mpool.c:43   UCX  WARN  object 0x26632c0 was not returned to mpool ucp_requests
[1652883648.459279] [cn603-11-r:242473:0]          mpool.c:43   UCX  WARN  object 0x2663480 was not returned to mpool ucp_requests
