 vasp.5.4.4.18Apr17-6-g9f103f2a35 (build Oct 01 2024 10:11:53) complex          
  
 executed on              Shaheen date 2025.02.19  15:18:42
 running on  192 total cores
 distrk:  each k-point on  192 cores,    1 groups
 distr:  one band on NCORES_PER_BAND=  24 cores,    8 groups


--------------------------------------------------------------------------------------------------------


 INCAR:
 POTCAR:    PAW_PBE Mo 08Apr2002                  
 POTCAR:    PAW_PBE S 06Sep2000                   
 POTCAR:    PAW_PBE Te 08Apr2002                  
 POTCAR:    PAW_PBE Mo 08Apr2002                  
   VRHFIN =Mo: 4p5s4d                                                           
   LEXCH  = PE                                                                  
   EATOM  =   217.5176 eV,   15.9871 Ry                                         
                                                                                
   TITEL  = PAW_PBE Mo 08Apr2002                                                
   LULTRA =        F    use ultrasoft PP ?                                      
   IUNSCR =        1    unscreen: 0-lin 1-nonlin 2-no                           
   RPACOR =    2.200    partial core radius                                     
   POMASS =   95.940; ZVAL   =    6.000    mass and valenz                      
   RCORE  =    2.750    outmost cutoff radius                                   
   RWIGS  =    2.750; RWIGS  =    1.455    wigner-seitz radius (au A)           
   ENMAX  =  224.584; ENMIN  =  168.438 eV                                      
   RCLOC  =    2.111    cutoff for local pot                                    
   LCOR   =        T    correct aug charges                                     
   LPAW   =        T    paw PP                                                  
   EAUG   =  345.278                                                            
   DEXC   =    0.000                                                            
   RMAX   =    2.821    core radius for proj-oper                               
   RAUG   =    1.300    factor for augmentation sphere                          
   RDEP   =    2.815    radius for radial grids                                 
   RDEPT  =    2.211    core radius for aug-charge                              
                                                                                
   Atomic configuration                                                         
   12 entries                                                                   
     n  l   j            E        occ.                                          
     1  0  0.50    -19819.0341   2.0000                                         
     2  0  0.50     -2799.0127   2.0000                                         
     2  1  1.50     -2502.0276   6.0000                                         
     3  0  0.50      -476.4448   2.0000                                         
     3  1  1.50      -379.1496   6.0000                                         
     3  2  2.50      -220.9367  10.0000                                         
     4  0  0.50       -64.3378   2.0000                                         
     4  1  1.50       -38.4773   6.0000                                         
     4  2  2.50        -3.7535   5.0000                                         
     5  0  0.50        -4.0862   1.0000                                         
     5  1  0.50        -2.7701   0.0000                                         
     4  3  2.50        -1.3606   0.0000                                         
   Description                                                                  
     l       E           TYP  RCUT    TYP  RCUT                                 
     2     -3.7534765     23  2.500                                             
     2     -5.1140591     23  2.500                                             
     0     -4.0861560     23  2.600                                             
     0     13.6058260     23  2.600                                             
     1      5.4423304     23  2.750                                             
     1     27.2116520     23  2.750                                             
  local pseudopotential read in
  partial core-charges read in
  partial kinetic energy density read in
  atomic valenz-charges read in
  non local Contribution for L=           2  read in
    real space projection operators read in
  non local Contribution for L=           2  read in
    real space projection operators read in
  non local Contribution for L=           0  read in
    real space projection operators read in
  non local Contribution for L=           0  read in
    real space projection operators read in
  non local Contribution for L=           1  read in
    real space projection operators read in
  non local Contribution for L=           1  read in
    real space projection operators read in
    PAW grid and wavefunctions read in
 
   number of l-projection  operators is LMAX  =           6
   number of lm-projection operators is LMMAX =          18
 
 POTCAR:    PAW_PBE S 06Sep2000                   
   VRHFIN =S : s2p4                                                             
   LEXCH  = PE                                                                  
   EATOM  =   276.8230 eV,   20.3459 Ry                                         
                                                                                
   TITEL  = PAW_PBE S 06Sep2000                                                 
   LULTRA =        F    use ultrasoft PP ?                                      
   IUNSCR =        1    unscreen: 0-lin 1-nonlin 2-no                           
   RPACOR =    1.500    partial core radius                                     
   POMASS =   32.066; ZVAL   =    6.000    mass and valenz                      
   RCORE  =    1.900    outmost cutoff radius                                   
   RWIGS  =    2.200; RWIGS  =    1.164    wigner-seitz radius (au A)           
   ENMAX  =  258.689; ENMIN  =  194.016 eV                                      
   ICORE  =        2    local potential                                         
   LCOR   =        T    correct aug charges                                     
   LPAW   =        T    paw PP                                                  
   EAUG   =  335.092                                                            
   DEXC   =    0.000                                                            
   RMAX   =    1.942    core radius for proj-oper                               
   RAUG   =    1.300    factor for augmentation sphere                          
   RDEP   =    1.954    radius for radial grids                                 
   RDEPT  =    1.744    core radius for aug-charge                              
                                                                                
   Atomic configuration                                                         
    6 entries                                                                   
     n  l   j            E        occ.                                          
     1  0  0.50     -2405.8406   2.0000                                         
     2  0  0.50      -211.7007   2.0000                                         
     2  1  1.50      -156.4958   6.0000                                         
     3  0  0.50       -17.2562   2.0000                                         
     3  1  0.50        -7.0085   4.0000                                         
     3  2  1.50        -6.8029   0.0000                                         
   Description                                                                  
     l       E           TYP  RCUT    TYP  RCUT                                 
     0    -17.2561641     23  1.900                                             
     0    -15.8743224     23  1.900                                             
     1     -7.0085400     23  1.900                                             
     1     -2.7779785     23  1.900                                             
     2     -6.8029130     23  1.900                                             
  local pseudopotential read in
  partial core-charges read in
  partial kinetic energy density read in
  atomic valenz-charges read in
  non local Contribution for L=           0  read in
    real space projection operators read in
  non local Contribution for L=           0  read in
    real space projection operators read in
  non local Contribution for L=           1  read in
    real space projection operators read in
  non local Contribution for L=           1  read in
    real space projection operators read in
    PAW grid and wavefunctions read in
 
   number of l-projection  operators is LMAX  =           4
   number of lm-projection operators is LMMAX =           8
 
 POTCAR:    PAW_PBE Te 08Apr2002                  
   VRHFIN =Te: s2p4                                                             
   LEXCH  = PE                                                                  
   EATOM  =   223.2721 eV,   16.4100 Ry                                         
                                                                                
   TITEL  = PAW_PBE Te 08Apr2002                                                
   LULTRA =        F    use ultrasoft PP ?                                      
   IUNSCR =        1    unscreen: 0-lin 1-nonlin 2-no                           
   RPACOR =    2.200    partial core radius                                     
   POMASS =  127.600; ZVAL   =    6.000    mass and valenz                      
   RCORE  =    2.300    outmost cutoff radius                                   
   RWIGS  =    2.900; RWIGS  =    1.535    wigner-seitz radius (au A)           
   ENMAX  =  174.982; ENMIN  =  131.236 eV                                      
   ICORE  =        3    local potential                                         
   LCOR   =        T    correct aug charges                                     
   LPAW   =        T    paw PP                                                  
   EAUG   =  368.792                                                            
   DEXC   =    0.000                                                            
   RMAX   =    2.345    core radius for proj-oper                               
   RAUG   =    1.300    factor for augmentation sphere                          
   RDEP   =    2.397    radius for radial grids                                 
   RDEPT  =    2.174    core radius for aug-charge                              
                                                                                
   Atomic configuration                                                         
   13 entries                                                                   
     n  l   j            E        occ.                                          
     1  0  0.50    -31621.2075   2.0000                                         
     2  0  0.50     -4848.7941   2.0000                                         
     2  1  1.50     -4352.1960   6.0000                                         
     3  0  0.50      -964.9612   2.0000                                         
     3  1  1.50      -803.6179   6.0000                                         
     3  2  2.50      -559.8710  10.0000                                         
     4  0  0.50      -164.3522   2.0000                                         
     4  1  1.50      -114.3756   6.0000                                         
     4  2  2.50       -41.6483  10.0000                                         
     5  0  0.50       -15.1072   2.0000                                         
     5  1  0.50        -5.9526   4.0000                                         
     5  2  1.50        -5.4423   0.0000                                         
     4  3  2.50        -5.4423   0.0000                                         
   Description                                                                  
     l       E           TYP  RCUT    TYP  RCUT                                 
     0    -15.1072389     23  2.300                                             
     0    -16.4678215     23  2.300                                             
     1     -5.9526306     23  2.300                                             
     1     -2.4873968     23  2.300                                             
     2     -5.4423304     23  2.300                                             
     3     -1.3605826     23  2.300                                             
  local pseudopotential read in
  partial core-charges read in
  partial kinetic energy density read in
  atomic valenz-charges read in
  non local Contribution for L=           0  read in
    real space projection operators read in
  non local Contribution for L=           0  read in
    real space projection operators read in
  non local Contribution for L=           1  read in
    real space projection operators read in
  non local Contribution for L=           1  read in
    real space projection operators read in
  non local Contribution for L=           2  read in
    real space projection operators read in
    PAW grid and wavefunctions read in
 
   number of l-projection  operators is LMAX  =           5
   number of lm-projection operators is LMMAX =          13
 
  PAW_PBE Mo 08Apr2002                  :
 energy of atom  1       EATOM= -217.5176
 kinetic energy error for atom=    0.0005 (will be added to EATOM!!)
  PAW_PBE S 06Sep2000                   :
 energy of atom  2       EATOM= -276.8230
 kinetic energy error for atom=    0.0009 (will be added to EATOM!!)
  PAW_PBE Te 08Apr2002                  :
 energy of atom  3       EATOM= -223.2721
 kinetic energy error for atom=    0.0004 (will be added to EATOM!!)
 
 
 POSCAR: Generated by VASPKIT code               
  positions in direct lattice
  velocities in cartesian coordinates
 exchange correlation table for  LEXCH =        8
   RHO(1)=    0.500       N(1)  =     2000
   RHO(2)=  100.500       N(2)  =     4000
 


--------------------------------------------------------------------------------------------------------


 ion  position               nearest neighbor table
   1  0.500  0.167  0.507-   4 2.44   4 2.44   3 2.44   6 2.72   6 2.72   5 2.72   2 3.37   2 3.37
                             2 3.37   2 3.37
   2  0.000  0.667  0.507-   3 2.44   3 2.44   4 2.44   5 2.72   5 2.72   6 2.72   1 3.37   1 3.37
                             1 3.37   1 3.37
   3  0.500  0.833  0.580-   2 2.44   2 2.44   1 2.44
   4  0.000  0.333  0.580-   1 2.44   1 2.44   2 2.44
   5  0.500  0.833  0.413-   2 2.72   2 2.72   1 2.72   6 3.37   6 3.37   6 3.37   6 3.37
   6  0.000  0.333  0.413-   1 2.72   1 2.72   2 2.72   5 3.37   5 3.37   5 3.37   5 3.37
 

IMPORTANT INFORMATION: All symmetrisations will be switched off!
NOSYMM: (Re-)initialisation of all symmetry stuff for point group C_1.

 
 
 KPOINTS: K-Spacing Value to Generate K-Mesh: 0.01

Automatic generation of k-mesh.
Space group operators:
 irot       det(A)        alpha          n_x          n_y          n_z        tau_x        tau_y        tau_z
    1     1.000000     0.000000     1.000000     0.000000     0.000000     0.000000     0.000000     0.000000
 
 Subroutine IBZKPT returns following result:
 ===========================================
 
 Found    105 irreducible k-points:
 
 Following reciprocal coordinates:
            Coordinates               Weight
  0.000000  0.000000  0.000000      1.000000
  0.052632  0.000000  0.000000      2.000000
  0.105263  0.000000  0.000000      2.000000
  0.157895  0.000000  0.000000      2.000000
  0.210526  0.000000  0.000000      2.000000
  0.263158  0.000000  0.000000      2.000000
  0.315789  0.000000  0.000000      2.000000
  0.368421  0.000000  0.000000      2.000000
  0.421053  0.000000  0.000000      2.000000
  0.473684  0.000000  0.000000      2.000000
  0.000000  0.090909  0.000000      2.000000
  0.052632  0.090909  0.000000      2.000000
  0.105263  0.090909  0.000000      2.000000
  0.157895  0.090909  0.000000      2.000000
  0.210526  0.090909  0.000000      2.000000
  0.263158  0.090909  0.000000      2.000000
  0.315789  0.090909  0.000000      2.000000
  0.368421  0.090909  0.000000      2.000000
  0.421053  0.090909  0.000000      2.000000
  0.473684  0.090909  0.000000      2.000000
 -0.473684  0.090909  0.000000      2.000000
 -0.421053  0.090909  0.000000      2.000000
 -0.368421  0.090909  0.000000      2.000000
 -0.315789  0.090909  0.000000      2.000000
 -0.263158  0.090909  0.000000      2.000000
 -0.210526  0.090909  0.000000      2.000000
 -0.157895  0.090909  0.000000      2.000000
 -0.105263  0.090909  0.000000      2.000000
 -0.052632  0.090909  0.000000      2.000000
  0.000000  0.181818  0.000000      2.000000
  0.052632  0.181818  0.000000      2.000000
  0.105263  0.181818  0.000000      2.000000
  0.157895  0.181818  0.000000      2.000000
  0.210526  0.181818  0.000000      2.000000
  0.263158  0.181818  0.000000      2.000000
  0.315789  0.181818  0.000000      2.000000
  0.368421  0.181818  0.000000      2.000000
  0.421053  0.181818  0.000000      2.000000
  0.473684  0.181818  0.000000      2.000000
 -0.473684  0.181818  0.000000      2.000000
 -0.421053  0.181818  0.000000      2.000000
 -0.368421  0.181818  0.000000      2.000000
 -0.315789  0.181818  0.000000      2.000000
 -0.263158  0.181818  0.000000      2.000000
 -0.210526  0.181818  0.000000      2.000000
 -0.157895  0.181818  0.000000      2.000000
 -0.105263  0.181818  0.000000      2.000000
 -0.052632  0.181818  0.000000      2.000000
  0.000000  0.272727  0.000000      2.000000
  0.052632  0.272727  0.000000      2.000000
  0.105263  0.272727  0.000000      2.000000
  0.157895  0.272727  0.000000      2.000000
  0.210526  0.272727  0.000000      2.000000
  0.263158  0.272727  0.000000      2.000000
  0.315789  0.272727  0.000000      2.000000
  0.368421  0.272727  0.000000      2.000000
  0.421053  0.272727  0.000000      2.000000
  0.473684  0.272727  0.000000      2.000000
 -0.473684  0.272727  0.000000      2.000000
 -0.421053  0.272727  0.000000      2.000000
 -0.368421  0.272727  0.000000      2.000000
 -0.315789  0.272727  0.000000      2.000000
 -0.263158  0.272727  0.000000      2.000000
 -0.210526  0.272727  0.000000      2.000000
 -0.157895  0.272727  0.000000      2.000000
 -0.105263  0.272727  0.000000      2.000000
 -0.052632  0.272727  0.000000      2.000000
  0.000000  0.363636  0.000000      2.000000
  0.052632  0.363636  0.000000      2.000000
  0.105263  0.363636  0.000000      2.000000
  0.157895  0.363636  0.000000      2.000000
  0.210526  0.363636  0.000000      2.000000
  0.263158  0.363636  0.000000      2.000000
  0.315789  0.363636  0.000000      2.000000
  0.368421  0.363636  0.000000      2.000000
  0.421053  0.363636  0.000000      2.000000
  0.473684  0.363636  0.000000      2.000000
 -0.473684  0.363636  0.000000      2.000000
 -0.421053  0.363636  0.000000      2.000000
 -0.368421  0.363636  0.000000      2.000000
 -0.315789  0.363636  0.000000      2.000000
 -0.263158  0.363636  0.000000      2.000000
 -0.210526  0.363636  0.000000      2.000000
 -0.157895  0.363636  0.000000      2.000000
 -0.105263  0.363636  0.000000      2.000000
 -0.052632  0.363636  0.000000      2.000000
  0.000000  0.454545  0.000000      2.000000
  0.052632  0.454545  0.000000      2.000000
  0.105263  0.454545  0.000000      2.000000
  0.157895  0.454545  0.000000      2.000000
  0.210526  0.454545  0.000000      2.000000
  0.263158  0.454545  0.000000      2.000000
  0.315789  0.454545  0.000000      2.000000
  0.368421  0.454545  0.000000      2.000000
  0.421053  0.454545  0.000000      2.000000
  0.473684  0.454545  0.000000      2.000000
 -0.473684  0.454545  0.000000      2.000000
 -0.421053  0.454545  0.000000      2.000000
 -0.368421  0.454545  0.000000      2.000000
 -0.315789  0.454545  0.000000      2.000000
 -0.263158  0.454545  0.000000      2.000000
 -0.210526  0.454545  0.000000      2.000000
 -0.157895  0.454545  0.000000      2.000000
 -0.105263  0.454545  0.000000      2.000000
 -0.052632  0.454545  0.000000      2.000000
 
 Following cartesian coordinates:
            Coordinates               Weight
  0.000000  0.000000  0.000000      1.000000
  0.015647  0.000000  0.000000      2.000000
  0.031295  0.000000  0.000000      2.000000
  0.046942  0.000000  0.000000      2.000000
  0.062590  0.000000  0.000000      2.000000
  0.078237  0.000000  0.000000      2.000000
  0.093884  0.000000  0.000000      2.000000
  0.109532  0.000000  0.000000      2.000000
  0.125179  0.000000  0.000000      2.000000
  0.140827  0.000000  0.000000      2.000000
  0.000000  0.015573  0.000000      2.000000
  0.015647  0.015573  0.000000      2.000000
  0.031295  0.015573  0.000000      2.000000
  0.046942  0.015573  0.000000      2.000000
  0.062590  0.015573  0.000000      2.000000
  0.078237  0.015573  0.000000      2.000000
  0.093884  0.015573  0.000000      2.000000
  0.109532  0.015573  0.000000      2.000000
  0.125179  0.015573  0.000000      2.000000
  0.140827  0.015573  0.000000      2.000000
 -0.140827  0.015573  0.000000      2.000000
 -0.125179  0.015573  0.000000      2.000000
 -0.109532  0.015573  0.000000      2.000000
 -0.093884  0.015573  0.000000      2.000000
 -0.078237  0.015573  0.000000      2.000000
 -0.062590  0.015573  0.000000      2.000000
 -0.046942  0.015573  0.000000      2.000000
 -0.031295  0.015573  0.000000      2.000000
 -0.015647  0.015573  0.000000      2.000000
  0.000000  0.031146  0.000000      2.000000
  0.015647  0.031146  0.000000      2.000000
  0.031295  0.031146  0.000000      2.000000
  0.046942  0.031146  0.000000      2.000000
  0.062590  0.031146  0.000000      2.000000
  0.078237  0.031146  0.000000      2.000000
  0.093884  0.031146  0.000000      2.000000
  0.109532  0.031146  0.000000      2.000000
  0.125179  0.031146  0.000000      2.000000
  0.140827  0.031146  0.000000      2.000000
 -0.140827  0.031146  0.000000      2.000000
 -0.125179  0.031146  0.000000      2.000000
 -0.109532  0.031146  0.000000      2.000000
 -0.093884  0.031146  0.000000      2.000000
 -0.078237  0.031146  0.000000      2.000000
 -0.062590  0.031146  0.000000      2.000000
 -0.046942  0.031146  0.000000      2.000000
 -0.031295  0.031146  0.000000      2.000000
 -0.015647  0.031146  0.000000      2.000000
  0.000000  0.046719  0.000000      2.000000
  0.015647  0.046719  0.000000      2.000000
  0.031295  0.046719  0.000000      2.000000
  0.046942  0.046719  0.000000      2.000000
  0.062590  0.046719  0.000000      2.000000
  0.078237  0.046719  0.000000      2.000000
  0.093884  0.046719  0.000000      2.000000
  0.109532  0.046719  0.000000      2.000000
  0.125179  0.046719  0.000000      2.000000
  0.140827  0.046719  0.000000      2.000000
 -0.140827  0.046719  0.000000      2.000000
 -0.125179  0.046719  0.000000      2.000000
 -0.109532  0.046719  0.000000      2.000000
 -0.093884  0.046719  0.000000      2.000000
 -0.078237  0.046719  0.000000      2.000000
 -0.062590  0.046719  0.000000      2.000000
 -0.046942  0.046719  0.000000      2.000000
 -0.031295  0.046719  0.000000      2.000000
 -0.015647  0.046719  0.000000      2.000000
  0.000000  0.062292  0.000000      2.000000
  0.015647  0.062292  0.000000      2.000000
  0.031295  0.062292  0.000000      2.000000
  0.046942  0.062292  0.000000      2.000000
  0.062590  0.062292  0.000000      2.000000
  0.078237  0.062292  0.000000      2.000000
  0.093884  0.062292  0.000000      2.000000
  0.109532  0.062292  0.000000      2.000000
  0.125179  0.062292  0.000000      2.000000
  0.140827  0.062292  0.000000      2.000000
 -0.140827  0.062292  0.000000      2.000000
 -0.125179  0.062292  0.000000      2.000000
 -0.109532  0.062292  0.000000      2.000000
 -0.093884  0.062292  0.000000      2.000000
 -0.078237  0.062292  0.000000      2.000000
 -0.062590  0.062292  0.000000      2.000000
 -0.046942  0.062292  0.000000      2.000000
 -0.031295  0.062292  0.000000      2.000000
 -0.015647  0.062292  0.000000      2.000000
  0.000000  0.077865  0.000000      2.000000
  0.015647  0.077865  0.000000      2.000000
  0.031295  0.077865  0.000000      2.000000
  0.046942  0.077865  0.000000      2.000000
  0.062590  0.077865  0.000000      2.000000
  0.078237  0.077865  0.000000      2.000000
  0.093884  0.077865  0.000000      2.000000
  0.109532  0.077865  0.000000      2.000000
  0.125179  0.077865  0.000000      2.000000
  0.140827  0.077865  0.000000      2.000000
 -0.140827  0.077865  0.000000      2.000000
 -0.125179  0.077865  0.000000      2.000000
 -0.109532  0.077865  0.000000      2.000000
 -0.093884  0.077865  0.000000      2.000000
 -0.078237  0.077865  0.000000      2.000000
 -0.062590  0.077865  0.000000      2.000000
 -0.046942  0.077865  0.000000      2.000000
 -0.031295  0.077865  0.000000      2.000000
 -0.015647  0.077865  0.000000      2.000000
 


--------------------------------------------------------------------------------------------------------




 Dimension of arrays:
   k-points           NKPTS =    105   k-points in BZ     NKDIM =    105   number of bands    NBANDS=     24
   number of dos      NEDOS =    301   number of ions     NIONS =      6
   non local maximal  LDIM  =      6   non local SUM 2l+1 LMDIM =     18
   total plane-waves  NPLWV = 217728
   max r-space proj   IRMAX =      1   max aug-charges    IRDMAX=  35348
   dimension x,y,z NGX =    28 NGY =   48 NGZ =  162
   dimension x,y,z NGXF=    56 NGYF=   96 NGZF=  324
   support grid    NGXF=    56 NGYF=   96 NGZF=  324
   ions per type =               2   2   2
   NGX,Y,Z   is equivalent  to a cutoff of  13.84, 13.67, 13.30 a.u.
   NGXF,Y,Z  is equivalent  to a cutoff of  27.68, 27.34, 26.60 a.u.

 SYSTEM =  unknown system                          
 POSCAR =  Generated by VASPKIT code               

 Startparameter for this run:
   NWRITE =      2    write-flag & timer
   PREC   = accura    normal or accurate (medium, high low for compatibility)
   ISTART =      0    job   : 0-new  1-cont  2-samecut
   ICHARG =      2    charge: 1-file 2-atom 10-const
   ISPIN  =      1    spin polarized calculation?
   LNONCOLLINEAR =      F non collinear calculations
   LSORBIT =      F    spin-orbit coupling
   INIWAV =      1    electr: 0-lowe 1-rand  2-diag
   LASPH  =      F    aspherical Exc in radial PAW
   METAGGA=      F    non-selfconsistent MetaGGA calc.

 Electronic Relaxation 1
   ENCUT  =  600.0 eV  44.10 Ry    6.64 a.u.   6.72 11.66 40.45*2*pi/ulx,y,z
   ENINI  =  600.0     initial cutoff
   ENAUG  =  368.8 eV  augmentation charge cutoff
   NELM   =     60;   NELMIN=  2; NELMDL= -5     # of ELM steps 
   EDIFF  = 0.1E-06   stopping-criterion for ELM
   LREAL  =      F    real-space projection
   NLSPLINE    = F    spline interpolate recip. space projectors
   LCOMPAT=      F    compatible to vasp.4.4
   GGA_COMPAT  = T    GGA compatible to vasp.4.4-vasp.4.6
   LMAXPAW     = -100 max onsite density
   LMAXMIX     =    2 max onsite mixed and CHGCAR
   VOSKOWN=      0    Vosko Wilk Nusair interpolation
   ROPT   =    0.00000   0.00000   0.00000
 Ionic relaxation
   EDIFFG = -.1E-02   stopping-criterion for IOM
   NSW    =    100    number of steps for IOM
   NBLOCK =      1;   KBLOCK =    100    inner block; outer block 
   IBRION =      2    ionic relax: 0-MD 1-quasi-New 2-CG
   NFREE  =      1    steps in history (QN), initial steepest desc. (CG)
   ISIF   =      2    stress and relaxation
   IWAVPR =     11    prediction:  0-non 1-charg 2-wave 3-comb
   ISYM   =      0    0-nonsym 1-usesym 2-fastsym
   LCORR  =      T    Harris-Foulkes like correction to forces

   POTIM  = 0.5000    time-step for ionic-motion
   TEIN   =    0.0    initial temperature
   TEBEG  =    0.0;   TEEND  =   0.0 temperature during run
   SMASS  =  -3.00    Nose mass-parameter (am)
   estimated Nose-frequenzy (Omega)   =  0.10E-29 period in steps =****** mass=  -0.259E-27a.u.
   SCALEE = 1.0000    scale energy and forces
   NPACO  =    256;   APACO  = 16.0  distance and # of slots for P.C.
   PSTRESS=    0.0 pullay stress

  Mass of Ions in am
   POMASS =  95.94 32.07127.60
  Ionic Valenz
   ZVAL   =   6.00  6.00  6.00
  Atomic Wigner-Seitz radii
   RWIGS  =  -1.00 -1.00 -1.00
  virtual crystal weights 
   VCA    =   1.00  1.00  1.00
   NELECT =      36.0000    total number of electrons
   NUPDOWN=      -1.0000    fix difference up-down

 DOS related values:
   EMIN   =  10.00;   EMAX   =-10.00  energy-range for DOS
   EFERMI =   0.00
   ISMEAR =     0;   SIGMA  =   0.10  broadening in eV -4-tet -1-fermi 0-gaus

 Electronic relaxation 2 (details)
   IALGO  =     38    algorithm
   LDIAG  =      T    sub-space diagonalisation (order eigenvalues)
   LSUBROT=      F    optimize rotation matrix (better conditioning)
   TURBO    =      0    0=normal 1=particle mesh
   IRESTART =      0    0=no restart 2=restart with 2 vectors
   NREBOOT  =      0    no. of reboots
   NMIN     =      0    reboot dimension
   EREF     =   0.00    reference energy to select bands
   IMIX   =      4    mixing-type and parameters
     AMIX     =   0.40;   BMIX     =  1.00
     AMIX_MAG =   1.60;   BMIX_MAG =  1.00
     AMIN     =   0.10
     WC   =   100.;   INIMIX=   1;  MIXPRE=   1;  MAXMIX= -45

 Intra band minimization:
   WEIMIN = 0.0010     energy-eigenvalue tresh-hold
   EBREAK =  0.10E-08  absolut break condition
   DEPER  =   0.30     relativ break condition  

   TIME   =   0.40     timestep for ELM

  volume/ion in A,a.u.               =      66.28       447.26
  Fermi-wavevector in a.u.,A,eV,Ry     =   0.735083  1.389106  7.351872  0.540347
  Thomas-Fermi vector in A             =   1.828193
 
 Write flags
   LWAVE        =      F    write WAVECAR
   LDOWNSAMPLE  =      F    k-point downsampling of WAVECAR
   LCHARG       =      T    write CHGCAR
   LVTOT        =      F    write LOCPOT, total local potential
   LVHAR        =      F    write LOCPOT, Hartree potential only
   LELF         =      F    write electronic localiz. function (ELF)
   LORBIT       =      0    0 simple, 1 ext, 2 COOP (PROOUT), +10 PAW based schemes


 Dipole corrections
   LMONO  =      F    monopole corrections only (constant potential shift)
   LDIPOL =      T    correct potential (dipole corrections)
   IDIPOL =      3    1-x, 2-y, 3-z, 4-all directions 
   EPSILON=  1.0000000 bulk dielectric constant

 Exchange correlation treatment:
   GGA     =    PE    GGA type
   LEXCH   =     8    internal setting for exchange type
   VOSKOWN=      0    Vosko Wilk Nusair interpolation
   LHFCALC =     F    Hartree Fock is set to
   LHFONE  =     F    Hartree Fock one center treatment
   AEXX    =    0.0000 exact exchange contribution

 Linear response parameters
   LEPSILON=     F    determine dielectric tensor
   LRPA    =     F    only Hartree local field effects (RPA)
   LNABLA  =     F    use nabla operator in PAW spheres
   LVEL    =     F    velocity operator in full k-point grid
   LINTERFAST=   F  fast interpolation
   KINTER  =     0    interpolate to denser k-point grid
   CSHIFT  =0.1000    complex shift for real part using Kramers Kronig
   OMEGAMAX=  -1.0    maximum frequency
   DEG_THRESHOLD= 0.2000000E-02 threshold for treating states as degnerate
   RTIME   =   -0.100 relaxation time in fs
  (WPLASMAI=    0.000 imaginary part of plasma frequency in eV, 0.658/RTIME)
   DFIELD  = 0.0000000 0.0000000 0.0000000 field for delta impulse in time
 
 Orbital magnetization related:
   ORBITALMAG=     F  switch on orbital magnetization
   LCHIMAG   =     F  perturbation theory with respect to B field
   DQ        =  0.001000  dq finite difference perturbation B field
   LLRAUG    =     F  two centre corrections for induced B field



--------------------------------------------------------------------------------------------------------


 conjugate gradient relaxation of ions
 charge density and potential will be updated during run
 non-spin polarized calculation
 Variant of blocked Davidson
 Davidson routine will perform the subspace rotation
 perform sub-space diagonalisation
    after iterative eigenvector-optimisation
 modified Broyden-mixing scheme, WC =      100.0
 initial mixing is a Kerker type mixing with AMIX =  0.4000 and BMIX =      1.0000
 Hartree-type preconditioning will be used
 using additional bands            6
 reciprocal scheme for non local part
 use partial core corrections
 calculate Harris-corrections to forces 
   (improved forces if not selfconsistent)
 use gradient corrections 
 use of overlap-Matrix (Vanderbilt PP)
 Gauss-broadening in eV      SIGMA  =   0.10


--------------------------------------------------------------------------------------------------------


  energy-cutoff  :      600.00
  volume of cell :      397.67
      direct lattice vectors                 reciprocal lattice vectors
     3.363599539  0.000000000  0.000000000     0.297300552  0.000000000  0.000000000
     0.000000000  5.837577679  0.000000000     0.000000000  0.171303930  0.000000000
     0.000000000  0.000000000 20.252588272     0.000000000  0.000000000  0.049376405

  length of vectors
     3.363599539  5.837577679 20.252588272     0.297300552  0.171303930  0.049376405


 
 k-points in units of 2pi/SCALE and weight: K-Spacing Value to Generate K-Mesh: 0.01
   0.00000000  0.00000000  0.00000000       0.005
   0.01564740  0.00000000  0.00000000       0.010
   0.03129479  0.00000000  0.00000000       0.010
   0.04694219  0.00000000  0.00000000       0.010
   0.06258959  0.00000000  0.00000000       0.010
   0.07823699  0.00000000  0.00000000       0.010
   0.09388438  0.00000000  0.00000000       0.010
   0.10953178  0.00000000  0.00000000       0.010
   0.12517918  0.00000000  0.00000000       0.010
   0.14082658  0.00000000  0.00000000       0.010
   0.00000000  0.01557308  0.00000000       0.010
   0.01564740  0.01557308  0.00000000       0.010
   0.03129479  0.01557308  0.00000000       0.010
   0.04694219  0.01557308  0.00000000       0.010
   0.06258959  0.01557308  0.00000000       0.010
   0.07823699  0.01557308  0.00000000       0.010
   0.09388438  0.01557308  0.00000000       0.010
   0.10953178  0.01557308  0.00000000       0.010
   0.12517918  0.01557308  0.00000000       0.010
   0.14082658  0.01557308  0.00000000       0.010
  -0.14082658  0.01557308  0.00000000       0.010
  -0.12517918  0.01557308  0.00000000       0.010
  -0.10953178  0.01557308  0.00000000       0.010
  -0.09388438  0.01557308  0.00000000       0.010
  -0.07823699  0.01557308  0.00000000       0.010
  -0.06258959  0.01557308  0.00000000       0.010
  -0.04694219  0.01557308  0.00000000       0.010
  -0.03129479  0.01557308  0.00000000       0.010
  -0.01564740  0.01557308  0.00000000       0.010
   0.00000000  0.03114617  0.00000000       0.010
   0.01564740  0.03114617  0.00000000       0.010
   0.03129479  0.03114617  0.00000000       0.010
   0.04694219  0.03114617  0.00000000       0.010
   0.06258959  0.03114617  0.00000000       0.010
   0.07823699  0.03114617  0.00000000       0.010
   0.09388438  0.03114617  0.00000000       0.010
   0.10953178  0.03114617  0.00000000       0.010
   0.12517918  0.03114617  0.00000000       0.010
   0.14082658  0.03114617  0.00000000       0.010
  -0.14082658  0.03114617  0.00000000       0.010
  -0.12517918  0.03114617  0.00000000       0.010
  -0.10953178  0.03114617  0.00000000       0.010
  -0.09388438  0.03114617  0.00000000       0.010
  -0.07823699  0.03114617  0.00000000       0.010
  -0.06258959  0.03114617  0.00000000       0.010
  -0.04694219  0.03114617  0.00000000       0.010
  -0.03129479  0.03114617  0.00000000       0.010
  -0.01564740  0.03114617  0.00000000       0.010
   0.00000000  0.04671925  0.00000000       0.010
   0.01564740  0.04671925  0.00000000       0.010
   0.03129479  0.04671925  0.00000000       0.010
   0.04694219  0.04671925  0.00000000       0.010
   0.06258959  0.04671925  0.00000000       0.010
   0.07823699  0.04671925  0.00000000       0.010
   0.09388438  0.04671925  0.00000000       0.010
   0.10953178  0.04671925  0.00000000       0.010
   0.12517918  0.04671925  0.00000000       0.010
   0.14082658  0.04671925  0.00000000       0.010
  -0.14082658  0.04671925  0.00000000       0.010
  -0.12517918  0.04671925  0.00000000       0.010
  -0.10953178  0.04671925  0.00000000       0.010
  -0.09388438  0.04671925  0.00000000       0.010
  -0.07823699  0.04671925  0.00000000       0.010
  -0.06258959  0.04671925  0.00000000       0.010
  -0.04694219  0.04671925  0.00000000       0.010
  -0.03129479  0.04671925  0.00000000       0.010
  -0.01564740  0.04671925  0.00000000       0.010
   0.00000000  0.06229234  0.00000000       0.010
   0.01564740  0.06229234  0.00000000       0.010
   0.03129479  0.06229234  0.00000000       0.010
   0.04694219  0.06229234  0.00000000       0.010
   0.06258959  0.06229234  0.00000000       0.010
   0.07823699  0.06229234  0.00000000       0.010
   0.09388438  0.06229234  0.00000000       0.010
   0.10953178  0.06229234  0.00000000       0.010
   0.12517918  0.06229234  0.00000000       0.010
   0.14082658  0.06229234  0.00000000       0.010
  -0.14082658  0.06229234  0.00000000       0.010
  -0.12517918  0.06229234  0.00000000       0.010
  -0.10953178  0.06229234  0.00000000       0.010
  -0.09388438  0.06229234  0.00000000       0.010
  -0.07823699  0.06229234  0.00000000       0.010
  -0.06258959  0.06229234  0.00000000       0.010
  -0.04694219  0.06229234  0.00000000       0.010
  -0.03129479  0.06229234  0.00000000       0.010
  -0.01564740  0.06229234  0.00000000       0.010
   0.00000000  0.07786542  0.00000000       0.010
   0.01564740  0.07786542  0.00000000       0.010
   0.03129479  0.07786542  0.00000000       0.010
   0.04694219  0.07786542  0.00000000       0.010
   0.06258959  0.07786542  0.00000000       0.010
   0.07823699  0.07786542  0.00000000       0.010
   0.09388438  0.07786542  0.00000000       0.010
   0.10953178  0.07786542  0.00000000       0.010
   0.12517918  0.07786542  0.00000000       0.010
   0.14082658  0.07786542  0.00000000       0.010
  -0.14082658  0.07786542  0.00000000       0.010
  -0.12517918  0.07786542  0.00000000       0.010
  -0.10953178  0.07786542  0.00000000       0.010
  -0.09388438  0.07786542  0.00000000       0.010
  -0.07823699  0.07786542  0.00000000       0.010
  -0.06258959  0.07786542  0.00000000       0.010
  -0.04694219  0.07786542  0.00000000       0.010
  -0.03129479  0.07786542  0.00000000       0.010
  -0.01564740  0.07786542  0.00000000       0.010
 
 k-points in reciprocal lattice and weights: K-Spacing Value to Generate K-Mesh: 0.01
   0.00000000  0.00000000  0.00000000       0.005
   0.05263158  0.00000000  0.00000000       0.010
   0.10526316  0.00000000  0.00000000       0.010
   0.15789474  0.00000000  0.00000000       0.010
   0.21052632  0.00000000  0.00000000       0.010
   0.26315789  0.00000000  0.00000000       0.010
   0.31578947  0.00000000  0.00000000       0.010
   0.36842105  0.00000000  0.00000000       0.010
   0.42105263  0.00000000  0.00000000       0.010
   0.47368421  0.00000000  0.00000000       0.010
   0.00000000  0.09090909  0.00000000       0.010
   0.05263158  0.09090909  0.00000000       0.010
   0.10526316  0.09090909  0.00000000       0.010
   0.15789474  0.09090909  0.00000000       0.010
   0.21052632  0.09090909  0.00000000       0.010
   0.26315789  0.09090909  0.00000000       0.010
   0.31578947  0.09090909  0.00000000       0.010
   0.36842105  0.09090909  0.00000000       0.010
   0.42105263  0.09090909  0.00000000       0.010
   0.47368421  0.09090909  0.00000000       0.010
  -0.47368421  0.09090909  0.00000000       0.010
  -0.42105263  0.09090909  0.00000000       0.010
  -0.36842105  0.09090909  0.00000000       0.010
  -0.31578947  0.09090909  0.00000000       0.010
  -0.26315789  0.09090909  0.00000000       0.010
  -0.21052632  0.09090909  0.00000000       0.010
  -0.15789474  0.09090909  0.00000000       0.010
  -0.10526316  0.09090909  0.00000000       0.010
  -0.05263158  0.09090909  0.00000000       0.010
   0.00000000  0.18181818  0.00000000       0.010
   0.05263158  0.18181818  0.00000000       0.010
   0.10526316  0.18181818  0.00000000       0.010
   0.15789474  0.18181818  0.00000000       0.010
   0.21052632  0.18181818  0.00000000       0.010
   0.26315789  0.18181818  0.00000000       0.010
   0.31578947  0.18181818  0.00000000       0.010
   0.36842105  0.18181818  0.00000000       0.010
   0.42105263  0.18181818  0.00000000       0.010
   0.47368421  0.18181818  0.00000000       0.010
  -0.47368421  0.18181818  0.00000000       0.010
  -0.42105263  0.18181818  0.00000000       0.010
  -0.36842105  0.18181818  0.00000000       0.010
  -0.31578947  0.18181818  0.00000000       0.010
  -0.26315789  0.18181818  0.00000000       0.010
  -0.21052632  0.18181818  0.00000000       0.010
  -0.15789474  0.18181818  0.00000000       0.010
  -0.10526316  0.18181818  0.00000000       0.010
  -0.05263158  0.18181818  0.00000000       0.010
   0.00000000  0.27272727  0.00000000       0.010
   0.05263158  0.27272727  0.00000000       0.010
   0.10526316  0.27272727  0.00000000       0.010
   0.15789474  0.27272727  0.00000000       0.010
   0.21052632  0.27272727  0.00000000       0.010
   0.26315789  0.27272727  0.00000000       0.010
   0.31578947  0.27272727  0.00000000       0.010
   0.36842105  0.27272727  0.00000000       0.010
   0.42105263  0.27272727  0.00000000       0.010
   0.47368421  0.27272727  0.00000000       0.010
  -0.47368421  0.27272727  0.00000000       0.010
  -0.42105263  0.27272727  0.00000000       0.010
  -0.36842105  0.27272727  0.00000000       0.010
  -0.31578947  0.27272727  0.00000000       0.010
  -0.26315789  0.27272727  0.00000000       0.010
  -0.21052632  0.27272727  0.00000000       0.010
  -0.15789474  0.27272727  0.00000000       0.010
  -0.10526316  0.27272727  0.00000000       0.010
  -0.05263158  0.27272727  0.00000000       0.010
   0.00000000  0.36363636  0.00000000       0.010
   0.05263158  0.36363636  0.00000000       0.010
   0.10526316  0.36363636  0.00000000       0.010
   0.15789474  0.36363636  0.00000000       0.010
   0.21052632  0.36363636  0.00000000       0.010
   0.26315789  0.36363636  0.00000000       0.010
   0.31578947  0.36363636  0.00000000       0.010
   0.36842105  0.36363636  0.00000000       0.010
   0.42105263  0.36363636  0.00000000       0.010
   0.47368421  0.36363636  0.00000000       0.010
  -0.47368421  0.36363636  0.00000000       0.010
  -0.42105263  0.36363636  0.00000000       0.010
  -0.36842105  0.36363636  0.00000000       0.010
  -0.31578947  0.36363636  0.00000000       0.010
  -0.26315789  0.36363636  0.00000000       0.010
  -0.21052632  0.36363636  0.00000000       0.010
  -0.15789474  0.36363636  0.00000000       0.010
  -0.10526316  0.36363636  0.00000000       0.010
  -0.05263158  0.36363636  0.00000000       0.010
   0.00000000  0.45454545  0.00000000       0.010
   0.05263158  0.45454545  0.00000000       0.010
   0.10526316  0.45454545  0.00000000       0.010
   0.15789474  0.45454545  0.00000000       0.010
   0.21052632  0.45454545  0.00000000       0.010
   0.26315789  0.45454545  0.00000000       0.010
   0.31578947  0.45454545  0.00000000       0.010
   0.36842105  0.45454545  0.00000000       0.010
   0.42105263  0.45454545  0.00000000       0.010
   0.47368421  0.45454545  0.00000000       0.010
  -0.47368421  0.45454545  0.00000000       0.010
  -0.42105263  0.45454545  0.00000000       0.010
  -0.36842105  0.45454545  0.00000000       0.010
  -0.31578947  0.45454545  0.00000000       0.010
  -0.26315789  0.45454545  0.00000000       0.010
  -0.21052632  0.45454545  0.00000000       0.010
  -0.15789474  0.45454545  0.00000000       0.010
  -0.10526316  0.45454545  0.00000000       0.010
  -0.05263158  0.45454545  0.00000000       0.010
 
 position of ions in fractional coordinates (direct lattice) 
   0.49999997  0.16666654  0.50703967
   0.00000000  0.66666651  0.50703967
   0.49999997  0.83333325  0.57974952
   0.00000000  0.33333322  0.57974952
   0.50000000  0.83333325  0.41321075
   0.00000000  0.33333325  0.41321075
 
 position of ions in cartesian coordinates  (Angst):
   1.68179967  0.97292886 10.26886559
   0.00000000  3.89171753 10.26886559
   1.68179967  4.86464760 11.74142843
   0.00000000  1.94585859 11.74142843
   1.68179977  4.86464760  8.36858719
   0.00000000  1.94585876  8.36858719
 


--------------------------------------------------------------------------------------------------------


 k-point  1 :   0.0000 0.0000 0.0000  plane waves:   13287
 k-point  2 :   0.0526 0.0000 0.0000  plane waves:   13297
 k-point  3 :   0.1053 0.0000 0.0000  plane waves:   13301
 k-point  4 :   0.1579 0.0000 0.0000  plane waves:   13307
 k-point  5 :   0.2105 0.0000 0.0000  plane waves:   13283
 k-point  6 :   0.2632 0.0000 0.0000  plane waves:   13261
 k-point  7 :   0.3158 0.0000 0.0000  plane waves:   13270
 k-point  8 :   0.3684 0.0000 0.0000  plane waves:   13264
 k-point  9 :   0.4211 0.0000 0.0000  plane waves:   13272
 k-point 10 :   0.4737 0.0000 0.0000  plane waves:   13242
 k-point 11 :   0.0000 0.0909 0.0000  plane waves:   13313
 k-point 12 :   0.0526 0.0909 0.0000  plane waves:   13308
 k-point 13 :   0.1053 0.0909 0.0000  plane waves:   13311
 k-point 14 :   0.1579 0.0909 0.0000  plane waves:   13287
 k-point 15 :   0.2105 0.0909 0.0000  plane waves:   13292
 k-point 16 :   0.2632 0.0909 0.0000  plane waves:   13268
 k-point 17 :   0.3158 0.0909 0.0000  plane waves:   13261
 k-point 18 :   0.3684 0.0909 0.0000  plane waves:   13261
 k-point 19 :   0.4211 0.0909 0.0000  plane waves:   13261
 k-point 20 :   0.4737 0.0909 0.0000  plane waves:   13258
 k-point 21 :  -0.4737 0.0909 0.0000  plane waves:   13258
 k-point 22 :  -0.4211 0.0909 0.0000  plane waves:   13261
 k-point 23 :  -0.3684 0.0909 0.0000  plane waves:   13261
 k-point 24 :  -0.3158 0.0909 0.0000  plane waves:   13261
 k-point 25 :  -0.2632 0.0909 0.0000  plane waves:   13268
 k-point 26 :  -0.2105 0.0909 0.0000  plane waves:   13292
 k-point 27 :  -0.1579 0.0909 0.0000  plane waves:   13287
 k-point 28 :  -0.1053 0.0909 0.0000  plane waves:   13311
 k-point 29 :  -0.0526 0.0909 0.0000  plane waves:   13308
 k-point 30 :   0.0000 0.1818 0.0000  plane waves:   13289
 k-point 31 :   0.0526 0.1818 0.0000  plane waves:   13289
 k-point 32 :   0.1053 0.1818 0.0000  plane waves:   13290
 k-point 33 :   0.1579 0.1818 0.0000  plane waves:   13272
 k-point 34 :   0.2105 0.1818 0.0000  plane waves:   13269
 k-point 35 :   0.2632 0.1818 0.0000  plane waves:   13256
 k-point 36 :   0.3158 0.1818 0.0000  plane waves:   13246
 k-point 37 :   0.3684 0.1818 0.0000  plane waves:   13265
 k-point 38 :   0.4211 0.1818 0.0000  plane waves:   13276
 k-point 39 :   0.4737 0.1818 0.0000  plane waves:   13266
 k-point 40 :  -0.4737 0.1818 0.0000  plane waves:   13266
 k-point 41 :  -0.4211 0.1818 0.0000  plane waves:   13276
 k-point 42 :  -0.3684 0.1818 0.0000  plane waves:   13265
 k-point 43 :  -0.3158 0.1818 0.0000  plane waves:   13246
 k-point 44 :  -0.2632 0.1818 0.0000  plane waves:   13256
 k-point 45 :  -0.2105 0.1818 0.0000  plane waves:   13269
 k-point 46 :  -0.1579 0.1818 0.0000  plane waves:   13272
 k-point 47 :  -0.1053 0.1818 0.0000  plane waves:   13290
 k-point 48 :  -0.0526 0.1818 0.0000  plane waves:   13289
 k-point 49 :   0.0000 0.2727 0.0000  plane waves:   13277
 k-point 50 :   0.0526 0.2727 0.0000  plane waves:   13289
 k-point 51 :   0.1053 0.2727 0.0000  plane waves:   13272
 k-point 52 :   0.1579 0.2727 0.0000  plane waves:   13272
 k-point 53 :   0.2105 0.2727 0.0000  plane waves:   13271
 k-point 54 :   0.2632 0.2727 0.0000  plane waves:   13255
 k-point 55 :   0.3158 0.2727 0.0000  plane waves:   13250
 k-point 56 :   0.3684 0.2727 0.0000  plane waves:   13267
 k-point 57 :   0.4211 0.2727 0.0000  plane waves:   13292
 k-point 58 :   0.4737 0.2727 0.0000  plane waves:   13271
 k-point 59 :  -0.4737 0.2727 0.0000  plane waves:   13271
 k-point 60 :  -0.4211 0.2727 0.0000  plane waves:   13292
 k-point 61 :  -0.3684 0.2727 0.0000  plane waves:   13267
 k-point 62 :  -0.3158 0.2727 0.0000  plane waves:   13250
 k-point 63 :  -0.2632 0.2727 0.0000  plane waves:   13255
 k-point 64 :  -0.2105 0.2727 0.0000  plane waves:   13271
 k-point 65 :  -0.1579 0.2727 0.0000  plane waves:   13272
 k-point 66 :  -0.1053 0.2727 0.0000  plane waves:   13272
 k-point 67 :  -0.0526 0.2727 0.0000  plane waves:   13289
 k-point 68 :   0.0000 0.3636 0.0000  plane waves:   13256
 k-point 69 :   0.0526 0.3636 0.0000  plane waves:   13276
 k-point 70 :   0.1053 0.3636 0.0000  plane waves:   13272
 k-point 71 :   0.1579 0.3636 0.0000  plane waves:   13271
 k-point 72 :   0.2105 0.3636 0.0000  plane waves:   13255
 k-point 73 :   0.2632 0.3636 0.0000  plane waves:   13248
 k-point 74 :   0.3158 0.3636 0.0000  plane waves:   13260
 k-point 75 :   0.3684 0.3636 0.0000  plane waves:   13281
 k-point 76 :   0.4211 0.3636 0.0000  plane waves:   13272
 k-point 77 :   0.4737 0.3636 0.0000  plane waves:   13277
 k-point 78 :  -0.4737 0.3636 0.0000  plane waves:   13277
 k-point 79 :  -0.4211 0.3636 0.0000  plane waves:   13272
 k-point 80 :  -0.3684 0.3636 0.0000  plane waves:   13281
 k-point 81 :  -0.3158 0.3636 0.0000  plane waves:   13260
 k-point 82 :  -0.2632 0.3636 0.0000  plane waves:   13248
 k-point 83 :  -0.2105 0.3636 0.0000  plane waves:   13255
 k-point 84 :  -0.1579 0.3636 0.0000  plane waves:   13271
 k-point 85 :  -0.1053 0.3636 0.0000  plane waves:   13272
 k-point 86 :  -0.0526 0.3636 0.0000  plane waves:   13276
 k-point 87 :   0.0000 0.4545 0.0000  plane waves:   13268
 k-point 88 :   0.0526 0.4545 0.0000  plane waves:   13245
 k-point 89 :   0.1053 0.4545 0.0000  plane waves:   13257
 k-point 90 :   0.1579 0.4545 0.0000  plane waves:   13268
 k-point 91 :   0.2105 0.4545 0.0000  plane waves:   13255
 k-point 92 :   0.2632 0.4545 0.0000  plane waves:   13256
 k-point 93 :   0.3158 0.4545 0.0000  plane waves:   13258
 k-point 94 :   0.3684 0.4545 0.0000  plane waves:   13264
 k-point 95 :   0.4211 0.4545 0.0000  plane waves:   13282
 k-point 96 :   0.4737 0.4545 0.0000  plane waves:   13312
 k-point 97 :  -0.4737 0.4545 0.0000  plane waves:   13312
 k-point 98 :  -0.4211 0.4545 0.0000  plane waves:   13282
 k-point 99 :  -0.3684 0.4545 0.0000  plane waves:   13264
 k-point ** :  -0.3158 0.4545 0.0000  plane waves:   13258
 k-point ** :  -0.2632 0.4545 0.0000  plane waves:   13256
 k-point ** :  -0.2105 0.4545 0.0000  plane waves:   13255
 k-point ** :  -0.1579 0.4545 0.0000  plane waves:   13268
 k-point ** :  -0.1053 0.4545 0.0000  plane waves:   13257
 k-point ** :  -0.0526 0.4545 0.0000  plane waves:   13245

 maximum and minimum number of plane-waves per node :       569      533

 maximum number of plane-waves:     13313
 maximum index in each direction: 
   IXMAX=    7   IYMAX=   11   IZMAX=   40
   IXMIN=   -7   IYMIN=  -12   IZMIN=  -40


 parallel 3D FFT for wavefunctions:
    minimum data exchange during FFTs selected (reduces bandwidth)
 parallel 3D FFT for charge:
    minimum data exchange during FFTs selected (reduces bandwidth)


 total amount of memory used by VASP MPI-rank0    62837. kBytes
=======================================================================

   base      :      30000. kBytes
   nonl-proj :      25819. kBytes
   fftplans  :       1397. kBytes
   grid      :       2623. kBytes
   one-center:         15. kBytes
   wavefun   :       2983. kBytes
 
     INWAV:  cpu time    0.0001: real time    0.0001
 Broyden mixing: mesh for mixing (old mesh)
   NGX = 13   NGY = 23   NGZ = 81
  (NGX  = 56   NGY  = 96   NGZ  =324)
  gives a total of  24219 points

 initial charge density was supplied:
 charge density of overlapping atoms calculated
 number of electron      36.0000000 magnetization 
 keeping initial charge density in first step


--------------------------------------------------------------------------------------------------------


 Maximum index for augmentation-charges         1251 (set IRDMAX)


--------------------------------------------------------------------------------------------------------


 First call to EWALD:  gamma=   0.241
 Maximum number of real-space cells 5x 3x 1
 Maximum number of reciprocal cells 2x 2x 7

    FEWALD:  cpu time    0.0016: real time    0.0016


--------------------------------------- Iteration      1(   1)  ---------------------------------------


    POTLOK:  cpu time    0.0218: real time    0.0686
    SETDIJ:  cpu time    0.0053: real time    0.0053
     EDDAV:  cpu time    1.2000: real time    1.2102
       DOS:  cpu time    0.0017: real time    0.0017
    --------------------------------------------
      LOOP:  cpu time    1.2288: real time    1.2858

 eigenvalue-minimisations  :  5040
 total energy-change (2. order) : 0.2728196E+03  (-0.1298401E+04)
 number of electron      36.0000000 magnetization 
 augmentation part       36.0000000 magnetization 

 DIPCOR: dipole corrections for dipol
 direction  3 min pos     1,
 dipolmoment           0.000000      0.000000      0.000002 electrons x Angstroem
 Tr[quadrupol]      -124.917827

 energy correction for charged system         0.000000 eV
 dipol+quadrupol energy correction           -0.000000 eV
 added-field ion interaction          0.000000 eV  (added to PSCEN)


 Free energy of the ion-electron system (eV)
  ---------------------------------------------------
  alpha Z        PSCENC =        26.05217192
  Ewald energy   TEWEN  =      4170.03777497
  -Hartree energ DENC   =     -5491.00653093
  -exchange      EXHF   =         0.00000000
  -V(xc)+E(xc)   XCENC  =      -153.11318189
  PAW double counting   =      1381.62273368    -1155.94054365
  entropy T*S    EENTRO =        -0.01827278
  eigenvalues    EBANDS =        59.96374070
  atomic energy  EATOM  =      1435.22174307
  Solvation  Ediel_sol  =         0.00000000
  ---------------------------------------------------
  free energy    TOTEN  =       272.81963507 eV

  energy without entropy =      272.83790786  energy(sigma->0) =      272.82877146


--------------------------------------------------------------------------------------------------------




--------------------------------------- Iteration      1(   2)  ---------------------------------------


     EDDAV:  cpu time    1.4205: real time    1.4210
       DOS:  cpu time    0.0015: real time    0.0015
    --------------------------------------------
      LOOP:  cpu time    1.4220: real time    1.4224

 eigenvalue-minimisations  :  7912
 total energy-change (2. order) :-0.2796886E+03  (-0.2721532E+03)
 number of electron      36.0000000 magnetization 
 augmentation part       36.0000000 magnetization 

 DIPCOR: dipole corrections for dipol
 direction  3 min pos     1,
 dipolmoment           0.000000      0.000000      0.000002 electrons x Angstroem
 Tr[quadrupol]      -124.917827

 energy correction for charged system         0.000000 eV
 dipol+quadrupol energy correction           -0.000000 eV
 added-field ion interaction          0.000000 eV  (added to PSCEN)


 Free energy of the ion-electron system (eV)
  ---------------------------------------------------
  alpha Z        PSCENC =        26.05217192
  Ewald energy   TEWEN  =      4170.03777497
  -Hartree energ DENC   =     -5491.00653093
  -exchange      EXHF   =         0.00000000
  -V(xc)+E(xc)   XCENC  =      -153.11318189
  PAW double counting   =      1381.62273368    -1155.94054365
  entropy T*S    EENTRO =        -0.00062961
  eigenvalues    EBANDS =      -219.74252825
  atomic energy  EATOM  =      1435.22174307
  Solvation  Ediel_sol  =         0.00000000
  ---------------------------------------------------
  free energy    TOTEN  =        -6.86899071 eV

  energy without entropy =       -6.86836109  energy(sigma->0) =       -6.86867590


--------------------------------------------------------------------------------------------------------




--------------------------------------- Iteration      1(   3)  ---------------------------------------


     EDDAV:  cpu time    1.2929: real time    1.2932
       DOS:  cpu time    0.0011: real time    0.0011
    --------------------------------------------
      LOOP:  cpu time    1.2939: real time    1.2943

 eigenvalue-minimisations  :  6672
 total energy-change (2. order) :-0.3389670E+02  (-0.3363071E+02)
 number of electron      36.0000000 magnetization 
 augmentation part       36.0000000 magnetization 

 DIPCOR: dipole corrections for dipol
 direction  3 min pos     1,
 dipolmoment           0.000000      0.000000      0.000002 electrons x Angstroem
 Tr[quadrupol]      -124.917827

 energy correction for charged system         0.000000 eV
 dipol+quadrupol energy correction           -0.000000 eV
 added-field ion interaction          0.000000 eV  (added to PSCEN)


 Free energy of the ion-electron system (eV)
  ---------------------------------------------------
  alpha Z        PSCENC =        26.05217192
  Ewald energy   TEWEN  =      4170.03777497
  -Hartree energ DENC   =     -5491.00653093
  -exchange      EXHF   =         0.00000000
  -V(xc)+E(xc)   XCENC  =      -153.11318189
  PAW double counting   =      1381.62273368    -1155.94054365
  entropy T*S    EENTRO =        -0.00000000
  eigenvalues    EBANDS =      -253.63985315
  atomic energy  EATOM  =      1435.22174307
  Solvation  Ediel_sol  =         0.00000000
  ---------------------------------------------------
  free energy    TOTEN  =       -40.76568599 eV

  energy without entropy =      -40.76568599  energy(sigma->0) =      -40.76568599


--------------------------------------------------------------------------------------------------------




--------------------------------------- Iteration      1(   4)  ---------------------------------------


     EDDAV:  cpu time    1.3425: real time    1.3430
       DOS:  cpu time    0.0011: real time    0.0011
    --------------------------------------------
      LOOP:  cpu time    1.3436: real time    1.3441

 eigenvalue-minimisations  :  7320
 total energy-change (2. order) :-0.1128089E+01  (-0.1123005E+01)
 number of electron      36.0000000 magnetization 
 augmentation part       36.0000000 magnetization 

 DIPCOR: dipole corrections for dipol
 direction  3 min pos     1,
 dipolmoment           0.000000      0.000000      0.000002 electrons x Angstroem
 Tr[quadrupol]      -124.917827

 energy correction for charged system         0.000000 eV
 dipol+quadrupol energy correction           -0.000000 eV
 added-field ion interaction          0.000000 eV  (added to PSCEN)


 Free energy of the ion-electron system (eV)
  ---------------------------------------------------
  alpha Z        PSCENC =        26.05217192
  Ewald energy   TEWEN  =      4170.03777497
  -Hartree energ DENC   =     -5491.00653093
  -exchange      EXHF   =         0.00000000
  -V(xc)+E(xc)   XCENC  =      -153.11318189
  PAW double counting   =      1381.62273368    -1155.94054365
  entropy T*S    EENTRO =        -0.00000000
  eigenvalues    EBANDS =      -254.76794202
  atomic energy  EATOM  =      1435.22174307
  Solvation  Ediel_sol  =         0.00000000
  ---------------------------------------------------
  free energy    TOTEN  =       -41.89377486 eV

  energy without entropy =      -41.89377486  energy(sigma->0) =      -41.89377486


--------------------------------------------------------------------------------------------------------




--------------------------------------- Iteration      1(   5)  ---------------------------------------


     EDDAV:  cpu time    1.3533: real time    1.3538
       DOS:  cpu time    0.0012: real time    0.0012
    CHARGE:  cpu time    0.0442: real time    0.0442
    MIXING:  cpu time    0.0005: real time    0.0006
    --------------------------------------------
      LOOP:  cpu time    1.3992: real time    1.3998

 eigenvalue-minimisations  :  7472
 total energy-change (2. order) :-0.3522740E-01  (-0.3521104E-01)
 number of electron      36.0000000 magnetization 
 augmentation part       -2.3429426 magnetization 

 DIPCOR: dipole corrections for dipol
 direction  3 min pos     1,
 dipolmoment           0.000000      0.000000      0.000002 electrons x Angstroem
 Tr[quadrupol]      -124.917827

 energy correction for charged system         0.000000 eV
 dipol+quadrupol energy correction           -0.000000 eV
 added-field ion interaction          0.000000 eV  (added to PSCEN)


 Broyden mixing:
  rms(total) = 0.26854E+01    rms(broyden)= 0.26854E+01
  rms(prec ) = 0.27264E+01
  weight for this iteration     100.00

 Free energy of the ion-electron system (eV)
  ---------------------------------------------------
  alpha Z        PSCENC =        26.05217192
  Ewald energy   TEWEN  =      4170.03777497
  -Hartree energ DENC   =     -5491.00653093
  -exchange      EXHF   =         0.00000000
  -V(xc)+E(xc)   XCENC  =      -153.11318189
  PAW double counting   =      1381.62273368    -1155.94054365
  entropy T*S    EENTRO =        -0.00000000
  eigenvalues    EBANDS =      -254.80316942
  atomic energy  EATOM  =      1435.22174307
  Solvation  Ediel_sol  =         0.00000000
  ---------------------------------------------------
  free energy    TOTEN  =       -41.92900226 eV

  energy without entropy =      -41.92900226  energy(sigma->0) =      -41.92900226


--------------------------------------------------------------------------------------------------------




--------------------------------------- Iteration      1(   6)  ---------------------------------------


    POTLOK:  cpu time    0.0126: real time    0.0126
    SETDIJ:  cpu time    0.0020: real time    0.0020
     EDDAV:  cpu time    1.3314: real time    1.3320
       DOS:  cpu time    0.0016: real time    0.0016
    CHARGE:  cpu time    0.0435: real time    0.0435
    MIXING:  cpu time    0.0003: real time    0.0003
    --------------------------------------------
      LOOP:  cpu time    1.3914: real time    1.3920

 eigenvalue-minimisations  :  7176
 total energy-change (2. order) : 0.1944515E+01  (-0.1210866E+01)
 number of electron      36.0000000 magnetization 
 augmentation part       -1.4073790 magnetization 

 DIPCOR: dipole corrections for dipol
 direction  3 min pos     1,
 dipolmoment           0.000000      0.000000      0.187952 electrons x Angstroem
 Tr[quadrupol]      -124.952339

 energy correction for charged system         0.000000 eV
 dipol+quadrupol energy correction           -0.008037 eV
 added-field ion interaction          0.000001 eV  (added to PSCEN)


 Broyden mixing:
  rms(total) = 0.11673E+01    rms(broyden)= 0.11673E+01
  rms(prec ) = 0.12012E+01
  weight for this iteration     100.00

 eigenvalues of (default mixing * dielectric matrix)
  average eigenvalue GAMMA=   1.2058
  1.2058

 Free energy of the ion-electron system (eV)
  ---------------------------------------------------
  alpha Z        PSCENC =        26.04413583
  Ewald energy   TEWEN  =      4170.03777497
  -Hartree energ DENC   =     -5490.33618902
  -exchange      EXHF   =         0.00000000
  -V(xc)+E(xc)   XCENC  =      -151.84395122
  PAW double counting   =      1933.29881496    -1709.11026371
  entropy T*S    EENTRO =        -0.00000035
  eigenvalues    EBANDS =      -253.29655208
  atomic energy  EATOM  =      1435.22174307
  Solvation  Ediel_sol  =         0.00000000
  ---------------------------------------------------
  free energy    TOTEN  =       -39.98448755 eV

  energy without entropy =      -39.98448720  energy(sigma->0) =      -39.98448738


--------------------------------------------------------------------------------------------------------




--------------------------------------- Iteration      1(   7)  ---------------------------------------


    POTLOK:  cpu time    0.0124: real time    0.0124
    SETDIJ:  cpu time    0.0020: real time    0.0020
     EDDAV:  cpu time    1.2855: real time    1.2858
       DOS:  cpu time    0.0012: real time    0.0012
    CHARGE:  cpu time    0.0433: real time    0.0433
    MIXING:  cpu time    0.0004: real time    0.0004
    --------------------------------------------
      LOOP:  cpu time    1.3447: real time    1.3451

 eigenvalue-minimisations  :  6848
 total energy-change (2. order) : 0.1923971E+00  (-0.6922055E+00)
 number of electron      36.0000000 magnetization 
 augmentation part       -2.0207971 magnetization 

 DIPCOR: dipole corrections for dipol
 direction  3 min pos     1,
 dipolmoment           0.000000      0.000000      0.186387 electrons x Angstroem
 Tr[quadrupol]      -125.721352

 energy correction for charged system         0.000000 eV
 dipol+quadrupol energy correction           -0.007904 eV
 added-field ion interaction          0.000001 eV  (added to PSCEN)


 Broyden mixing:
  rms(total) = 0.72652E+00    rms(broyden)= 0.72652E+00
  rms(prec ) = 0.76016E+00
  weight for this iteration     100.00

 eigenvalues of (default mixing * dielectric matrix)
  average eigenvalue GAMMA=   1.2014
  1.7918  0.6109

 Free energy of the ion-electron system (eV)
  ---------------------------------------------------
  alpha Z        PSCENC =        26.04426910
  Ewald energy   TEWEN  =      4170.03777497
  -Hartree energ DENC   =     -5505.59724159
  -exchange      EXHF   =         0.00000000
  -V(xc)+E(xc)   XCENC  =      -152.02587455
  PAW double counting   =      2468.78864560    -2245.19507680
  entropy T*S    EENTRO =        -0.00000000
  eigenvalues    EBANDS =      -237.06633026
  atomic energy  EATOM  =      1435.22174307
  Solvation  Ediel_sol  =         0.00000000
  ---------------------------------------------------
  free energy    TOTEN  =       -39.79209045 eV

  energy without entropy =      -39.79209045  energy(sigma->0) =      -39.79209045


--------------------------------------------------------------------------------------------------------




--------------------------------------- Iteration      1(   8)  ---------------------------------------


    POTLOK:  cpu time    0.0125: real time    0.0125
    SETDIJ:  cpu time    0.0020: real time    0.0020
     EDDAV:  cpu time    1.2898: real time    1.2902
       DOS:  cpu time    0.0012: real time    0.0012
    CHARGE:  cpu time    0.0435: real time    0.0435
    MIXING:  cpu time    0.0004: real time    0.0004
    --------------------------------------------
      LOOP:  cpu time    1.3493: real time    1.3497

 eigenvalue-minimisations  :  6880
 total energy-change (2. order) : 0.3505329E+00  (-0.1543624E+00)
 number of electron      36.0000000 magnetization 
 augmentation part       -1.7211633 magnetization 

 DIPCOR: dipole corrections for dipol
 direction  3 min pos     1,
 dipolmoment           0.000000      0.000000      0.137037 electrons x Angstroem
 Tr[quadrupol]      -125.687574

 energy correction for charged system         0.000000 eV
 dipol+quadrupol energy correction           -0.004273 eV
 added-field ion interaction          0.000001 eV  (added to PSCEN)


 Broyden mixing:
  rms(total) = 0.26549E+00    rms(broyden)= 0.26549E+00
  rms(prec ) = 0.27128E+00
  weight for this iteration     100.00

 eigenvalues of (default mixing * dielectric matrix)
  average eigenvalue GAMMA=   1.0996
  2.0525  0.6560  0.5901

 Free energy of the ion-electron system (eV)
  ---------------------------------------------------
  alpha Z        PSCENC =        26.04790022
  Ewald energy   TEWEN  =      4170.03777497
  -Hartree energ DENC   =     -5503.33833879
  -exchange      EXHF   =         0.00000000
  -V(xc)+E(xc)   XCENC  =      -151.55175898
  PAW double counting   =      2816.71443121    -2593.67383567
  entropy T*S    EENTRO =        -0.00000000
  eigenvalues    EBANDS =      -238.89947356
  atomic energy  EATOM  =      1435.22174307
  Solvation  Ediel_sol  =         0.00000000
  ---------------------------------------------------
  free energy    TOTEN  =       -39.44155754 eV

  energy without entropy =      -39.44155754  energy(sigma->0) =      -39.44155754


--------------------------------------------------------------------------------------------------------




--------------------------------------- Iteration      1(   9)  ---------------------------------------


    POTLOK:  cpu time    0.0125: real time    0.0125
    SETDIJ:  cpu time    0.0020: real time    0.0020
     EDDAV:  cpu time    1.2832: real time    1.2836
       DOS:  cpu time    0.0011: real time    0.0011
    CHARGE:  cpu time    0.0433: real time    0.0433
    MIXING:  cpu time    0.0004: real time    0.0004
    --------------------------------------------
      LOOP:  cpu time    1.3426: real time    1.3429

 eigenvalue-minimisations  :  6688
 total energy-change (2. order) : 0.1517358E-01  (-0.1056223E-01)
 number of electron      36.0000000 magnetization 
 augmentation part       -1.7115295 magnetization 

 DIPCOR: dipole corrections for dipol
 direction  3 min pos     1,
 dipolmoment           0.000000      0.000000      0.164734 electrons x Angstroem
 Tr[quadrupol]      -125.796065

 energy correction for charged system         0.000000 eV
 dipol+quadrupol energy correction           -0.006174 eV
 added-field ion interaction          0.000001 eV  (added to PSCEN)


 Broyden mixing:
  rms(total) = 0.97792E-01    rms(broyden)= 0.97792E-01
  rms(prec ) = 0.10034E+00
  weight for this iteration     100.00

 eigenvalues of (default mixing * dielectric matrix)
  average eigenvalue GAMMA=   1.1521
  2.0087  0.9980  0.9980  0.6039

 Free energy of the ion-electron system (eV)
  ---------------------------------------------------
  alpha Z        PSCENC =        26.04599876
  Ewald energy   TEWEN  =      4170.03777497
  -Hartree energ DENC   =     -5505.64654869
  -exchange      EXHF   =         0.00000000
  -V(xc)+E(xc)   XCENC  =      -151.44026361
  PAW double counting   =      2944.21943095    -2721.35583381
  entropy T*S    EENTRO =        -0.00000000
  eigenvalues    EBANDS =      -236.50868559
  atomic energy  EATOM  =      1435.22174307
  Solvation  Ediel_sol  =         0.00000000
  ---------------------------------------------------
  free energy    TOTEN  =       -39.42638396 eV

  energy without entropy =      -39.42638396  energy(sigma->0) =      -39.42638396


--------------------------------------------------------------------------------------------------------




--------------------------------------- Iteration      1(  10)  ---------------------------------------


    POTLOK:  cpu time    0.0124: real time    0.0124
    SETDIJ:  cpu time    0.0021: real time    0.0021
     EDDAV:  cpu time    1.3756: real time    1.3762
       DOS:  cpu time    0.0012: real time    0.0012
    CHARGE:  cpu time    0.0432: real time    0.0432
    MIXING:  cpu time    0.0004: real time    0.0004
    --------------------------------------------
      LOOP:  cpu time    1.4348: real time    1.4354

 eigenvalue-minimisations  :  7464
 total energy-change (2. order) : 0.2566558E-02  (-0.2172750E-02)
 number of electron      36.0000000 magnetization 
 augmentation part       -1.7316541 magnetization 

 DIPCOR: dipole corrections for dipol
 direction  3 min pos     1,
 dipolmoment           0.000000      0.000000      0.168045 electrons x Angstroem
 Tr[quadrupol]      -125.875269

 energy correction for charged system         0.000000 eV
 dipol+quadrupol energy correction           -0.006425 eV
 added-field ion interaction          0.000001 eV  (added to PSCEN)


 Broyden mixing:
  rms(total) = 0.82932E-01    rms(broyden)= 0.82932E-01
  rms(prec ) = 0.84010E-01
  weight for this iteration     100.00

 eigenvalues of (default mixing * dielectric matrix)
  average eigenvalue GAMMA=   1.3246
  2.1735  2.1735  1.0357  0.6201  0.6201

 Free energy of the ion-electron system (eV)
  ---------------------------------------------------
  alpha Z        PSCENC =        26.04574805
  Ewald energy   TEWEN  =      4170.03777497
  -Hartree energ DENC   =     -5507.51547273
  -exchange      EXHF   =         0.00000000
  -V(xc)+E(xc)   XCENC  =      -151.39890757
  PAW double counting   =      2963.85475440    -2741.04928538
  entropy T*S    EENTRO =        -0.00000000
  eigenvalues    EBANDS =      -234.62017220
  atomic energy  EATOM  =      1435.22174307
  Solvation  Ediel_sol  =         0.00000000
  ---------------------------------------------------
  free energy    TOTEN  =       -39.42381740 eV

  energy without entropy =      -39.42381740  energy(sigma->0) =      -39.42381740


--------------------------------------------------------------------------------------------------------




--------------------------------------- Iteration      1(  11)  ---------------------------------------


    POTLOK:  cpu time    0.0126: real time    0.0126
    SETDIJ:  cpu time    0.0021: real time    0.0021
     EDDAV:  cpu time    1.3548: real time    1.3552
       DOS:  cpu time    0.0011: real time    0.0011
    CHARGE:  cpu time    0.0433: real time    0.0433
    MIXING:  cpu time    0.0004: real time    0.0004
    --------------------------------------------
      LOOP:  cpu time    1.4143: real time    1.4147

 eigenvalue-minimisations  :  7416
 total energy-change (2. order) : 0.1360818E-02  (-0.3825784E-03)
 number of electron      36.0000000 magnetization 
 augmentation part       -1.7251360 magnetization 

 DIPCOR: dipole corrections for dipol
 direction  3 min pos     1,
 dipolmoment           0.000000      0.000000      0.160217 electrons x Angstroem
 Tr[quadrupol]      -125.946877

 energy correction for charged system         0.000000 eV
 dipol+quadrupol energy correction           -0.005840 eV
 added-field ion interaction          0.000001 eV  (added to PSCEN)


 Broyden mixing:
  rms(total) = 0.47336E-01    rms(broyden)= 0.47336E-01
  rms(prec ) = 0.48918E-01
  weight for this iteration     100.00

 eigenvalues of (default mixing * dielectric matrix)
  average eigenvalue GAMMA=   1.3090
  2.3608  2.3608  1.0414  0.6108  0.7401  0.7401

 Free energy of the ion-electron system (eV)
  ---------------------------------------------------
  alpha Z        PSCENC =        26.04633265
  Ewald energy   TEWEN  =      4170.03777497
  -Hartree energ DENC   =     -5509.02797523
  -exchange      EXHF   =         0.00000000
  -V(xc)+E(xc)   XCENC  =      -151.35755959
  PAW double counting   =      2981.22401722    -2758.46402610
  entropy T*S    EENTRO =        -0.00000000
  eigenvalues    EBANDS =      -233.10276357
  atomic energy  EATOM  =      1435.22174307
  Solvation  Ediel_sol  =         0.00000000
  ---------------------------------------------------
  free energy    TOTEN  =       -39.42245658 eV

  energy without entropy =      -39.42245658  energy(sigma->0) =      -39.42245658


--------------------------------------------------------------------------------------------------------




--------------------------------------- Iteration      1(  12)  ---------------------------------------


    POTLOK:  cpu time    0.0125: real time    0.0125
    SETDIJ:  cpu time    0.0020: real time    0.0020
     EDDAV:  cpu time    1.3308: real time    1.3310
       DOS:  cpu time    0.0011: real time    0.0011
    CHARGE:  cpu time    0.0435: real time    0.0435
    MIXING:  cpu time    0.0005: real time    0.0005
    --------------------------------------------
      LOOP:  cpu time    1.3904: real time    1.3906

 eigenvalue-minimisations  :  7160
 total energy-change (2. order) : 0.7779232E-03  (-0.4334941E-03)
 number of electron      36.0000000 magnetization 
 augmentation part       -1.7285936 magnetization 

 DIPCOR: dipole corrections for dipol
 direction  3 min pos     1,
 dipolmoment           0.000000      0.000000      0.164938 electrons x Angstroem
 Tr[quadrupol]      -126.011063

 energy correction for charged system         0.000000 eV
 dipol+quadrupol energy correction           -0.006190 eV
 added-field ion interaction          0.000001 eV  (added to PSCEN)


 Broyden mixing:
  rms(total) = 0.16160E-01    rms(broyden)= 0.16160E-01
  rms(prec ) = 0.18373E-01
  weight for this iteration     100.00

 eigenvalues of (default mixing * dielectric matrix)
  average eigenvalue GAMMA=   1.2134
  2.3320  2.3320  1.0704  0.8283  0.8283  0.5778  0.5252

 Free energy of the ion-electron system (eV)
  ---------------------------------------------------
  alpha Z        PSCENC =        26.04598340
  Ewald energy   TEWEN  =      4170.03777497
  -Hartree energ DENC   =     -5510.45822439
  -exchange      EXHF   =         0.00000000
  -V(xc)+E(xc)   XCENC  =      -151.33529874
  PAW double counting   =      2980.48010214    -2757.73247154
  entropy T*S    EENTRO =        -0.00000000
  eigenvalues    EBANDS =      -231.68128757
  atomic energy  EATOM  =      1435.22174307
  Solvation  Ediel_sol  =         0.00000000
  ---------------------------------------------------
  free energy    TOTEN  =       -39.42167866 eV

  energy without entropy =      -39.42167866  energy(sigma->0) =      -39.42167866


--------------------------------------------------------------------------------------------------------




--------------------------------------- Iteration      1(  13)  ---------------------------------------


    POTLOK:  cpu time    0.0123: real time    0.0123
    SETDIJ:  cpu time    0.0020: real time    0.0020
     EDDAV:  cpu time    1.3358: real time    1.3362
       DOS:  cpu time    0.0011: real time    0.0011
    CHARGE:  cpu time    0.0443: real time    0.0443
    MIXING:  cpu time    0.0005: real time    0.0005
    --------------------------------------------
      LOOP:  cpu time    1.3962: real time    1.3966

 eigenvalue-minimisations  :  7224
 total energy-change (2. order) : 0.1834404E-03  (-0.2443606E-03)
 number of electron      36.0000000 magnetization 
 augmentation part       -1.7247229 magnetization 

 DIPCOR: dipole corrections for dipol
 direction  3 min pos     1,
 dipolmoment           0.000000      0.000000      0.164736 electrons x Angstroem
 Tr[quadrupol]      -126.028445

 energy correction for charged system         0.000000 eV
 dipol+quadrupol energy correction           -0.006174 eV
 added-field ion interaction          0.000001 eV  (added to PSCEN)


 Broyden mixing:
  rms(total) = 0.12137E-01    rms(broyden)= 0.12137E-01
  rms(prec ) = 0.13944E-01
  weight for this iteration     100.00

 eigenvalues of (default mixing * dielectric matrix)
  average eigenvalue GAMMA=   1.2172
  2.3510  2.3510  1.5411  1.1044  0.7215  0.6589  0.6589  0.3511

 Free energy of the ion-electron system (eV)
  ---------------------------------------------------
  alpha Z        PSCENC =        26.04599856
  Ewald energy   TEWEN  =      4170.03777497
  -Hartree energ DENC   =     -5510.80642593
  -exchange      EXHF   =         0.00000000
  -V(xc)+E(xc)   XCENC  =      -151.32730774
  PAW double counting   =      2980.71791265    -2757.97073683
  entropy T*S    EENTRO =        -0.00000000
  eigenvalues    EBANDS =      -231.34045397
  atomic energy  EATOM  =      1435.22174307
  Solvation  Ediel_sol  =         0.00000000
  ---------------------------------------------------
  free energy    TOTEN  =       -39.42149522 eV

  energy without entropy =      -39.42149522  energy(sigma->0) =      -39.42149522


--------------------------------------------------------------------------------------------------------




--------------------------------------- Iteration      1(  14)  ---------------------------------------


    POTLOK:  cpu time    0.0128: real time    0.0128
    SETDIJ:  cpu time    0.0020: real time    0.0020
     EDDAV:  cpu time    1.2959: real time    1.2964
       DOS:  cpu time    0.0012: real time    0.0012
    CHARGE:  cpu time    0.0441: real time    0.0441
[...]
     24       1.6760      0.00000

 k-point    96 :       0.4737    0.4545    0.0000
  band No.  band energies     occupation 
      1     -13.7322      2.00000
      2     -13.7180      2.00000
      3     -12.2795      2.00000
      4     -12.2381      2.00000
      5      -7.4474      2.00000
      6      -7.4119      2.00000
      7      -6.2673      2.00000
      8      -6.2526      2.00000
      9      -5.2501      2.00000
     10      -5.2494      2.00000
     11      -4.5318      2.00000
     12      -4.5147      2.00000
     13      -3.4830      2.00000
     14      -3.4792      2.00000
     15      -2.4357      2.00000
     16      -2.2707      2.00000
     17      -2.1263      2.00000
     18      -2.0098      2.00000
     19       0.0683      0.00000
     20       0.0844      0.00000
     21       0.2298      0.00000
     22       0.2783      0.00000
     23       1.6444      0.00000
     24       1.6510      0.00000

 k-point    97 :      -0.4737    0.4545    0.0000
  band No.  band energies     occupation 
      1     -13.7322      2.00000
      2     -13.7180      2.00000
      3     -12.2795      2.00000
      4     -12.2381      2.00000
      5      -7.4474      2.00000
      6      -7.4119      2.00000
      7      -6.2673      2.00000
      8      -6.2526      2.00000
      9      -5.2501      2.00000
     10      -5.2494      2.00000
     11      -4.5318      2.00000
     12      -4.5147      2.00000
     13      -3.4830      2.00000
     14      -3.4792      2.00000
     15      -2.4357      2.00000
     16      -2.2707      2.00000
     17      -2.1263      2.00000
     18      -2.0098      2.00000
     19       0.0683      0.00000
     20       0.0844      0.00000
     21       0.2298      0.00000
     22       0.2783      0.00000
     23       1.6444      0.00000
     24       1.6510      0.00000

 k-point    98 :      -0.4211    0.4545    0.0000
  band No.  band energies     occupation 
      1     -13.7802      2.00000
      2     -13.7378      2.00000
      3     -12.4189      2.00000
      4     -12.3035      2.00000
      5      -7.2949      2.00000
      6      -7.1993      2.00000
      7      -6.2196      2.00000
      8      -6.1737      2.00000
      9      -5.2447      2.00000
     10      -5.2427      2.00000
     11      -4.5403      2.00000
     12      -4.4838      2.00000
     13      -3.4811      2.00000
     14      -3.4645      2.00000
     15      -2.6903      2.00000
     16      -2.3682      2.00000
     17      -2.1494      2.00000
     18      -1.9700      2.00000
     19       0.0506      0.00000
     20       0.0996      0.00000
     21       0.1500      0.00000
     22       0.2673      0.00000
     23       1.6577      0.00000
     24       1.6760      0.00000

 k-point    99 :      -0.3684    0.4545    0.0000
  band No.  band energies     occupation 
      1     -13.8586      2.00000
      2     -13.7883      2.00000
      3     -12.6205      2.00000
      4     -12.4510      2.00000
      5      -6.9982      2.00000
      6      -6.8711      2.00000
      7      -6.1055      2.00000
      8      -6.0216      2.00000
      9      -5.2452      2.00000
     10      -5.2309      2.00000
     11      -4.5619      2.00000
     12      -4.4588      2.00000
     13      -3.4484      2.00000
     14      -3.4135      2.00000
     15      -2.9778      2.00000
     16      -2.6096      2.00000
     17      -2.1327      2.00000
     18      -1.9938      2.00000
     19      -0.0049      0.00000
     20       0.0027      0.00000
     21       0.1788      0.00000
     22       0.2400      0.00000
     23       1.5568      0.00000
     24       1.5947      0.00000

 k-point   100 :      -0.3158    0.4545    0.0000
  band No.  band energies     occupation 
      1     -13.9611      2.00000
      2     -13.8636      2.00000
      3     -12.8436      2.00000
      4     -12.6408      2.00000
      5      -6.6474      2.00000
      6      -6.5267      2.00000
      7      -5.9135      2.00000
      8      -5.7841      2.00000
      9      -5.2497      2.00000
     10      -5.2278      2.00000
     11      -4.5990      2.00000
     12      -4.4588      2.00000
     13      -3.3580      2.00000
     14      -3.3504      2.00000
     15      -3.2049      2.00000
     16      -2.8509      2.00000
     17      -2.1236      2.00000
     18      -2.0366      2.00000
     19      -0.1244      0.00000
     20      -0.1243      0.00000
     21       0.2450      0.00000
     22       0.2510      0.00000
     23       1.3454      0.00000
     24       1.4136      0.00000

 k-point   101 :      -0.2632    0.4545    0.0000
  band No.  band energies     occupation 
      1     -14.0787      2.00000
      2     -13.9549      2.00000
      3     -13.0568      2.00000
      4     -12.8368      2.00000
      5      -6.3547      2.00000
      6      -6.2656      2.00000
      7      -5.6488      2.00000
      8      -5.5450      2.00000
      9      -5.2413      2.00000
     10      -5.1662      2.00000
     11      -4.6135      2.00000
     12      -4.4685      2.00000
     13      -3.4708      2.00000
     14      -3.2282      2.00000
     15      -3.1467      2.00000
     16      -3.0453      2.00000
     17      -2.0819      2.00000
     18      -2.0542      2.00000
     19      -0.2528      0.00000
     20      -0.2270      0.00000
     21       0.2790      0.00000
     22       0.3109      0.00000
     23       1.1411      0.00000
     24       1.1820      0.00000

 k-point   102 :      -0.2105    0.4545    0.0000
  band No.  band energies     occupation 
      1     -14.1998      2.00000
      2     -14.0519      2.00000
      3     -13.2409      2.00000
      4     -13.0145      2.00000
      5      -6.1810      2.00000
      6      -6.1327      2.00000
      7      -5.4794      2.00000
      8      -5.4708      2.00000
      9      -5.1693      2.00000
     10      -4.8607      2.00000
     11      -4.5800      2.00000
     12      -4.4561      2.00000
     13      -3.5030      2.00000
     14      -3.1925      2.00000
     15      -3.0739      2.00000
     16      -3.0656      2.00000
     17      -2.0274      2.00000
     18      -1.9983      2.00000
     19      -0.3299      0.00000
     20      -0.2676      0.00000
     21       0.3055      0.00000
     22       0.3747      0.00000
     23       0.9774      0.00000
     24       0.9935      0.00000

 k-point   103 :      -0.1579    0.4545    0.0000
  band No.  band energies     occupation 
      1     -14.3116      2.00000
      2     -14.1432      2.00000
      3     -13.3867      2.00000
      4     -13.1597      2.00000
      5      -6.1298      2.00000
      6      -6.1239      2.00000
      7      -5.4745      2.00000
      8      -5.4319      2.00000
      9      -4.9705      2.00000
     10      -4.5655      2.00000
     11      -4.5219      2.00000
     12      -4.3998      2.00000
     13      -3.3452      2.00000
     14      -3.2141      2.00000
     15      -3.0614      2.00000
     16      -2.9805      2.00000
     17      -1.9925      2.00000
     18      -1.9171      2.00000
     19      -0.3200      0.00000
     20      -0.2228      0.00000
     21       0.3389      0.00000
     22       0.4549      0.00000
     23       0.8608      0.00000
     24       0.9456      0.00000

 k-point   104 :      -0.1053    0.4545    0.0000
  band No.  band energies     occupation 
      1     -14.4016      2.00000
      2     -14.2176      2.00000
      3     -13.4909      2.00000
      4     -13.2656      2.00000
      5      -6.1938      2.00000
      6      -6.1469      2.00000
      7      -5.4869      2.00000
      8      -5.3710      2.00000
      9      -4.8534      2.00000
     10      -4.4244      2.00000
     11      -4.4098      2.00000
     12      -4.2776      2.00000
     13      -3.1905      2.00000
     14      -3.1753      2.00000
     15      -3.0237      2.00000
     16      -2.8810      2.00000
     17      -2.0168      2.00000
     18      -1.9003      2.00000
     19      -0.2427      0.00000
     20      -0.1260      0.00000
     21       0.4026      0.00000
     22       0.5697      0.00000
     23       0.8723      0.00000
     24       1.0134      0.00000

 k-point   105 :      -0.0526    0.4545    0.0000
  band No.  band energies     occupation 
      1     -14.4597      2.00000
      2     -14.2662      2.00000
      3     -13.5532      2.00000
      4     -13.3297      2.00000
      5      -6.2549      2.00000
      6      -6.1890      2.00000
      7      -5.4882      2.00000
      8      -5.3294      2.00000
      9      -4.8295      2.00000
     10      -4.3816      2.00000
     11      -4.2508      2.00000
     12      -4.1535      2.00000
     13      -3.2709      2.00000
     14      -3.1940      2.00000
     15      -2.7605      2.00000
     16      -2.7556      2.00000
     17      -2.1172      2.00000
     18      -1.9461      2.00000
     19      -0.1715      0.00000
     20      -0.0528      0.00000
     21       0.4920      0.00000
     22       0.6907      0.00000
     23       0.9714      0.00000
     24       1.1372      0.00000


--------------------------------------------------------------------------------------------------------


 soft charge-density along one line, spin component           1
         0         1         2         3         4         5         6         7         8         9
 total charge-density along one line
 
 pseudopotential strength for first ion, spin component:           1
 -9.506   0.000   0.000  -0.002  -0.000  -9.696   0.000   0.000
  0.000  -9.514   0.000  -0.000  -0.002   0.000  -9.704   0.000
  0.000   0.000  -9.502   0.000  -0.000   0.000   0.000  -9.693
 -0.002  -0.000   0.000  -9.513   0.000  -0.002  -0.000   0.000
 -0.000  -0.002  -0.000   0.000  -9.506  -0.000  -0.002  -0.000
 -9.696   0.000   0.000  -0.002  -0.000  -9.876   0.000   0.000
  0.000  -9.704   0.000  -0.000  -0.002   0.000  -9.884   0.000
  0.000   0.000  -9.693   0.000  -0.000   0.000   0.000  -9.873
 -0.002  -0.000   0.000  -9.704   0.000  -0.002  -0.000   0.000
 -0.000  -0.002  -0.000   0.000  -9.696  -0.000  -0.002  -0.000
  0.000   0.000   0.000  -0.000  -0.000   0.000   0.000   0.000
  0.000   0.000   0.001  -0.000  -0.000   0.000   0.000   0.001
  0.000  -0.029  -0.000   0.000   0.007   0.000  -0.029  -0.000
  0.000   0.000  -0.030   0.000   0.000   0.000   0.000  -0.030
  0.007   0.000  -0.000  -0.029   0.000   0.007   0.000  -0.000
  0.000  -0.036  -0.000   0.000   0.007   0.000  -0.036  -0.000
  0.000   0.000  -0.037   0.000   0.000   0.000   0.000  -0.038
  0.008   0.000  -0.000  -0.036   0.000   0.008   0.000  -0.000
 total augmentation occupancy for first ion, spin component:           1
  2.097   0.000  -0.000   0.431  -0.000  -2.473   0.000   0.000  -0.615  -0.000  -0.000  -0.000  -0.000  -0.000  -0.323   0.000
  0.000   3.164  -0.001  -0.000   0.430   0.000  -4.122   0.001  -0.000  -0.612  -0.001   0.000  -0.147  -0.002  -0.000   0.028
 -0.000  -0.001   1.536   0.000  -0.001   0.000   0.001  -1.721  -0.000   0.001  -0.098   0.017  -0.000   0.166   0.000   0.000
  0.431  -0.000   0.000   3.166   0.000  -0.615   0.000  -0.000  -4.123  -0.000  -0.000   0.000  -0.000   0.000  -0.147   0.000
 -0.000   0.430  -0.001   0.000   2.092  -0.000  -0.611   0.001  -0.000  -2.470  -0.000   0.000  -0.321  -0.000  -0.000   0.048
 -2.473   0.000   0.000  -0.615  -0.000   3.763  -0.000  -0.000   0.765   0.000   0.000   0.000  -0.000   0.000   0.393   0.000
  0.000  -4.122   0.001   0.000  -0.611  -0.000   5.939  -0.000   0.000   0.761   0.001  -0.000   0.165   0.003   0.000  -0.039
  0.000   0.001  -1.721  -0.000   0.001  -0.000  -0.000   2.843   0.000  -0.002   0.228  -0.019   0.000  -0.140  -0.000  -0.000
 -0.615  -0.000  -0.000  -4.123  -0.000   0.765   0.000   0.000   5.940   0.000   0.000  -0.000   0.000  -0.000   0.165  -0.000
 -0.000  -0.612   0.001  -0.000  -2.470   0.000   0.761  -0.002   0.000   3.760   0.001  -0.000   0.391  -0.000   0.000  -0.053
 -0.000  -0.001  -0.098  -0.000  -0.000   0.000   0.001   0.228   0.000   0.001   1.551  -0.099   0.001   0.044   0.000  -0.000
 -0.000   0.000   0.017   0.000   0.000   0.000  -0.000  -0.019  -0.000  -0.000  -0.099   0.008  -0.000  -0.001  -0.000   0.000
 -0.000  -0.147  -0.000  -0.000  -0.321  -0.000   0.165   0.000   0.000   0.391   0.001  -0.000   0.288   0.000   0.000  -0.036
 -0.000  -0.002   0.166   0.000  -0.000   0.000   0.003  -0.140  -0.000  -0.000   0.044  -0.001   0.000   0.355   0.000  -0.000
 -0.323  -0.000   0.000  -0.147  -0.000   0.393   0.000  -0.000   0.165   0.000   0.000  -0.000   0.000   0.000   0.288  -0.000
  0.000   0.028   0.000   0.000   0.048   0.000  -0.039  -0.000  -0.000  -0.053  -0.000   0.000  -0.036  -0.000  -0.000   0.005
  0.000   0.000  -0.018   0.000   0.000  -0.000  -0.000   0.007  -0.000   0.000  -0.010   0.000  -0.000  -0.043   0.000   0.000
  0.048   0.000   0.000   0.028   0.000  -0.054  -0.000   0.000  -0.039   0.000  -0.000   0.000  -0.000   0.000  -0.036   0.000


------------------------ aborting loop because EDIFF is reached ----------------------------------------


    CHARGE:  cpu time    0.0435: real time    0.0435
    FORLOC:  cpu time    0.0003: real time    0.0003
    FORNL :  cpu time    0.0637: real time    0.0637
    STRESS:  cpu time    0.3269: real time    0.3272
    FORCOR:  cpu time    0.0141: real time    0.0141
    FORHAR:  cpu time    0.0025: real time    0.0025
    MIXING:  cpu time    0.0002: real time    0.0002
    OFIELD:  cpu time    0.0000: real time    0.0000

  FORCE on cell =-STRESS in cart. coord.  units (eV):
  Direction    XX          YY          ZZ          XY          YZ          ZX
  --------------------------------------------------------------------------------------
  Alpha Z    26.05217    26.05217    26.05217
  Ewald    5245.85569  5245.34074 -6319.65232     0.00000     0.10834     0.00000
  Hartree  5454.14604  5453.95742 -5392.69079     0.00000     0.04282     0.00000
  E(xc)    -145.38194  -145.36955  -147.16945     0.00000     0.00078    -0.00000
  Local  -11256.04903-11255.35271 11143.97156    -0.00000    -0.15613    -0.00000
  n-local   323.77136   323.80995   338.85619     0.00000     0.00868     0.00000
  augment   -67.61124   -67.62850   -71.25108    -0.00000    -0.00287    -0.00000
  Kinetic   419.18239   418.95613   421.87553     0.00000    -0.00189     0.00000
  Fock        0.00000     0.00000     0.00000     0.00000     0.00000     0.00000
  -------------------------------------------------------------------------------------
  Total      -0.03456    -0.23435    -0.00819     0.00000    -0.00027     0.00000
  in kB      -0.13923    -0.94417    -0.03298     0.00000    -0.00110     0.00000
  external pressure =       -0.37 kB  Pullay stress =        0.00 kB


 VOLUME and BASIS-vectors are now :
 -----------------------------------------------------------------------------
  energy-cutoff  :      600.00
  volume of cell :      397.67
      direct lattice vectors                 reciprocal lattice vectors
     3.363599539  0.000000000  0.000000000     0.297300552  0.000000000  0.000000000
     0.000000000  5.837577679  0.000000000     0.000000000  0.171303930  0.000000000
     0.000000000  0.000000000 20.252588272     0.000000000  0.000000000  0.049376405

  length of vectors
     3.363599539  5.837577679 20.252588272     0.297300552  0.171303930  0.049376405


 FORCES acting on ions
    electron-ion (+dipol)            ewald-force                    non-local-force                 convergence-correction
 -----------------------------------------------------------------------------------------------
   -.113E-06 0.174E+00 -.400E+01   0.131E-06 -.173E+00 0.633E+01   -.166E-07 -.120E-02 -.233E+01   -.130E-07 0.145E-03 0.678E-03
   0.221E-06 0.175E+00 -.400E+01   -.228E-06 -.174E+00 0.633E+01   -.138E-07 -.120E-02 -.233E+01   0.359E-07 0.655E-04 0.546E-03
   -.297E-06 -.116E+00 -.465E+03   0.342E-06 0.113E+00 0.471E+03   0.612E-07 0.343E-02 -.557E+01   -.602E-07 -.556E-03 0.218E-03
   0.741E-07 -.119E+00 -.465E+03   -.420E-07 0.115E+00 0.471E+03   -.237E-07 0.353E-02 -.557E+01   -.173E-07 0.795E-03 0.588E-03
   0.201E-06 -.595E-01 0.472E+03   -.192E-06 0.595E-01 -.477E+03   -.887E-07 0.705E-03 0.459E+01   0.736E-08 -.476E-03 0.436E-03
   0.161E-07 -.608E-01 0.472E+03   -.110E-07 0.598E-01 -.477E+03   -.306E-07 0.699E-03 0.459E+01   -.127E-08 0.467E-03 0.137E-03
 -----------------------------------------------------------------------------------------------
   0.102E-06 -.533E-02 0.661E+01   -.107E-13 0.291E-15 0.000E+00   -.112E-06 0.595E-02 -.662E+01   -.484E-07 0.441E-03 0.260E-02
 
 
 POSITION                                       TOTAL-FORCE (eV/Angst)
 -----------------------------------------------------------------------------------
      1.68180      0.97241     10.26882        -0.000000     -0.000129     -0.000627
     -0.00000      3.89120     10.26882         0.000000     -0.000130     -0.000477
      1.68180      4.86494     11.74066         0.000000      0.000043      0.000455
     -0.00000      1.94615     11.74065         0.000000      0.000118      0.000465
      1.68180      4.86487      8.36940        -0.000000      0.000074      0.000077
     -0.00000      1.94608      8.36940        -0.000000      0.000025      0.000106
 -----------------------------------------------------------------------------------
    total drift:                               -0.000000      0.001062     -0.000001


--------------------------------------------------------------------------------------------------------



  FREE ENERGIE OF THE ION-ELECTRON SYSTEM (eV)
  ---------------------------------------------------
  free  energy   TOTEN  =       -39.42227867 eV

  energy  without entropy=      -39.42227867  energy(sigma->0) =      -39.42227867
 
 d Force = 0.1935459E-07[-0.812E-07, 0.120E-06]  d Energy = 0.3208243E-07-0.127E-07
 d Force =-0.2816395E-01[-0.282E-01,-0.282E-01]  d Ewald  =-0.2816395E-01 0.191E-10


--------------------------------------------------------------------------------------------------------


    POTLOK:  cpu time    0.0144: real time    0.0144


--------------------------------------------------------------------------------------------------------


 Conjugate gradient step on ions:
 trial-energy change:   -0.000000  1 .order   -0.000000   -0.000000    0.000000
  (g-gl).g = 0.125E-06      g.g   = 0.118E-06  gl.gl    = 0.273E-05
 g(Force)  = 0.118E-06   g(Stress)= 0.000E+00 ortho     =-0.882E-08
 gamma     =   0.04593
 trial     =   1.02185
 opt step  =   0.60924  (harmonic =   0.60924) maximal distance =0.00002740
 next E    =   -39.422279   (d E  =  -0.00000)


--------------------------------------------------------------------------------------------------------


  
 reached required accuracy - stopping structural energy minimisation
     LOOP+:  cpu time    3.0082: real time    3.0528
    4ORBIT:  cpu time    0.0000: real time    0.0000

 total amount of memory used by VASP MPI-rank0    62837. kBytes
=======================================================================

   base      :      30000. kBytes
   nonl-proj :      25819. kBytes
   fftplans  :       1397. kBytes
   grid      :       2623. kBytes
   one-center:         15. kBytes
   wavefun   :       2983. kBytes
 
  
  
 General timing and accounting informations for this job:
 ========================================================
  
                  Total CPU time used (sec):       70.923
                            User time (sec):       67.939
                          System time (sec):        2.984
                         Elapsed time (sec):       71.536
  
                   Maximum memory used (kb):      175016.
                   Average memory used (kb):           0.
  
                          Minor page faults:        25022
                          Major page faults:          976
                 Voluntary context switches:         3621
