    6    6    1    1
  0.7242000E+02  0.6390000E-09  0.3400000E-09  0.2000000E-08  0.5000000E-15
  1.000000000000000E-004
  CAR 
 unknown system                          
     36     20     22
 
  0.0000000E+00  0.6250000E-01  0.0000000E+00  0.5000000E-01
    1      -13.352850   1.000000
    2      -12.523543   1.000000
    3      -11.725105   1.000000
    4      -11.310830   1.000000
    5       -6.153260   1.000000
    6       -5.623766   1.000000
    7       -5.290290   1.000000
    8       -4.176038   1.000000
    9       -3.457556   1.000000
   10       -2.685279   1.000000
   11       -2.533668   1.000000
   12       -2.242960   1.000000
   13       -2.114939   1.000000
   14       -1.869767   1.000000
   15       -1.439160   1.000000
   16       -1.330120   1.000000
   17       -1.025798   1.000329
   18       -0.389125   0.177399
   19        0.003282  -0.001936
   20        0.809272  -0.000000
   21        1.519313  -0.000000
   22        1.614083  -0.000000
 
  0.2000000E+00  0.6250000E-01  0.0000000E+00  0.5000000E-01
    1      -13.235780   1.000000
    2      -12.448858   1.000000
    3      -11.943589   1.000000
    4      -11.441604   1.000000
    5       -5.892779   1.000000
    6       -5.385735   1.000000
    7       -5.024074   1.000000
    8       -4.284504   1.000000
    9       -3.419341   1.000000
   10       -2.974142   1.000000
   11       -2.574665   1.000000
   12       -2.214277   1.000000
   13       -2.081983   1.000000
   14       -1.873945   1.000000
   15       -1.511140   1.000000
   16       -1.351183   1.000000
   17       -1.158432   1.000007
   18       -0.535805   0.751849
   19       -0.110338  -0.013929
   20        0.698678  -0.000000
   21        1.260491  -0.000000
   22        1.628722  -0.000000
 
  0.4000000E+00  0.6250000E-01  0.0000000E+00  0.5000000E-01
    1      -12.906803   1.000000
    2      -12.420611   1.000000
    3      -12.262164   1.000000
    4      -11.714864   1.000000
    5       -5.368230   1.000000
    6       -4.869312   1.000000
    7       -4.613798   1.000000
    8       -4.505151   1.000000
    9       -3.379509   1.000000
   10       -3.222225   1.000000
   11       -2.702934   1.000000
   12       -2.403399   1.000000
   13       -1.993732   1.000000
   14       -1.905828   1.000000
   15       -1.672936   1.000000
   16       -1.468910   1.000000
   17       -1.371481   1.000000
   18       -0.839037   1.013295
   19       -0.451012   0.407659
   20        0.619841  -0.000000
   21        1.070076  -0.000000
   22        1.475531  -0.000000
 
 -0.4000000E+00  0.6250000E-01  0.0000000E+00  0.5000000E-01
    1      -12.910296   1.000000
    2      -12.415015   1.000000
    3      -12.259107   1.000000
    4      -11.719757   1.000000
    5       -5.369647   1.000000
    6       -4.856473   1.000000
    7       -4.612635   1.000000
    8       -4.491328   1.000000
    9       -3.428485   1.000000
   10       -3.234880   1.000000
   11       -2.719963   1.000000
   12       -2.248025   1.000000
   13       -2.113749   1.000000
   14       -1.851955   1.000000
   15       -1.726239   1.000000
   16       -1.514376   1.000000
   17       -1.226246   1.000001
   18       -1.008988   1.000499
   19       -0.406853   0.236424
   20        0.678676  -0.000000
   21        1.038796  -0.000000
   22        1.403296  -0.000000
 
 -0.2000000E+00  0.6250000E-01  0.0000000E+00  0.5000000E-01
    1      -13.237475   1.000000
    2      -12.445698   1.000000
    3      -11.939131   1.000000
    4      -11.446990   1.000000
    5       -5.891614   1.000000
    6       -5.387692   1.000000
    7       -5.015055   1.000000
    8       -4.271214   1.000000
    9       -3.452672   1.000000
   10       -2.937369   1.000000
   11       -2.431888   1.000000
   12       -2.331828   1.000000
   13       -2.203788   1.000000
   14       -1.769877   1.000000
   15       -1.553937   1.000000
   16       -1.474283   1.000000
   17       -1.073406   1.000092
   18       -0.552729   0.809539
   19       -0.132507  -0.018444
   20        0.800687  -0.000000
   21        1.225780  -0.000000
   22        1.453613  -0.000000
 
  0.0000000E+00  0.1875000E+00  0.0000000E+00  0.5000000E-01
    1      -13.020887   1.000000
    2      -12.264891   1.000000
    3      -11.508405   1.000000
    4      -11.091855   1.000000
    5       -5.763418   1.000000
    6       -5.265074   1.000000
    7       -5.142187   1.000000
    8       -4.081281   1.000000
    9       -3.657005   1.000000
   10       -3.238448   1.000000
   11       -3.072869   1.000000
   12       -2.831895   1.000000
   13       -2.316882   1.000000
   14       -2.024641   1.000000
   15       -1.826218   1.000000
   16       -1.544549   1.000000
   17       -1.150617   1.000009
   18       -0.827177   1.015571
   19       -0.336677   0.046744
   20        0.831348  -0.000000
   21        1.050374  -0.000000
   22        1.259866  -0.000000
 
  0.2000000E+00  0.1875000E+00  0.0000000E+00  0.5000000E-01
    1      -12.908309   1.000000
    2      -12.197928   1.000000
    3      -11.708675   1.000000
    4      -11.208803   1.000000
    5       -5.542823   1.000000
    6       -5.081926   1.000000
    7       -4.884731   1.000000
    8       -4.142123   1.000000
    9       -3.703628   1.000000
   10       -3.338656   1.000000
   11       -3.115415   1.000000
   12       -2.867882   1.000000
   13       -2.382563   1.000000
   14       -2.020342   1.000000
   15       -1.726798   1.000000
   16       -1.575947   1.000000
   17       -1.317859   1.000000
   18       -0.847223   1.011848
   19       -0.262873  -0.029608
   20        0.535453  -0.000000
   21        1.008433  -0.000000
   22        1.133538  -0.000000
 
  0.4000000E+00  0.1875000E+00  0.0000000E+00  0.5000000E-01
    1      -12.598535   1.000000
    2      -12.146747   1.000000
    3      -12.023416   1.000000
    4      -11.461410   1.000000
    5       -5.091449   1.000000
    6       -4.722049   1.000000
    7       -4.430513   1.000000
    8       -4.311153   1.000000
    9       -3.684132   1.000000
   10       -3.559223   1.000000
   11       -3.211271   1.000000
   12       -2.758960   1.000000
   13       -2.591482   1.000000
   14       -2.149915   1.000000
   15       -1.911441   1.000000
   16       -1.632556   1.000000
   17       -1.297294   1.000000
   18       -0.973381   1.001148
   19       -0.278824  -0.021823
   20        0.063684  -0.000491
   21        0.869006  -0.000000
   22        1.119895  -0.000000
 
 -0.4000000E+00  0.1875000E+00  0.0000000E+00  0.5000000E-01
    1      -12.609406   1.000000
    2      -12.129651   1.000000
    3      -12.014353   1.000000
    4      -11.475906   1.000000
    5       -5.093421   1.000000
    6       -4.698858   1.000000
    7       -4.427309   1.000000
    8       -4.291983   1.000000
    9       -3.728888   1.000000
   10       -3.567966   1.000000
   11       -3.066107   1.000000
   12       -2.906967   1.000000
   13       -2.677450   1.000000
   14       -2.013794   1.000000
   15       -1.935329   1.000000
   16       -1.487619   1.000000
   17       -1.344581   1.000000
   18       -1.219108   1.000001
   19       -0.322466   0.023100
   20        0.162304  -0.000034
   21        0.866049  -0.000000
   22        1.115071  -0.000000
 
 -0.2000000E+00  0.1875000E+00  0.0000000E+00  0.5000000E-01
    1      -12.913745   1.000000
    2      -12.188359   1.000000
    3      -11.695053   1.000000
    4      -11.225017   1.000000
    5       -5.543738   1.000000
    6       -5.089665   1.000000
    7       -4.864519   1.000000
    8       -4.101344   1.000000
    9       -3.752002   1.000000
   10       -3.282760   1.000000
   11       -3.094303   1.000000
   12       -2.856394   1.000000
   13       -2.411190   1.000000
   14       -2.008613   1.000000
   15       -1.814386   1.000000
   16       -1.642511   1.000000
   17       -1.390294   1.000000
   18       -0.853954   1.010739
   19       -0.361339   0.099621
   20        0.597313  -0.000000
   21        0.982366  -0.000000
   22        1.251510  -0.000000
 
  0.0000000E+00  0.3125000E+00  0.0000000E+00  0.5000000E-01
    1      -12.424043   1.000000
    2      -11.813800   1.000000
    3      -11.202490   1.000000
    4      -10.757685   1.000000
    5       -5.257834   1.000000
    6       -5.065882   1.000000
    7       -4.777553   1.000000
    8       -4.586843   1.000000
    9       -4.151008   1.000000
   10       -3.958748   1.000000
   11       -3.766653   1.000000
   12       -3.496379   1.000000
   13       -3.022866   1.000000
   14       -2.369717   1.000000
   15       -2.096153   1.000000
   16       -1.759689   1.000000
   17       -1.180358   1.000003
   18       -0.759799   1.030462
   19       -0.469829   0.486664
   20        0.608714  -0.000000
   21        0.819920  -0.000000
   22        0.936882  -0.000000
 
  0.2000000E+00  0.3125000E+00  0.0000000E+00  0.5000000E-01
    1      -12.325682   1.000000
    2      -11.762198   1.000000
    3      -11.350920   1.000000
    4      -10.846133   1.000000
    5       -5.322069   1.000000
    6       -4.992926   1.000000
    7       -4.769404   1.000000
    8       -4.361554   1.000000
    9       -4.156149   1.000000
   10       -3.940774   1.000000
   11       -3.697725   1.000000
   12       -3.636272   1.000000
   13       -3.017952   1.000000
   14       -2.233881   1.000000
   15       -2.043637   1.000000
   16       -1.648757   1.000000
   17       -1.396260   1.000000
   18       -0.904576   1.004644
   19       -0.244306  -0.034321
   20        0.646598  -0.000000
   21        0.818327  -0.000000
   22        1.008254  -0.000000
 
  0.4000000E+00  0.3125000E+00  0.0000000E+00  0.5000000E-01
    1      -12.070617   1.000000
    2      -11.687685   1.000000
    3      -11.617651   1.000000
    4      -11.042275   1.000000
    5       -5.277708   1.000000
    6       -4.979553   1.000000
    7       -4.735835   1.000000
    8       -4.368199   1.000000
    9       -4.232507   1.000000
   10       -3.940047   1.000000
   11       -3.610503   1.000000
   12       -3.090780   1.000000
   13       -2.824578   1.000000
   14       -2.435492   1.000000
   15       -2.055102   1.000000
   16       -1.687913   1.000000
   17       -1.551118   1.000000
   18       -1.101396   1.000041
   19       -0.000073  -0.002076
   20        0.369421  -0.000000
   21        0.909163  -0.000000
   22        1.079480  -0.000000
 
 -0.4000000E+00  0.3125000E+00  0.0000000E+00  0.5000000E-01
    1      -12.088568   1.000000
    2      -11.664304   1.000000
    3      -11.600828   1.000000
    4      -11.063378   1.000000
    5       -5.286825   1.000000
    6       -5.010557   1.000000
    7       -4.737904   1.000000
    8       -4.365445   1.000000
    9       -4.200429   1.000000
   10       -3.894418   1.000000
   11       -3.435090   1.000000
   12       -3.221673   1.000000
   13       -2.829457   1.000000
   14       -2.587303   1.000000
   15       -2.030740   1.000000
   16       -1.602994   1.000000
   17       -1.488407   1.000000
   18       -1.347694   1.000000
   19       -0.031563  -0.003871
   20        0.420179  -0.000000
   21        0.967542  -0.000000
   22        1.206940  -0.000000
 
 -0.2000000E+00  0.3125000E+00  0.0000000E+00  0.5000000E-01
    1      -12.335689   1.000000
    2      -11.747220   1.000000
    3      -11.329454   1.000000
    4      -10.870496   1.000000
    5       -5.345749   1.000000
    6       -4.972048   1.000000
    7       -4.786028   1.000000
    8       -4.450268   1.000000
    9       -4.133635   1.000000
   10       -3.878058   1.000000
   11       -3.659280   1.000000
   12       -3.481602   1.000000
   13       -2.914892   1.000000
   14       -2.509554   1.000000
   15       -2.084372   1.000000
   16       -1.688025   1.000000
   17       -1.446003   1.000000
   18       -1.040958   1.000222
   19       -0.235311  -0.035243
   20        0.622501  -0.000000
   21        0.896943  -0.000000
   22        1.209624  -0.000000
 
  0.0000000E+00  0.4375000E+00  0.0000000E+00  0.5000000E-01
    1      -11.781373   1.000000
    2      -11.361838   1.000000
    3      -11.103694   1.000000
    4      -10.528849   1.000000
    5       -5.766575   1.000000
    6       -5.333706   1.000000
    7       -5.075782   1.000000
    8       -4.694072   1.000000
    9       -4.303637   1.000000
   10       -3.993900   1.000000
   11       -3.799306   1.000000
   12       -3.560021   1.000000
   13       -3.500868   1.000000
   14       -2.661340   1.000000
   15       -2.450770   1.000000
   16       -1.916185   1.000000
   17       -1.341782   1.000000
   18       -0.649943   1.008678
   19       -0.079186  -0.008826
   20        0.742489  -0.000000
   21        0.880339  -0.000000
   22        1.110715  -0.000000
 
  0.2000000E+00  0.4375000E+00  0.0000000E+00  0.5000000E-01
    1      -11.717420   1.000000
    2      -11.335724   1.000000
    3      -11.155290   1.000000
    4      -10.578592   1.000000
    5       -5.909691   1.000000
    6       -5.495768   1.000000
    7       -5.265650   1.000000
    8       -4.830327   1.000000
    9       -4.067675   1.000000
   10       -3.974030   1.000000
   11       -3.709464   1.000000
   12       -3.512825   1.000000
   13       -3.176592   1.000000
   14       -2.483448   1.000000
   15       -2.290798   1.000000
   16       -1.776645   1.000000
   17       -1.504975   1.000000
   18       -0.791379   1.023436
   19        0.145890  -0.000055
   20        0.827492  -0.000000
   21        1.010081  -0.000000
   22        1.141145  -0.000000
 
  0.4000000E+00  0.4375000E+00  0.0000000E+00  0.5000000E-01
    1      -11.583301   1.000000
    2      -11.280580   1.000000
    3      -11.258413   1.000000
    4      -10.682322   1.000000
    5       -6.009041   1.000000
    6       -5.838569   1.000000
    7       -5.400824   1.000000
    8       -5.036106   1.000000
    9       -4.160277   1.000000
   10       -3.882820   1.000000
   11       -3.290056   1.000000
   12       -3.217114   1.000000
   13       -2.630931   1.000000
   14       -2.517096   1.000000
   15       -1.971600   1.000000
   16       -1.697149   1.000000
   17       -1.568594   1.000000
   18       -1.011037   1.000475
   19        0.445071  -0.000000
   20        0.734678  -0.000000
   21        0.990631  -0.000000
   22        1.190821  -0.000000
 
 -0.4000000E+00  0.4375000E+00  0.0000000E+00  0.5000000E-01
    1      -11.596669   1.000000
    2      -11.279294   1.000000
    3      -11.232938   1.000000
    4      -10.694930   1.000000
    5       -6.028002   1.000000
    6       -5.836503   1.000000
    7       -5.380221   1.000000
    8       -5.054172   1.000000
    9       -4.147049   1.000000
   10       -3.869512   1.000000
   11       -3.218376   1.000000
   12       -3.060317   1.000000
   13       -2.880494   1.000000
   14       -2.596971   1.000000
   15       -1.938153   1.000000
   16       -1.670705   1.000000
   17       -1.509904   1.000000
   18       -1.111727   1.000030
   19        0.426377  -0.000000
   20        0.758945  -0.000000
   21        1.050575  -0.000000
   22        1.245207  -0.000000
 
 -0.2000000E+00  0.4375000E+00  0.0000000E+00  0.5000000E-01
    1      -11.728339   1.000000
    2      -11.325650   1.000000
    3      -11.137962   1.000000
    4      -10.593891   1.000000
    5       -5.914697   1.000000
    6       -5.520889   1.000000
    7       -5.238890   1.000000
    8       -4.878673   1.000000
    9       -4.081905   1.000000
   10       -3.856495   1.000000
   11       -3.678650   1.000000
   12       -3.422592   1.000000
   13       -3.237588   1.000000
   14       -2.597929   1.000000
   15       -2.279293   1.000000
   16       -1.866034   1.000000
   17       -1.479086   1.000000
   18       -0.857633   1.010163
   19        0.160011  -0.000036
   20        0.811056  -0.000000
   21        1.068951  -0.000000
   22        1.217100  -0.000000
