 running on    8 total cores
 distrk:  each k-point on    8 cores,    1 groups
 distr:  one band on    4 cores,    2 groups
 using from now: INCAR     
 vasp.5.4.4.18Apr17-6-g9f103f2a35 (build Sep 16 2021 13:51:27) complex          
  
 POSCAR found type information on POSCAR  Mo Te
 POSCAR found :  2 types and       6 ions
 scaLAPACK will be used
 LDA part: xc-table for Pade appr. of Perdew
 found WAVECAR, reading the header
 POSCAR, INCAR and KPOINTS ok, starting setup
 FFT: planning ...
 reading WAVECAR
 the WAVECAR file was read successfully
 initial charge from wavefunction
 entering main loop
       N       E                     dE             d eps       ncg     rms          rms(c)
DAV:   1    -0.351417218192E+02   -0.35142E+02   -0.20825E+00   880   0.777E+00    0.654E-01
DAV:   2    -0.351242347659E+02    0.17487E-01   -0.39374E-01  1280   0.316E+00    0.103E+00
DAV:   3    -0.351062808278E+02    0.17954E-01   -0.26434E-01  1288   0.176E+00    0.458E-01
DAV:   4    -0.351007275373E+02    0.55533E-02   -0.37541E-02  1204   0.780E-01    0.111E-01
DAV:   5    -0.351005964455E+02    0.13109E-03   -0.41074E-03  1212   0.310E-01    0.514E-02
DAV:   6    -0.351005835278E+02    0.12918E-04   -0.90047E-04  1158   0.139E-01
   1 F= -.35100584E+02 E0= -.35100284E+02  d E =-.899162E-03
 writing wavefunctions
