
     Program PWSCF v.6.6 starts on  8May2023 at  6:36:59 

     This program is part of the open-source Quantum ESPRESSO suite
     for quantum simulation of materials; please cite
         "P. Giannozzi et al., J. Phys.:Condens. Matter 21 395502 (2009);
         "P. Giannozzi et al., J. Phys.:Condens. Matter 29 465901 (2017);
          URL http://www.quantum-espresso.org", 
     in publications or presentations arising from this work. More details at
     http://www.quantum-espresso.org/quote

     Parallel version (MPI), running on    24 processors

     MPI processes distributed on     1 nodes
     R & G space division:  proc/nbgrp/npool/nimage =      24
     Fft bands division:     nmany     =       1
     Reading input from INCAR-nscf.pw

     Current dimensions of program PWSCF are:
     Max number of different atomic species (ntypx) = 10
     Max number of k-points (npk) =  40000
     Max angular momentum in pseudopotentials (lmaxx) =  3

     Atomic positions and unit cell read from directory:
     ./wfc-out/pwscf.save/
     Atomic positions from file used, from input discarded
 

     Subspace diagonalization in iterative solution of the eigenvalue problem:
     a serial algorithm will be used

 
     Parallelization info
     --------------------
     sticks:   dense  smooth     PW     G-vecs:    dense   smooth      PW
     Min         134      71     21                26468    10301    1677
     Max         135      72     22                26487    10312    1685
     Sum        3239    1717    511               635589   247307   40339
 


     bravais-lattice index     =            0
     lattice parameter (alat)  =       8.3602  a.u.
     unit-cell volume          =    2560.1294 (a.u.)^3
     number of atoms/cell      =            4
     number of atomic types    =            2
     number of electrons       =        40.00
     number of Kohn-Sham states=           20
     kinetic-energy cutoff     =      80.0000  Ry
     charge density cutoff     =     600.0000  Ry
     Exchange-correlation= SLA  PW   PBE  PBE
                           (   1   4   3   4   0   0   0)

     celldm(1)=   8.360153  celldm(2)=   0.000000  celldm(3)=   0.000000
     celldm(4)=   0.000000  celldm(5)=   0.000000  celldm(6)=   0.000000

     crystal axes: (cart. coord. in units of alat)
               a(1) = (   1.000000   0.000000   0.000000 )  
               a(2) = (   0.000000   0.969180   0.000000 )  
               a(3) = (   0.000000   0.000000   4.520793 )  

     reciprocal axes: (cart. coord. in units 2 pi/alat)
               b(1) = (  1.000000  0.000000  0.000000 )  
               b(2) = (  0.000000  1.031800  0.000000 )  
               b(3) = (  0.000000  0.000000  0.221200 )  


     PseudoPot. # 1 for Sn read from file:
     ./Sn_pbe_v1.uspp.F.UPF
     MD5 check sum: 4cf58ce39ec5d5d420df3dd08604eb00
     Pseudo is Ultrasoft + core correction, Zval = 14.0
     Generated by new atomic code, or converted to UPF format
     Using radial grid of  891 points,  6 beta functions with: 
                l(1) =   0
                l(2) =   0
                l(3) =   1
                l(4) =   1
                l(5) =   2
                l(6) =   2
     Q(r) pseudized with  6 coefficients,  rinner =    1.200   1.200   1.200
                                                       1.200   1.200

     PseudoPot. # 2 for Se read from file:
     ./Se_pbe_v1.uspp.F.UPF
     MD5 check sum: 1b3568f3a8ae88f9a2a0ad0698632c85
     Pseudo is Ultrasoft + core correction, Zval =  6.0
     Generated by new atomic code, or converted to UPF format
     Using radial grid of  877 points,  6 beta functions with: 
                l(1) =   0
                l(2) =   0
                l(3) =   1
                l(4) =   1
                l(5) =   2
                l(6) =   2
     Q(r) pseudized with  8 coefficients,  rinner =    1.300   1.300   1.300
                                                       1.300   1.300

     atomic species   valence    mass     pseudopotential
        Sn            14.00   118.71000     Sn( 1.00)
        Se             6.00    78.96000     Se( 1.00)

     No symmetry found



   Cartesian axes

     site n.     atom                  positions (alat units)
         1           Sn  tau(   1) = (   0.5855483   0.7268853   0.6536457  )
         2           Sn  tau(   2) = (   0.0855492   0.2422951   0.0296489  )
         3           Se  tau(   3) = (   0.0285552   0.2422951   0.6429482  )
         4           Se  tau(   4) = (   0.5285552   0.7268853   0.0403480  )

     number of k points=   120

     Number of k-points >= 100: set verbosity='high' to print them.

     Dense  grid:   635589 G-vectors     FFT dimensions: (  72,  64, 300)

     Smooth grid:   247307 G-vectors     FFT dimensions: (  48,  48, 216)

     Estimated max dynamical RAM per process >      90.20 MB

     Estimated total dynamical RAM >       2.11 GB

     The potential is recalculated from file :
     ./wfc-out/pwscf.save/charge-density


     negative rho (up, down):  2.855E-05 0.000E+00
     Starting wfcs are   26 randomized atomic wfcs

     Band Structure Calculation
     Davidson diagonalization with overlap

     ethr =  2.50E-13,  avg # of iterations = 58.0

     total cpu time spent up to now is      106.2 secs

     End of band structure calculation

     Number of k-points >= 100: set verbosity='high' to print the bands.

     highest occupied level (ev):    -0.9318



               ==================================================
                            POLARIZATION CALCULATION
                         !!! NOT THOROUGHLY TESTED !!!
               --------------------------------------------------


                     K-POINTS STRINGS USED IN CALCULATIONS
                     ~~~~~~~~~~~~~~~~~~~~~~~~~~~~~~~~~~~~~

       G-vector along string (2 pi/a):  1.00000  0.00000  0.00000
       Modulus of the vector (1/bohr):  0.75156
       Number of k-points per string:  15
       Number of different strings  :   8


                               IONIC POLARIZATION
                               ~~~~~~~~~~~~~~~~~~

  ============================================================================
    Ion    Species    Charge              Position                Phase
  ----------------------------------------------------------------------------
     1        Sn      14.000       0.5855  0.7269  0.6536     0.19768 (mod 2)
     2        Sn      14.000       0.0855  0.2423  0.0296    -0.80231 (mod 2)
     3        Se       6.000       0.0286  0.2423  0.6429     0.17133 (mod 2)
     4        Se       6.000       0.5286  0.7269  0.0403    -0.82867 (mod 2)
  ----------------------------------------------------------------------------
                                               IONIC PHASE:   0.73803 (mod 2)
  ============================================================================


                            ELECTRONIC POLARIZATION
                            ~~~~~~~~~~~~~~~~~~~~~~~

  ============================================================================
    String     Weight      First k-point in string         Phase
  ----------------------------------------------------------------------------
       1      0.066667      0.0000  0.0000  0.0000    -0.47629
       2      0.133333      0.0000  0.0688  0.0000    -0.33843
       3      0.133333      0.0000  0.1376  0.0000    -0.22394
       4      0.133333      0.0000  0.2064  0.0000    -0.15497
       5      0.133333      0.0000  0.2751  0.0000    -0.09689
       6      0.133333      0.0000  0.3439  0.0000    -0.05111
       7      0.133333      0.0000  0.4127  0.0000    -0.02696
       8      0.133333      0.0000  0.4815  0.0000    -0.01897
  ----------------------------------------------------------------------------
                                          ELECTRONIC PHASE:  -0.15325
  ============================================================================


                               SUMMARY OF PHASES
                               ~~~~~~~~~~~~~~~~~

                          Ionic Phase:  0.73803
                     Electronic Phase: -0.15325
                          TOTAL PHASE:  0.58477 MOD_TOT: 2


                             VALUES OF POLARIZATION
                             ~~~~~~~~~~~~~~~~~~~~~~

        The calculation of phases done along the direction of vector 1
        of the reciprocal lattice gives the following contribution to
        the polarization vector (in different units, and being Omega
        the volume of the unit cell):

           P =   4.8888071  (mod  16.7203060)  (e/Omega).bohr

           P =   0.0019096  (mod   0.0065310)  e/bohr^2

           P =   0.1091748  (mod   0.3733908)  C/m^2

        The polarization direction is:  ( 1.00000 , 0.00000 , 0.00000 )


               ==================================================



     Writing output data file ./wfc-out/pwscf.save/
 
     init_run     :      0.82s CPU      1.09s WALL (       1 calls)
     electrons    :    107.72s CPU    112.72s WALL (       1 calls)

     Called by init_run:
     wfcinit      :      0.00s CPU      0.01s WALL (       1 calls)
     potinit      :      0.06s CPU      0.08s WALL (       1 calls)
     hinit0       :      0.32s CPU      0.33s WALL (       1 calls)

     Called by electrons:
     c_bands      :    100.03s CPU    104.82s WALL (       1 calls)
     v_of_rho     :      0.04s CPU      0.04s WALL (       1 calls)
     newd         :      0.13s CPU      0.29s WALL (       1 calls)

     Called by c_bands:
     init_us_2    :      0.16s CPU      0.21s WALL (     344 calls)
     cegterg      :     95.33s CPU     98.07s WALL (     368 calls)

     Called by *egterg:
     cdiaghg      :      4.99s CPU      5.04s WALL (    7080 calls)
     h_psi        :     71.92s CPU     74.39s WALL (    7448 calls)
     s_psi        :      3.28s CPU      3.35s WALL (    7448 calls)
     g_psi        :      0.56s CPU      0.56s WALL (    6960 calls)

     Called by h_psi:
     h_psi:calbec :      4.83s CPU      4.97s WALL (    7448 calls)
     vloc_psi     :     62.49s CPU     64.74s WALL (    7448 calls)
     add_vuspsi   :      4.06s CPU      4.13s WALL (    7448 calls)

     General routines
     calbec       :      5.88s CPU      6.05s WALL (    7672 calls)
     fft          :      0.03s CPU      0.04s WALL (      13 calls)
     ffts         :      0.00s CPU      0.00s WALL (       1 calls)
     fftw         :     56.16s CPU     58.18s WALL (  276414 calls)
     interpolate  :      0.00s CPU      0.00s WALL (       1 calls)
     davcio       :      0.10s CPU      2.10s WALL (     464 calls)
 
     Parallel routines
     fft_scatt_xy :      7.52s CPU      7.80s WALL (  276428 calls)
     fft_scatt_yz :     30.37s CPU     31.46s WALL (  276428 calls)
 
     PWSCF        :   1m57.25s CPU   3m 4.38s WALL

 
   This run was terminated on:   6:40: 3   8May2023            

=------------------------------------------------------------------------------=
   JOB DONE.
=------------------------------------------------------------------------------=
