 vasp.5.4.4.18Apr17-6-g9f103f2a35 (build Sep 16 2021 13:51:27) complex          
  
 executed on             LinuxIFC date 2023.03.16  12:59:55
 running on   24 total cores
 distrk:  each k-point on   24 cores,    1 groups
 distr:  one band on NCORES_PER_BAND=  24 cores,    1 groups


--------------------------------------------------------------------------------------------------------


 INCAR:
 POTCAR:    PAW_PBE Sn 08Apr2002                  
 POTCAR:    PAW_PBE Se 06Sep2000                  

 ----------------------------------------------------------------------------- 
|                                                                             |
|           W    W    AA    RRRRR   N    N  II  N    N   GGGG   !!!           |
|           W    W   A  A   R    R  NN   N  II  NN   N  G    G  !!!           |
|           W    W  A    A  R    R  N N  N  II  N N  N  G       !!!           |
|           W WW W  AAAAAA  RRRRR   N  N N  II  N  N N  G  GGG   !            |
|           WW  WW  A    A  R   R   N   NN  II  N   NN  G    G                |
|           W    W  A    A  R    R  N    N  II  N    N   GGGG   !!!           |
|                                                                             |
|      For optimal performance we recommend to set                            |
|        NCORE= 4 - approx SQRT( number of cores)                             |
|      NCORE specifies how many cores store one orbital (NPAR=cpu/NCORE).     |
|      This setting can  greatly improve the performance of VASP for DFT.     |
|      The default,   NCORE=1            might be grossly inefficient         |
|      on modern multi-core architectures or massively parallel machines.     |
|      Do your own testing !!!!                                               |
|      Unfortunately you need to use the default for GW and RPA calculations. |
|      (for HF NCORE is supported but not extensively tested yet)             |
|                                                                             |
 ----------------------------------------------------------------------------- 

 POTCAR:    PAW_PBE Sn 08Apr2002                  
   VRHFIN =Sn: s2p2                                                             
   LEXCH  = PE                                                                  
   EATOM  =    94.0860 eV,    6.9151 Ry                                         
                                                                                
   TITEL  = PAW_PBE Sn 08Apr2002                                                
   LULTRA =        F    use ultrasoft PP ?                                      
   IUNSCR =        1    unscreen: 0-lin 1-nonlin 2-no                           
   RPACOR =    2.000    partial core radius                                     
   POMASS =  118.710; ZVAL   =    4.000    mass and valenz                      
   RCORE  =    3.000    outmost cutoff radius                                   
   RWIGS  =    2.960; RWIGS  =    1.566    wigner-seitz radius (au A)           
   ENMAX  =  103.236; ENMIN  =   77.427 eV                                      
   ICORE  =        3    local potential                                         
   LCOR   =        T    correct aug charges                                     
   LPAW   =        T    paw PP                                                  
   EAUG   =  263.585                                                            
   DEXC   =    0.000                                                            
   RMAX   =    3.078    core radius for proj-oper                               
   RAUG   =    1.300    factor for augmentation sphere                          
   RDEP   =    3.022    radius for radial grids                                 
   RDEPT  =    2.655    core radius for aug-charge                              
                                                                                
   Atomic configuration                                                         
   13 entries                                                                   
     n  l   j            E        occ.                                          
     1  0  0.50    -29007.2859   2.0000                                         
     2  0  0.50     -4378.8056   2.0000                                         
     2  1  1.50     -3930.4293   6.0000                                         
     3  0  0.50      -845.0264   2.0000                                         
     3  1  1.50      -698.5725   6.0000                                         
     3  2  2.50      -473.2839  10.0000                                         
     4  0  0.50      -133.9036   2.0000                                         
     4  1  1.50       -89.6752   6.0000                                         
     4  2  2.50       -25.8375  10.0000                                         
     5  0  0.50       -10.5484   2.0000                                         
     5  1  0.50        -3.6940   2.0000                                         
     5  2  1.50        -1.3606   0.0000                                         
     4  3  2.50        -4.0817   0.0000                                         
   Description                                                                  
     l       E           TYP  RCUT    TYP  RCUT                                 
     0    -10.5483727     23  3.000                                             
     0     27.2116520     23  3.000                                             
     1     -3.6939829     23  3.000                                             
     1      1.9821976     23  3.000                                             
     2     -1.3605826     23  3.000                                             
     3     -2.7211652     23  3.000                                             
  local pseudopotential read in
  partial core-charges read in
  partial kinetic energy density read in
  atomic valenz-charges read in
  non local Contribution for L=           0  read in
    real space projection operators read in
  non local Contribution for L=           0  read in
    real space projection operators read in
  non local Contribution for L=           1  read in
    real space projection operators read in
  non local Contribution for L=           1  read in
    real space projection operators read in
  non local Contribution for L=           2  read in
    real space projection operators read in
    PAW grid and wavefunctions read in
 
   number of l-projection  operators is LMAX  =           5
   number of lm-projection operators is LMMAX =          13
 
 POTCAR:    PAW_PBE Se 06Sep2000                  
   VRHFIN =Se: s2p4                                                             
   LEXCH  = PE                                                                  
   EATOM  =   257.1286 eV,   18.8984 Ry                                         
                                                                                
   TITEL  = PAW_PBE Se 06Sep2000                                                
   LULTRA =        F    use ultrasoft PP ?                                      
   IUNSCR =        1    unscreen: 0-lin 1-nonlin 2-no                           
   RPACOR =    1.900    partial core radius                                     
   POMASS =   78.960; ZVAL   =    6.000    mass and valenz                      
   RCORE  =    2.100    outmost cutoff radius                                   
   RWIGS  =    2.200; RWIGS  =    1.164    wigner-seitz radius (au A)           
   ENMAX  =  211.555; ENMIN  =  158.666 eV                                      
   ICORE  =        3    local potential                                         
   LCOR   =        T    correct aug charges                                     
   LPAW   =        T    paw PP                                                  
   EAUG   =  446.842                                                            
   DEXC   =    0.000                                                            
   RMAX   =    2.147    core radius for proj-oper                               
   RAUG   =    1.300    factor for augmentation sphere                          
   RDEP   =    2.177    radius for radial grids                                 
   RDEPT  =    1.928    core radius for aug-charge                              
                                                                                
   Atomic configuration                                                         
   10 entries                                                                   
     n  l   j            E        occ.                                          
     1  0  0.50    -12503.4787   2.0000                                         
     2  0  0.50     -1606.9547   2.0000                                         
     2  1  1.50     -1413.3140   6.0000                                         
     3  0  0.50      -213.4885   2.0000                                         
     3  1  1.50      -152.9538   6.0000                                         
     3  2  2.50       -53.1221  10.0000                                         
     4  0  0.50       -17.2865   2.0000                                         
     4  1  0.50        -6.5110   4.0000                                         
     4  2  2.50        -6.8029   0.0000                                         
     4  3  2.50        -6.8029   0.0000                                         
   Description                                                                  
     l       E           TYP  RCUT    TYP  RCUT                                 
     0    -17.2865377     23  2.100                                             
     0    -15.3094411     23  2.100                                             
     1     -6.5110275     23  2.100                                             
     1     -0.0695192     23  2.100                                             
     2     -6.8029130     23  2.100                                             
     3     -1.3605826      7  2.100                                             
  local pseudopotential read in
  partial core-charges read in
  partial kinetic energy density read in
  atomic valenz-charges read in
  non local Contribution for L=           0  read in
    real space projection operators read in
  non local Contribution for L=           0  read in
    real space projection operators read in
  non local Contribution for L=           1  read in
    real space projection operators read in
  non local Contribution for L=           1  read in
    real space projection operators read in
  non local Contribution for L=           2  read in
    real space projection operators read in
    PAW grid and wavefunctions read in
 
   number of l-projection  operators is LMAX  =           5
   number of lm-projection operators is LMMAX =          13
 
 WARNING: PSMAXN for non-local potential too small
          PSMAXN should be >   12.5490833729506       NTYP=           1
  PAW_PBE Sn 08Apr2002                  :
 energy of atom  1       EATOM=  -94.0860
 kinetic energy error for atom=    0.0000 (will be added to EATOM!!)
  PAW_PBE Se 06Sep2000                  :
 energy of atom  2       EATOM= -257.1286
 kinetic energy error for atom=    0.0006 (will be added to EATOM!!)
 
 
 POSCAR:  POSCAR with strain of -0.005           
  positions in direct lattice
  No initial velocities read in
 exchange correlation table for  LEXCH =        8
   RHO(1)=    0.500       N(1)  =     2000
   RHO(2)=  100.500       N(2)  =     4000
 


--------------------------------------------------------------------------------------------------------


 ion  position               nearest neighbor table
   1  0.581  0.750  0.569-   4 2.71   3 2.91   3 2.93   3 3.21   3 3.23
   2  0.081  0.250  0.431-   3 2.71   4 2.91   4 2.93   4 3.21   4 3.23
   3  0.033  0.250  0.567-   2 2.71   1 2.91   1 2.93   1 3.21   1 3.23
   4  0.533  0.750  0.433-   1 2.71   2 2.91   2 2.93   2 3.21   2 3.23
 

IMPORTANT INFORMATION: All symmetrisations will be switched off!
NOSYMM: (Re-)initialisation of all symmetry stuff for point group C_1.

 
 
 KPOINTS: KMesh Grid                              

Automatic generation of k-mesh.
Space group operators:
 irot       det(A)        alpha          n_x          n_y          n_z        tau_x        tau_y        tau_z
    1     1.000000     0.000001     1.000000     0.000000     0.000000     0.000000     0.000000     0.000000
 
 Subroutine IBZKPT returns following result:
 ===========================================
 
 Found    113 irreducible k-points:
 
 Following reciprocal coordinates:
            Coordinates               Weight
  0.000000  0.000000  0.000000      1.000000
  0.066667 -0.000000  0.000000      2.000000
  0.133333 -0.000000  0.000000      2.000000
  0.200000 -0.000000  0.000000      2.000000
  0.266667 -0.000000  0.000000      2.000000
  0.333333 -0.000000 -0.000000      2.000000
  0.400000 -0.000000  0.000000      2.000000
  0.466667 -0.000000 -0.000000      2.000000
 -0.000000  0.066667 -0.000000      2.000000
  0.066667  0.066667 -0.000000      2.000000
  0.133333  0.066667 -0.000000      2.000000
  0.200000  0.066667  0.000000      2.000000
  0.266667  0.066667  0.000000      2.000000
  0.333333  0.066667  0.000000      2.000000
  0.400000  0.066667  0.000000      2.000000
  0.466667  0.066667 -0.000000      2.000000
 -0.466667  0.066667 -0.000000      2.000000
 -0.400000  0.066667  0.000000      2.000000
 -0.333333  0.066667  0.000000      2.000000
 -0.266667  0.066667  0.000000      2.000000
 -0.200000  0.066667 -0.000000      2.000000
 -0.133333  0.066667 -0.000000      2.000000
 -0.066667  0.066667 -0.000000      2.000000
 -0.000000  0.133333 -0.000000      2.000000
  0.066667  0.133333 -0.000000      2.000000
  0.133333  0.133333 -0.000000      2.000000
  0.200000  0.133333 -0.000000      2.000000
  0.266667  0.133333 -0.000000      2.000000
  0.333333  0.133333  0.000000      2.000000
  0.400000  0.133333  0.000000      2.000000
  0.466667  0.133333 -0.000000      2.000000
 -0.466667  0.133333  0.000000      2.000000
 -0.400000  0.133333 -0.000000      2.000000
 -0.333333  0.133333 -0.000000      2.000000
 -0.266667  0.133333 -0.000000      2.000000
 -0.200000  0.133333 -0.000000      2.000000
 -0.133333  0.133333 -0.000000      2.000000
 -0.066667  0.133333 -0.000000      2.000000
 -0.000000  0.200000 -0.000000      2.000000
  0.066667  0.200000 -0.000000      2.000000
  0.133333  0.200000 -0.000000      2.000000
  0.200000  0.200000  0.000000      2.000000
  0.266667  0.200000 -0.000000      2.000000
  0.333333  0.200000  0.000000      2.000000
  0.400000  0.200000  0.000000      2.000000
  0.466667  0.200000 -0.000000      2.000000
 -0.466667  0.200000 -0.000000      2.000000
 -0.400000  0.200000  0.000000      2.000000
 -0.333333  0.200000  0.000000      2.000000
 -0.266667  0.200000 -0.000000      2.000000
 -0.200000  0.200000 -0.000000      2.000000
 -0.133333  0.200000 -0.000000      2.000000
 -0.066667  0.200000 -0.000000      2.000000
 -0.000000  0.266667 -0.000000      2.000000
  0.066667  0.266667 -0.000000      2.000000
  0.133333  0.266667 -0.000000      2.000000
  0.200000  0.266667 -0.000000      2.000000
  0.266667  0.266667 -0.000000      2.000000
  0.333333  0.266667 -0.000000      2.000000
  0.400000  0.266667 -0.000000      2.000000
  0.466667  0.266667 -0.000000      2.000000
 -0.466667  0.266667 -0.000000      2.000000
 -0.400000  0.266667 -0.000000      2.000000
 -0.333333  0.266667 -0.000000      2.000000
 -0.266667  0.266667 -0.000000      2.000000
 -0.200000  0.266667 -0.000000      2.000000
 -0.133333  0.266667 -0.000000      2.000000
 -0.066667  0.266667 -0.000000      2.000000
 -0.000000  0.333333 -0.000000      2.000000
  0.066667  0.333333 -0.000000      2.000000
  0.133333  0.333333  0.000000      2.000000
  0.200000  0.333333 -0.000000      2.000000
  0.266667  0.333333 -0.000000      2.000000
  0.333333  0.333333 -0.000000      2.000000
  0.400000  0.333333  0.000000      2.000000
  0.466667  0.333333 -0.000000      2.000000
 -0.466667  0.333333  0.000000      2.000000
 -0.400000  0.333333 -0.000000      2.000000
 -0.333333  0.333333 -0.000000      2.000000
 -0.266667  0.333333 -0.000000      2.000000
 -0.200000  0.333333 -0.000000      2.000000
 -0.133333  0.333333 -0.000000      2.000000
 -0.066667  0.333333 -0.000000      2.000000
 -0.000000  0.400000 -0.000000      2.000000
  0.066667  0.400000 -0.000000      2.000000
  0.133333  0.400000  0.000000      2.000000
  0.200000  0.400000 -0.000000      2.000000
  0.266667  0.400000 -0.000000      2.000000
  0.333333  0.400000 -0.000000      2.000000
  0.400000  0.400000  0.000000      2.000000
  0.466667  0.400000 -0.000000      2.000000
 -0.466667  0.400000 -0.000000      2.000000
 -0.400000  0.400000 -0.000000      2.000000
 -0.333333  0.400000 -0.000000      2.000000
 -0.266667  0.400000 -0.000000      2.000000
 -0.200000  0.400000 -0.000000      2.000000
 -0.133333  0.400000 -0.000000      2.000000
 -0.066667  0.400000 -0.000000      2.000000
 -0.000000  0.466667 -0.000000      2.000000
  0.066667  0.466667  0.000000      2.000000
  0.133333  0.466667 -0.000000      2.000000
  0.200000  0.466667 -0.000000      2.000000
  0.266667  0.466667 -0.000000      2.000000
  0.333333  0.466667  0.000000      2.000000
  0.400000  0.466667 -0.000000      2.000000
  0.466667  0.466667 -0.000000      2.000000
 -0.466667  0.466667 -0.000000      2.000000
 -0.400000  0.466667 -0.000000      2.000000
 -0.333333  0.466667 -0.000000      2.000000
 -0.266667  0.466667 -0.000000      2.000000
 -0.200000  0.466667 -0.000000      2.000000
 -0.133333  0.466667 -0.000000      2.000000
 -0.066667  0.466667 -0.000000      2.000000
 
 Following cartesian coordinates:
            Coordinates               Weight
  0.000000  0.000000  0.000000      1.000000
  0.015213  0.000038  0.000038      2.000000
  0.030425  0.000076  0.000077      2.000000
  0.045638  0.000114  0.000115      2.000000
  0.060851  0.000153  0.000153      2.000000
  0.076064  0.000191  0.000192      2.000000
  0.091276  0.000229  0.000230      2.000000
  0.106489  0.000267  0.000268      2.000000
  0.000039  0.015531  0.000039      2.000000
  0.015252  0.015569  0.000077      2.000000
  0.030464  0.015607  0.000116      2.000000
  0.045677  0.015646  0.000154      2.000000
  0.060890  0.015684  0.000192      2.000000
  0.076102  0.015722  0.000231      2.000000
  0.091315  0.015760  0.000269      2.000000
  0.106528  0.015798  0.000307      2.000000
 -0.106450  0.015264 -0.000229      2.000000
 -0.091237  0.015302 -0.000191      2.000000
 -0.076025  0.015341 -0.000152      2.000000
 -0.060812  0.015379 -0.000114      2.000000
 -0.045599  0.015417 -0.000076      2.000000
 -0.030386  0.015455 -0.000038      2.000000
 -0.015174  0.015493  0.000001      2.000000
  0.000078  0.031062  0.000078      2.000000
  0.015291  0.031101  0.000117      2.000000
  0.030503  0.031139  0.000155      2.000000
  0.045716  0.031177  0.000193      2.000000
  0.060929  0.031215  0.000232      2.000000
  0.076141  0.031253  0.000270      2.000000
  0.091354  0.031291  0.000308      2.000000
  0.106567  0.031329  0.000346      2.000000
 -0.106411  0.030796 -0.000190      2.000000
 -0.091198  0.030834 -0.000152      2.000000
 -0.075986  0.030872 -0.000113      2.000000
 -0.060773  0.030910 -0.000075      2.000000
 -0.045560  0.030948 -0.000037      2.000000
 -0.030348  0.030986  0.000002      2.000000
 -0.015135  0.031024  0.000040      2.000000
  0.000117  0.046594  0.000117      2.000000
  0.015329  0.046632  0.000156      2.000000
  0.030542  0.046670  0.000194      2.000000
  0.045755  0.046708  0.000232      2.000000
  0.060968  0.046746  0.000271      2.000000
  0.076180  0.046784  0.000309      2.000000
  0.091393  0.046822  0.000347      2.000000
  0.106606  0.046861  0.000386      2.000000
 -0.106372  0.046327 -0.000151      2.000000
 -0.091159  0.046365 -0.000113      2.000000
 -0.075947  0.046403 -0.000074      2.000000
 -0.060734  0.046441 -0.000036      2.000000
 -0.045521  0.046479  0.000002      2.000000
 -0.030309  0.046517  0.000041      2.000000
 -0.015096  0.046556  0.000079      2.000000
  0.000156  0.062125  0.000156      2.000000
  0.015368  0.062163  0.000195      2.000000
  0.030581  0.062201  0.000233      2.000000
  0.045794  0.062239  0.000271      2.000000
  0.061007  0.062277  0.000310      2.000000
  0.076219  0.062316  0.000348      2.000000
  0.091432  0.062354  0.000386      2.000000
  0.106645  0.062392  0.000425      2.000000
 -0.106333  0.061858 -0.000112      2.000000
 -0.091121  0.061896 -0.000073      2.000000
 -0.075908  0.061934 -0.000035      2.000000
 -0.060695  0.061972  0.000003      2.000000
 -0.045482  0.062011  0.000042      2.000000
 -0.030270  0.062049  0.000080      2.000000
 -0.015057  0.062087  0.000118      2.000000
  0.000195  0.077656  0.000196      2.000000
  0.015407  0.077694  0.000234      2.000000
  0.030620  0.077732  0.000272      2.000000
  0.045833  0.077771  0.000311      2.000000
  0.061045  0.077809  0.000349      2.000000
  0.076258  0.077847  0.000387      2.000000
  0.091471  0.077885  0.000426      2.000000
  0.106684  0.077923  0.000464      2.000000
 -0.106294  0.077389 -0.000073      2.000000
 -0.091082  0.077427 -0.000034      2.000000
 -0.075869  0.077466  0.000004      2.000000
 -0.060656  0.077504  0.000042      2.000000
 -0.045443  0.077542  0.000081      2.000000
 -0.030231  0.077580  0.000119      2.000000
 -0.015018  0.077618  0.000157      2.000000
  0.000234  0.093187  0.000235      2.000000
  0.015446  0.093226  0.000273      2.000000
  0.030659  0.093264  0.000311      2.000000
  0.045872  0.093302  0.000350      2.000000
  0.061084  0.093340  0.000388      2.000000
  0.076297  0.093378  0.000426      2.000000
  0.091510  0.093416  0.000465      2.000000
  0.106722  0.093454  0.000503      2.000000
 -0.106255  0.092921 -0.000034      2.000000
 -0.091043  0.092959  0.000005      2.000000
 -0.075830  0.092997  0.000043      2.000000
 -0.060617  0.093035  0.000081      2.000000
 -0.045405  0.093073  0.000120      2.000000
 -0.030192  0.093111  0.000158      2.000000
 -0.014979  0.093149  0.000196      2.000000
  0.000272  0.108719  0.000274      2.000000
  0.015485  0.108757  0.000312      2.000000
  0.030698  0.108795  0.000350      2.000000
  0.045911  0.108833  0.000389      2.000000
  0.061123  0.108871  0.000427      2.000000
  0.076336  0.108909  0.000465      2.000000
  0.091549  0.108947  0.000504      2.000000
  0.106761  0.108986  0.000542      2.000000
 -0.106216  0.108452  0.000006      2.000000
 -0.091004  0.108490  0.000044      2.000000
 -0.075791  0.108528  0.000082      2.000000
 -0.060578  0.108566  0.000121      2.000000
 -0.045366  0.108604  0.000159      2.000000
 -0.030153  0.108642  0.000197      2.000000
 -0.014940  0.108681  0.000236      2.000000
 


--------------------------------------------------------------------------------------------------------




 Dimension of arrays:
   k-points           NKPTS =    113   k-points in BZ     NKDIM =    113   number of bands    NBANDS=     14
   number of dos      NEDOS =    301   number of ions     NIONS =      4
   non local maximal  LDIM  =      5   non local SUM 2l+1 LMDIM =     13
   total plane-waves  NPLWV = 207360
   max r-space proj   IRMAX =      1   max aug-charges    IRDMAX=  53515
   dimension x,y,z NGX =    36 NGY =   36 NGZ =  160
   dimension x,y,z NGXF=    72 NGYF=   72 NGZF=  320
   support grid    NGXF=    72 NGYF=   72 NGZF=  320
   ions per type =               2   2
   NGX,Y,Z   is equivalent  to a cutoff of  13.66, 13.94, 13.37 a.u.
   NGXF,Y,Z  is equivalent  to a cutoff of  27.31, 27.89, 26.73 a.u.

 SYSTEM =  SnSe                                    
 POSCAR =   POSCAR with strain of -0.005           

 Startparameter for this run:
   NWRITE =      2    write-flag & timer
   PREC   = accura    normal or accurate (medium, high low for compatibility)
   ISTART =      0    job   : 0-new  1-cont  2-samecut
   ICHARG =      2    charge: 1-file 2-atom 10-const
   ISPIN  =      1    spin polarized calculation?
   LNONCOLLINEAR =      F non collinear calculations
   LSORBIT =      F    spin-orbit coupling
   INIWAV =      1    electr: 0-lowe 1-rand  2-diag
   LASPH  =      F    aspherical Exc in radial PAW
   METAGGA=      F    non-selfconsistent MetaGGA calc.

 Electronic Relaxation 1
   ENCUT  =  600.0 eV  44.10 Ry    6.64 a.u.   8.75  8.57 39.75*2*pi/ulx,y,z
   ENINI  =  600.0     initial cutoff
   ENAUG  =  446.8 eV  augmentation charge cutoff
   NELM   =     60;   NELMIN=  2; NELMDL= -5     # of ELM steps 
   EDIFF  = 0.1E-05   stopping-criterion for ELM
   LREAL  =      F    real-space projection
   NLSPLINE    = F    spline interpolate recip. space projectors
   LCOMPAT=      F    compatible to vasp.4.4
   GGA_COMPAT  = T    GGA compatible to vasp.4.4-vasp.4.6
   LMAXPAW     = -100 max onsite density
   LMAXMIX     =    2 max onsite mixed and CHGCAR
   VOSKOWN=      0    Vosko Wilk Nusair interpolation
   ROPT   =    0.00000   0.00000
 Ionic relaxation
   EDIFFG = -.1E-02   stopping-criterion for IOM
   NSW    =    100    number of steps for IOM
   NBLOCK =      1;   KBLOCK =    100    inner block; outer block 
   IBRION =      2    ionic relax: 0-MD 1-quasi-New 2-CG
   NFREE  =      1    steps in history (QN), initial steepest desc. (CG)
   ISIF   =      2    stress and relaxation
   IWAVPR =     11    prediction:  0-non 1-charg 2-wave 3-comb
   ISYM   =      0    0-nonsym 1-usesym 2-fastsym
   LCORR  =      T    Harris-Foulkes like correction to forces

   POTIM  = 0.5000    time-step for ionic-motion
   TEIN   =    0.0    initial temperature
   TEBEG  =    0.0;   TEEND  =   0.0 temperature during run
   SMASS  =  -3.00    Nose mass-parameter (am)
   estimated Nose-frequenzy (Omega)   =  0.10E-29 period in steps =****** mass=  -0.439E-27a.u.
   SCALEE = 1.0000    scale energy and forces
   NPACO  =    256;   APACO  = 16.0  distance and # of slots for P.C.
   PSTRESS=    0.0 pullay stress

  Mass of Ions in am
   POMASS = 118.71 78.96
  Ionic Valenz
   ZVAL   =   4.00  6.00
  Atomic Wigner-Seitz radii
   RWIGS  =  -1.00 -1.00
  virtual crystal weights 
   VCA    =   1.00  1.00
   NELECT =      20.0000    total number of electrons
   NUPDOWN=      -1.0000    fix difference up-down

 DOS related values:
   EMIN   =  10.00;   EMAX   =-10.00  energy-range for DOS
   EFERMI =   0.00
   ISMEAR =     0;   SIGMA  =   0.10  broadening in eV -4-tet -1-fermi 0-gaus

 Electronic relaxation 2 (details)
   IALGO  =     38    algorithm
   LDIAG  =      T    sub-space diagonalisation (order eigenvalues)
   LSUBROT=      F    optimize rotation matrix (better conditioning)
   TURBO    =      0    0=normal 1=particle mesh
   IRESTART =      0    0=no restart 2=restart with 2 vectors
   NREBOOT  =      0    no. of reboots
   NMIN     =      0    reboot dimension
   EREF     =   0.00    reference energy to select bands
   IMIX   =      4    mixing-type and parameters
     AMIX     =   0.40;   BMIX     =  1.00
     AMIX_MAG =   1.60;   BMIX_MAG =  1.00
     AMIN     =   0.10
     WC   =   100.;   INIMIX=   1;  MIXPRE=   1;  MAXMIX= -45

 Intra band minimization:
   WEIMIN = 0.0010     energy-eigenvalue tresh-hold
   EBREAK =  0.18E-07  absolut break condition
   DEPER  =   0.30     relativ break condition  

   TIME   =   0.40     timestep for ELM

  volume/ion in A,a.u.               =      93.58       631.53
  Fermi-wavevector in a.u.,A,eV,Ry     =   0.616592  1.165190  5.172742  0.380186
  Thomas-Fermi vector in A             =   1.674376
 
 Write flags
   LWAVE        =      T    write WAVECAR
   LDOWNSAMPLE  =      F    k-point downsampling of WAVECAR
   LCHARG       =      T    write CHGCAR
   LVTOT        =      F    write LOCPOT, total local potential
   LVHAR        =      F    write LOCPOT, Hartree potential only
   LELF         =      F    write electronic localiz. function (ELF)
   LORBIT       =      0    0 simple, 1 ext, 2 COOP (PROOUT), +10 PAW based schemes


 Dipole corrections
   LMONO  =      F    monopole corrections only (constant potential shift)
   LDIPOL =      F    correct potential (dipole corrections)
   IDIPOL =      0    1-x, 2-y, 3-z, 4-all directions 
   EPSILON=  1.0000000 bulk dielectric constant

 Exchange correlation treatment:
   GGA     =    PE    GGA type
   LEXCH   =     8    internal setting for exchange type
   VOSKOWN=      0    Vosko Wilk Nusair interpolation
   LHFCALC =     F    Hartree Fock is set to
   LHFONE  =     F    Hartree Fock one center treatment
   AEXX    =    0.0000 exact exchange contribution

 Linear response parameters
   LEPSILON=     F    determine dielectric tensor
   LRPA    =     F    only Hartree local field effects (RPA)
   LNABLA  =     F    use nabla operator in PAW spheres
   LVEL    =     F    velocity operator in full k-point grid
   LINTERFAST=   F  fast interpolation
   KINTER  =     0    interpolate to denser k-point grid
   CSHIFT  =0.1000    complex shift for real part using Kramers Kronig
   OMEGAMAX=  -1.0    maximum frequency
   DEG_THRESHOLD= 0.2000000E-02 threshold for treating states as degnerate
   RTIME   =   -0.100 relaxation time in fs
  (WPLASMAI=    0.000 imaginary part of plasma frequency in eV, 0.658/RTIME)
   DFIELD  = 0.0000000 0.0000000 0.0000000 field for delta impulse in time
 
 Orbital magnetization related:
   ORBITALMAG=     F  switch on orbital magnetization
   LCHIMAG   =     F  perturbation theory with respect to B field
   DQ        =  0.001000  dq finite difference perturbation B field
   LLRAUG    =     F  two centre corrections for induced B field



--------------------------------------------------------------------------------------------------------


 conjugate gradient relaxation of ions
 charge density and potential will be updated during run
 non-spin polarized calculation
 Variant of blocked Davidson
 Davidson routine will perform the subspace rotation
 perform sub-space diagonalisation
    after iterative eigenvector-optimisation
 modified Broyden-mixing scheme, WC =      100.0
 initial mixing is a Kerker type mixing with AMIX =  0.4000 and BMIX =      1.0000
 Hartree-type preconditioning will be used
 using additional bands            4
 reciprocal scheme for non local part
 use partial core corrections
 calculate Harris-corrections to forces 
   (improved forces if not selfconsistent)
 use gradient corrections 
 use of overlap-Matrix (Vanderbilt PP)
 Gauss-broadening in eV      SIGMA  =   0.10


--------------------------------------------------------------------------------------------------------


  energy-cutoff  :      600.00
  volume of cell :      374.34
      direct lattice vectors                 reciprocal lattice vectors
     4.382356765 -0.010955892 -0.010955892     0.228190587  0.000571913  0.000574780
    -0.010731195  4.292477857 -0.010731195     0.000583889  0.232968601  0.000586815
    -0.050000000 -0.050000000 19.900000000     0.000125945  0.000125945  0.050251889

  length of vectors
     4.382384155  4.292504685 19.900125628     0.228192028  0.232970072  0.050252205


 
 k-points in units of 2pi/SCALE and weight: KMesh Grid                              
   0.00000000  0.00000000  0.00000000       0.004
   0.01521271  0.00003813  0.00003832       0.009
   0.03042541  0.00007626  0.00007664       0.009
   0.04563812  0.00011438  0.00011496       0.009
   0.06085082  0.00015251  0.00015327       0.009
   0.07606353  0.00019064  0.00019159       0.009
   0.09127623  0.00022877  0.00022991       0.009
   0.10648894  0.00026689  0.00026823       0.009
   0.00003893  0.01553124  0.00003912       0.009
   0.01525163  0.01556937  0.00007744       0.009
   0.03046434  0.01560750  0.00011576       0.009
   0.04567704  0.01564562  0.00015408       0.009
   0.06088975  0.01568375  0.00019240       0.009
   0.07610245  0.01572188  0.00023071       0.009
   0.09131516  0.01576001  0.00026903       0.009
   0.10652787  0.01579813  0.00030735       0.009
  -0.10645001  0.01526435 -0.00022911       0.009
  -0.09123731  0.01530247 -0.00019079       0.009
  -0.07602460  0.01534060 -0.00015247       0.009
  -0.06081190  0.01537873 -0.00011415       0.009
  -0.04559919  0.01541686 -0.00007584       0.009
  -0.03038649  0.01545498 -0.00003752       0.009
  -0.01517378  0.01549311  0.00000080       0.009
   0.00007785  0.03106248  0.00007824       0.009
   0.01529056  0.03110061  0.00011656       0.009
   0.03050326  0.03113874  0.00015488       0.009
   0.04571597  0.03117686  0.00019320       0.009
   0.06092868  0.03121499  0.00023152       0.009
   0.07614138  0.03125312  0.00026984       0.009
   0.09135409  0.03129125  0.00030815       0.009
   0.10656679  0.03132937  0.00034647       0.009
  -0.10641109  0.03079559 -0.00018999       0.009
  -0.09119838  0.03083371 -0.00015167       0.009
  -0.07598568  0.03087184 -0.00011335       0.009
  -0.06077297  0.03090997 -0.00007503       0.009
  -0.04556027  0.03094810 -0.00003671       0.009
  -0.03034756  0.03098623  0.00000160       0.009
  -0.01513485  0.03102435  0.00003992       0.009
   0.00011678  0.04659372  0.00011736       0.009
   0.01532948  0.04663185  0.00015568       0.009
   0.03054219  0.04666998  0.00019400       0.009
   0.04575490  0.04670810  0.00023232       0.009
   0.06096760  0.04674623  0.00027064       0.009
   0.07618031  0.04678436  0.00030896       0.009
   0.09139301  0.04682249  0.00034728       0.009
   0.10660572  0.04686061  0.00038559       0.009
  -0.10637216  0.04632683 -0.00015087       0.009
  -0.09115946  0.04636495 -0.00011255       0.009
  -0.07594675  0.04640308 -0.00007423       0.009
  -0.06073405  0.04644121 -0.00003591       0.009
  -0.04552134  0.04647934  0.00000241       0.009
  -0.03030863  0.04651747  0.00004073       0.009
  -0.01509593  0.04655559  0.00007904       0.009
   0.00015570  0.06212496  0.00015648       0.009
   0.01536841  0.06216309  0.00019480       0.009
   0.03058112  0.06220122  0.00023312       0.009
   0.04579382  0.06223934  0.00027144       0.009
   0.06100653  0.06227747  0.00030976       0.009
   0.07621923  0.06231560  0.00034808       0.009
   0.09143194  0.06235373  0.00038640       0.009
   0.10664464  0.06239185  0.00042471       0.009
  -0.10633324  0.06185807 -0.00011175       0.009
  -0.09112053  0.06189620 -0.00007343       0.009
  -0.07590783  0.06193432 -0.00003511       0.009
  -0.06069512  0.06197245  0.00000321       0.009
  -0.04548241  0.06201058  0.00004153       0.009
  -0.03026971  0.06204871  0.00007985       0.009
  -0.01505700  0.06208683  0.00011817       0.009
   0.00019463  0.07765620  0.00019561       0.009
   0.01540734  0.07769433  0.00023392       0.009
   0.03062004  0.07773246  0.00027224       0.009
   0.04583275  0.07777058  0.00031056       0.009
   0.06104545  0.07780871  0.00034888       0.009
   0.07625816  0.07784684  0.00038720       0.009
   0.09147086  0.07788497  0.00042552       0.009
   0.10668357  0.07792309  0.00046384       0.009
  -0.10629431  0.07738931 -0.00007263       0.009
  -0.09108161  0.07742744 -0.00003431       0.009
  -0.07586890  0.07746556  0.00000401       0.009
  -0.06065619  0.07750369  0.00004233       0.009
  -0.04544349  0.07754182  0.00008065       0.009
  -0.03023078  0.07757995  0.00011897       0.009
  -0.01501808  0.07761807  0.00015729       0.009
   0.00023356  0.09318744  0.00023473       0.009
   0.01544626  0.09322557  0.00027304       0.009
   0.03065897  0.09326370  0.00031136       0.009
   0.04587167  0.09330182  0.00034968       0.009
   0.06108438  0.09333995  0.00038800       0.009
   0.07629708  0.09337808  0.00042632       0.009
   0.09150979  0.09341621  0.00046464       0.009
   0.10672250  0.09345433  0.00050296       0.009
  -0.10625539  0.09292055 -0.00003350       0.009
  -0.09104268  0.09295868  0.00000481       0.009
  -0.07582997  0.09299680  0.00004313       0.009
  -0.06061727  0.09303493  0.00008145       0.009
  -0.04540456  0.09307306  0.00011977       0.009
  -0.03019186  0.09311119  0.00015809       0.009
  -0.01497915  0.09314931  0.00019641       0.009
   0.00027248  0.10871868  0.00027385       0.009
   0.01548519  0.10875681  0.00031217       0.009
   0.03069789  0.10879494  0.00035048       0.009
   0.04591060  0.10883306  0.00038880       0.009
   0.06112330  0.10887119  0.00042712       0.009
   0.07633601  0.10890932  0.00046544       0.009
   0.09154872  0.10894745  0.00050376       0.009
   0.10676142  0.10898557  0.00054208       0.009
  -0.10621646  0.10845179  0.00000562       0.009
  -0.09100375  0.10848992  0.00004394       0.009
  -0.07579105  0.10852804  0.00008225       0.009
  -0.06057834  0.10856617  0.00012057       0.009
  -0.04536564  0.10860430  0.00015889       0.009
  -0.03015293  0.10864243  0.00019721       0.009
  -0.01494022  0.10868055  0.00023553       0.009
 
 k-points in reciprocal lattice and weights: KMesh Grid                              
   0.00000000  0.00000000  0.00000000       0.004
   0.06666667 -0.00000000  0.00000000       0.009
   0.13333333 -0.00000000  0.00000000       0.009
   0.20000000 -0.00000000  0.00000000       0.009
   0.26666667 -0.00000000  0.00000000       0.009
   0.33333333 -0.00000000 -0.00000000       0.009
   0.40000000 -0.00000000  0.00000000       0.009
   0.46666667 -0.00000000 -0.00000000       0.009
  -0.00000000  0.06666667 -0.00000000       0.009
   0.06666667  0.06666667 -0.00000000       0.009
   0.13333333  0.06666667 -0.00000000       0.009
   0.20000000  0.06666667  0.00000000       0.009
   0.26666667  0.06666667  0.00000000       0.009
   0.33333333  0.06666667  0.00000000       0.009
   0.40000000  0.06666667  0.00000000       0.009
   0.46666667  0.06666667 -0.00000000       0.009
  -0.46666667  0.06666667 -0.00000000       0.009
  -0.40000000  0.06666667  0.00000000       0.009
  -0.33333333  0.06666667  0.00000000       0.009
  -0.26666667  0.06666667  0.00000000       0.009
  -0.20000000  0.06666667 -0.00000000       0.009
  -0.13333333  0.06666667 -0.00000000       0.009
  -0.06666667  0.06666667 -0.00000000       0.009
  -0.00000000  0.13333333 -0.00000000       0.009
   0.06666667  0.13333333 -0.00000000       0.009
   0.13333333  0.13333333 -0.00000000       0.009
   0.20000000  0.13333333 -0.00000000       0.009
   0.26666667  0.13333333 -0.00000000       0.009
   0.33333333  0.13333333  0.00000000       0.009
   0.40000000  0.13333333  0.00000000       0.009
   0.46666667  0.13333333 -0.00000000       0.009
  -0.46666667  0.13333333  0.00000000       0.009
  -0.40000000  0.13333333 -0.00000000       0.009
  -0.33333333  0.13333333 -0.00000000       0.009
  -0.26666667  0.13333333 -0.00000000       0.009
  -0.20000000  0.13333333 -0.00000000       0.009
  -0.13333333  0.13333333 -0.00000000       0.009
  -0.06666667  0.13333333 -0.00000000       0.009
  -0.00000000  0.20000000 -0.00000000       0.009
   0.06666667  0.20000000 -0.00000000       0.009
   0.13333333  0.20000000 -0.00000000       0.009
   0.20000000  0.20000000  0.00000000       0.009
   0.26666667  0.20000000 -0.00000000       0.009
   0.33333333  0.20000000  0.00000000       0.009
   0.40000000  0.20000000  0.00000000       0.009
   0.46666667  0.20000000 -0.00000000       0.009
  -0.46666667  0.20000000 -0.00000000       0.009
  -0.40000000  0.20000000  0.00000000       0.009
  -0.33333333  0.20000000  0.00000000       0.009
  -0.26666667  0.20000000 -0.00000000       0.009
  -0.20000000  0.20000000 -0.00000000       0.009
  -0.13333333  0.20000000 -0.00000000       0.009
  -0.06666667  0.20000000 -0.00000000       0.009
  -0.00000000  0.26666667 -0.00000000       0.009
   0.06666667  0.26666667 -0.00000000       0.009
   0.13333333  0.26666667 -0.00000000       0.009
   0.20000000  0.26666667 -0.00000000       0.009
   0.26666667  0.26666667 -0.00000000       0.009
   0.33333333  0.26666667 -0.00000000       0.009
   0.40000000  0.26666667 -0.00000000       0.009
   0.46666667  0.26666667 -0.00000000       0.009
  -0.46666667  0.26666667 -0.00000000       0.009
  -0.40000000  0.26666667 -0.00000000       0.009
  -0.33333333  0.26666667 -0.00000000       0.009
  -0.26666667  0.26666667 -0.00000000       0.009
  -0.20000000  0.26666667 -0.00000000       0.009
  -0.13333333  0.26666667 -0.00000000       0.009
  -0.06666667  0.26666667 -0.00000000       0.009
  -0.00000000  0.33333333 -0.00000000       0.009
   0.06666667  0.33333333 -0.00000000       0.009
   0.13333333  0.33333333  0.00000000       0.009
   0.20000000  0.33333333 -0.00000000       0.009
   0.26666667  0.33333333 -0.00000000       0.009
   0.33333333  0.33333333 -0.00000000       0.009
   0.40000000  0.33333333  0.00000000       0.009
   0.46666667  0.33333333 -0.00000000       0.009
  -0.46666667  0.33333333  0.00000000       0.009
  -0.40000000  0.33333333 -0.00000000       0.009
  -0.33333333  0.33333333 -0.00000000       0.009
  -0.26666667  0.33333333 -0.00000000       0.009
  -0.20000000  0.33333333 -0.00000000       0.009
  -0.13333333  0.33333333 -0.00000000       0.009
  -0.06666667  0.33333333 -0.00000000       0.009
  -0.00000000  0.40000000 -0.00000000       0.009
   0.06666667  0.40000000 -0.00000000       0.009
   0.13333333  0.40000000  0.00000000       0.009
   0.20000000  0.40000000 -0.00000000       0.009
   0.26666667  0.40000000 -0.00000000       0.009
   0.33333333  0.40000000 -0.00000000       0.009
   0.40000000  0.40000000  0.00000000       0.009
   0.46666667  0.40000000 -0.00000000       0.009
  -0.46666667  0.40000000 -0.00000000       0.009
  -0.40000000  0.40000000 -0.00000000       0.009
  -0.33333333  0.40000000 -0.00000000       0.009
  -0.26666667  0.40000000 -0.00000000       0.009
  -0.20000000  0.40000000 -0.00000000       0.009
  -0.13333333  0.40000000 -0.00000000       0.009
  -0.06666667  0.40000000 -0.00000000       0.009
  -0.00000000  0.46666667 -0.00000000       0.009
   0.06666667  0.46666667  0.00000000       0.009
   0.13333333  0.46666667 -0.00000000       0.009
   0.20000000  0.46666667 -0.00000000       0.009
   0.26666667  0.46666667 -0.00000000       0.009
   0.33333333  0.46666667  0.00000000       0.009
   0.40000000  0.46666667 -0.00000000       0.009
   0.46666667  0.46666667 -0.00000000       0.009
  -0.46666667  0.46666667 -0.00000000       0.009
  -0.40000000  0.46666667 -0.00000000       0.009
  -0.33333333  0.46666667 -0.00000000       0.009
  -0.26666667  0.46666667 -0.00000000       0.009
  -0.20000000  0.46666667 -0.00000000       0.009
  -0.13333333  0.46666667 -0.00000000       0.009
  -0.06666667  0.46666667 -0.00000000       0.009
 
 position of ions in fractional coordinates (direct lattice) 
   0.58124336  0.75000000  0.56874314
   0.08124336  0.25000000  0.43125686
   0.03286064  0.25000000  0.56707387
   0.53286061  0.75000000  0.43292613
 
 position of ions in cartesian coordinates  (Angst):
   2.51073021  3.18455320 11.30357208
   0.33179174  1.05066653  8.57843859
   0.11297057  1.04440575 11.28172713
   2.30549062  3.19187412  8.60134370
 


--------------------------------------------------------------------------------------------------------


 k-point  1 :   0.0000 0.0000 0.0000  plane waves:   12567
 k-point  2 :   0.0667-0.0000 0.0000  plane waves:   12530
 k-point  3 :   0.1333-0.0000 0.0000  plane waves:   12507
 k-point  4 :   0.2000-0.0000 0.0000  plane waves:   12488
 k-point  5 :   0.2667-0.0000 0.0000  plane waves:   12481
 k-point  6 :   0.3333-0.0000-0.0000  plane waves:   12526
 k-point  7 :   0.4000-0.0000 0.0000  plane waves:   12533
 k-point  8 :   0.4667-0.0000-0.0000  plane waves:   12525
 k-point  9 :  -0.0000 0.0667-0.0000  plane waves:   12539
 k-point 10 :   0.0667 0.0667-0.0000  plane waves:   12539
 k-point 11 :   0.1333 0.0667-0.0000  plane waves:   12517
 k-point 12 :   0.2000 0.0667 0.0000  plane waves:   12495
 k-point 13 :   0.2667 0.0667 0.0000  plane waves:   12498
 k-point 14 :   0.3333 0.0667 0.0000  plane waves:   12514
 k-point 15 :   0.4000 0.0667 0.0000  plane waves:   12521
 k-point 16 :   0.4667 0.0667-0.0000  plane waves:   12524
 k-point 17 :  -0.4667 0.0667-0.0000  plane waves:   12528
 k-point 18 :  -0.4000 0.0667 0.0000  plane waves:   12521
 k-point 19 :  -0.3333 0.0667 0.0000  plane waves:   12510
 k-point 20 :  -0.2667 0.0667 0.0000  plane waves:   12492
 k-point 21 :  -0.2000 0.0667-0.0000  plane waves:   12477
 k-point 22 :  -0.1333 0.0667-0.0000  plane waves:   12504
 k-point 23 :  -0.0667 0.0667-0.0000  plane waves:   12518
 k-point 24 :  -0.0000 0.1333-0.0000  plane waves:   12529
 k-point 25 :   0.0667 0.1333-0.0000  plane waves:   12526
 k-point 26 :   0.1333 0.1333-0.0000  plane waves:   12510
 k-point 27 :   0.2000 0.1333-0.0000  plane waves:   12505
 k-point 28 :   0.2667 0.1333-0.0000  plane waves:   12497
 k-point 29 :   0.3333 0.1333 0.0000  plane waves:   12514
 k-point 30 :   0.4000 0.1333 0.0000  plane waves:   12517
 k-point 31 :   0.4667 0.1333-0.0000  plane waves:   12503
 k-point 32 :  -0.4667 0.1333 0.0000  plane waves:   12505
 k-point 33 :  -0.4000 0.1333-0.0000  plane waves:   12499
 k-point 34 :  -0.3333 0.1333-0.0000  plane waves:   12503
 k-point 35 :  -0.2667 0.1333-0.0000  plane waves:   12484
 k-point 36 :  -0.2000 0.1333-0.0000  plane waves:   12486
 k-point 37 :  -0.1333 0.1333-0.0000  plane waves:   12507
 k-point 38 :  -0.0667 0.1333-0.0000  plane waves:   12521
 k-point 39 :  -0.0000 0.2000-0.0000  plane waves:   12512
 k-point 40 :   0.0667 0.2000-0.0000  plane waves:   12513
 k-point 41 :   0.1333 0.2000-0.0000  plane waves:   12514
 k-point 42 :   0.2000 0.2000 0.0000  plane waves:   12507
 k-point 43 :   0.2667 0.2000-0.0000  plane waves:   12498
 k-point 44 :   0.3333 0.2000 0.0000  plane waves:   12499
 k-point 45 :   0.4000 0.2000 0.0000  plane waves:   12500
 k-point 46 :   0.4667 0.2000-0.0000  plane waves:   12514
 k-point 47 :  -0.4667 0.2000-0.0000  plane waves:   12507
 k-point 48 :  -0.4000 0.2000 0.0000  plane waves:   12498
 k-point 49 :  -0.3333 0.2000 0.0000  plane waves:   12488
 k-point 50 :  -0.2667 0.2000-0.0000  plane waves:   12482
 k-point 51 :  -0.2000 0.2000-0.0000  plane waves:   12496
 k-point 52 :  -0.1333 0.2000-0.0000  plane waves:   12502
 k-point 53 :  -0.0667 0.2000-0.0000  plane waves:   12505
 k-point 54 :  -0.0000 0.2667-0.0000  plane waves:   12492
 k-point 55 :   0.0667 0.2667-0.0000  plane waves:   12500
 k-point 56 :   0.1333 0.2667-0.0000  plane waves:   12505
 k-point 57 :   0.2000 0.2667-0.0000  plane waves:   12494
 k-point 58 :   0.2667 0.2667-0.0000  plane waves:   12492
 k-point 59 :   0.3333 0.2667-0.0000  plane waves:   12500
 k-point 60 :   0.4000 0.2667-0.0000  plane waves:   12500
 k-point 61 :   0.4667 0.2667-0.0000  plane waves:   12496
 k-point 62 :  -0.4667 0.2667-0.0000  plane waves:   12503
 k-point 63 :  -0.4000 0.2667-0.0000  plane waves:   12484
 k-point 64 :  -0.3333 0.2667-0.0000  plane waves:   12483
 k-point 65 :  -0.2667 0.2667-0.0000  plane waves:   12492
 k-point 66 :  -0.2000 0.2667-0.0000  plane waves:   12501
 k-point 67 :  -0.1333 0.2667-0.0000  plane waves:   12499
 k-point 68 :  -0.0667 0.2667-0.0000  plane waves:   12495
 k-point 69 :  -0.0000 0.3333-0.0000  plane waves:   12472
 k-point 70 :   0.0667 0.3333-0.0000  plane waves:   12472
 k-point 71 :   0.1333 0.3333 0.0000  plane waves:   12486
 k-point 72 :   0.2000 0.3333-0.0000  plane waves:   12491
 k-point 73 :   0.2667 0.3333-0.0000  plane waves:   12479
 k-point 74 :   0.3333 0.3333-0.0000  plane waves:   12479
 k-point 75 :   0.4000 0.3333 0.0000  plane waves:   12486
 k-point 76 :   0.4667 0.3333-0.0000  plane waves:   12494
 k-point 77 :  -0.4667 0.3333 0.0000  plane waves:   12488
 k-point 78 :  -0.4000 0.3333-0.0000  plane waves:   12485
 k-point 79 :  -0.3333 0.3333-0.0000  plane waves:   12481
 k-point 80 :  -0.2667 0.3333-0.0000  plane waves:   12474
 k-point 81 :  -0.2000 0.3333-0.0000  plane waves:   12480
 k-point 82 :  -0.1333 0.3333-0.0000  plane waves:   12481
 k-point 83 :  -0.0667 0.3333-0.0000  plane waves:   12473
 k-point 84 :  -0.0000 0.4000-0.0000  plane waves:   12453
 k-point 85 :   0.0667 0.4000-0.0000  plane waves:   12468
 k-point 86 :   0.1333 0.4000 0.0000  plane waves:   12469
 k-point 87 :   0.2000 0.4000-0.0000  plane waves:   12471
 k-point 88 :   0.2667 0.4000-0.0000  plane waves:   12472
 k-point 89 :   0.3333 0.4000-0.0000  plane waves:   12476
 k-point 90 :   0.4000 0.4000 0.0000  plane waves:   12462
 k-point 91 :   0.4667 0.4000-0.0000  plane waves:   12486
 k-point 92 :  -0.4667 0.4000-0.0000  plane waves:   12478
 k-point 93 :  -0.4000 0.4000-0.0000  plane waves:   12486
 k-point 94 :  -0.3333 0.4000-0.0000  plane waves:   12472
 k-point 95 :  -0.2667 0.4000-0.0000  plane waves:   12473
 k-point 96 :  -0.2000 0.4000-0.0000  plane waves:   12459
 k-point 97 :  -0.1333 0.4000-0.0000  plane waves:   12469
 k-point 98 :  -0.0667 0.4000-0.0000  plane waves:   12469
 k-point 99 :  -0.0000 0.4667-0.0000  plane waves:   12463
 k-point ** :   0.0667 0.4667 0.0000  plane waves:   12472
 k-point ** :   0.1333 0.4667-0.0000  plane waves:   12468
 k-point ** :   0.2000 0.4667-0.0000  plane waves:   12460
 k-point ** :   0.2667 0.4667-0.0000  plane waves:   12453
 k-point ** :   0.3333 0.4667 0.0000  plane waves:   12462
 k-point ** :   0.4000 0.4667-0.0000  plane waves:   12470
 k-point ** :   0.4667 0.4667-0.0000  plane waves:   12478
 k-point ** :  -0.4667 0.4667-0.0000  plane waves:   12483
 k-point ** :  -0.4000 0.4667-0.0000  plane waves:   12478
 k-point ** :  -0.3333 0.4667-0.0000  plane waves:   12471
 k-point ** :  -0.2667 0.4667-0.0000  plane waves:   12456
 k-point ** :  -0.2000 0.4667-0.0000  plane waves:   12464
 k-point ** :  -0.1333 0.4667-0.0000  plane waves:   12470
 k-point ** :  -0.0667 0.4667-0.0000  plane waves:   12473

 maximum and minimum number of plane-waves per node :       542      496

 maximum number of plane-waves:     12567
 maximum index in each direction: 
   IXMAX=    9   IYMAX=    8   IZMAX=   39
   IXMIN=   -9   IYMIN=   -9   IZMIN=  -39


 parallel 3D FFT for wavefunctions:
    minimum data exchange during FFTs selected (reduces bandwidth)
 parallel 3D FFT for charge:
    minimum data exchange during FFTs selected (reduces bandwidth)


 total amount of memory used by VASP MPI-rank0    62976. kBytes
=======================================================================

   base      :      30000. kBytes
   nonl-proj :      12349. kBytes
   fftplans  :       2678. kBytes
   grid      :       4349. kBytes
   one-center:          8. kBytes
   wavefun   :      13592. kBytes
 
     INWAV:  cpu time    0.0000: real time    0.0000
 Broyden mixing: mesh for mixing (old mesh)
   NGX = 17   NGY = 17   NGZ = 79
  (NGX  = 72   NGY  = 72   NGZ  =320)
  gives a total of  22831 points

 initial charge density was supplied:
 charge density of overlapping atoms calculated
 number of electron      20.0000000 magnetization 
 keeping initial charge density in first step


--------------------------------------------------------------------------------------------------------


 Maximum index for augmentation-charges         2237 (set IRDMAX)


--------------------------------------------------------------------------------------------------------


 First call to EWALD:  gamma=   0.246
 Maximum number of real-space cells 4x 4x 1
 Maximum number of reciprocal cells 2x 2x 7

    FEWALD:  cpu time    0.0011: real time    0.0011


--------------------------------------- Iteration      1(   1)  ---------------------------------------


    POTLOK:  cpu time    0.0426: real time    0.1405
    SETDIJ:  cpu time    0.0050: real time    0.0053
     EDDAV:  cpu time    2.2787: real time    2.2827
       DOS:  cpu time    0.0044: real time    0.0045
    --------------------------------------------
      LOOP:  cpu time    2.3306: real time    2.4331

 eigenvalue-minimisations  :  3164
 total energy-change (2. order) : 0.1443064E+03  (-0.6284599E+03)
 number of electron      20.0000000 magnetization 
 augmentation part       20.0000000 magnetization 

 Free energy of the ion-electron system (eV)
  ---------------------------------------------------
  alpha Z        PSCENC =         9.55215743
  Ewald energy   TEWEN  =      1142.36387545
  -Hartree energ DENC   =     -1744.37203421
  -exchange      EXHF   =         0.00000000
  -V(xc)+E(xc)   XCENC  =      -238.56560186
  PAW double counting   =       799.43158084     -524.17639913
  entropy T*S    EENTRO =        -0.01230152
  eigenvalues    EBANDS =        -2.34276323
  atomic energy  EATOM  =       702.42789710
  Solvation  Ediel_sol  =         0.00000000
  ---------------------------------------------------
  free energy    TOTEN  =       144.30641087 eV

  energy without entropy =      144.31871239  energy(sigma->0) =      144.31256163


--------------------------------------------------------------------------------------------------------




--------------------------------------- Iteration      1(   2)  ---------------------------------------


     EDDAV:  cpu time    3.2449: real time    3.2458
       DOS:  cpu time    0.0044: real time    0.0044
    --------------------------------------------
      LOOP:  cpu time    3.2493: real time    3.2502

 eigenvalue-minimisations  :  5152
 total energy-change (2. order) :-0.1393467E+03  (-0.1346501E+03)
 number of electron      20.0000000 magnetization 
 augmentation part       20.0000000 magnetization 

 Free energy of the ion-electron system (eV)
  ---------------------------------------------------
  alpha Z        PSCENC =         9.55215743
  Ewald energy   TEWEN  =      1142.36387545
  -Hartree energ DENC   =     -1744.37203421
  -exchange      EXHF   =         0.00000000
  -V(xc)+E(xc)   XCENC  =      -238.56560186
  PAW double counting   =       799.43158084     -524.17639913
  entropy T*S    EENTRO =        -0.00101479
  eigenvalues    EBANDS =      -141.70074141
  atomic energy  EATOM  =       702.42789710
  Solvation  Ediel_sol  =         0.00000000
  ---------------------------------------------------
  free energy    TOTEN  =         4.95971943 eV

  energy without entropy =        4.96073422  energy(sigma->0) =        4.96022682


--------------------------------------------------------------------------------------------------------




--------------------------------------- Iteration      1(   3)  ---------------------------------------


     EDDAV:  cpu time    2.6371: real time    2.6378
       DOS:  cpu time    0.0030: real time    0.0030
    --------------------------------------------
      LOOP:  cpu time    2.6401: real time    2.6408

 eigenvalue-minimisations  :  3950
 total energy-change (2. order) :-0.2090185E+02  (-0.2074616E+02)
 number of electron      20.0000000 magnetization 
 augmentation part       20.0000000 magnetization 

 Free energy of the ion-electron system (eV)
  ---------------------------------------------------
  alpha Z        PSCENC =         9.55215743
  Ewald energy   TEWEN  =      1142.36387545
  -Hartree energ DENC   =     -1744.37203421
  -exchange      EXHF   =         0.00000000
  -V(xc)+E(xc)   XCENC  =      -238.56560186
  PAW double counting   =       799.43158084     -524.17639913
  entropy T*S    EENTRO =        -0.00000000
  eigenvalues    EBANDS =      -162.60361028
  atomic energy  EATOM  =       702.42789710
  Solvation  Ediel_sol  =         0.00000000
  ---------------------------------------------------
  free energy    TOTEN  =       -15.94213466 eV

  energy without entropy =      -15.94213466  energy(sigma->0) =      -15.94213466


--------------------------------------------------------------------------------------------------------




--------------------------------------- Iteration      1(   4)  ---------------------------------------


     EDDAV:  cpu time    2.8533: real time    2.8539
       DOS:  cpu time    0.0029: real time    0.0029
    --------------------------------------------
      LOOP:  cpu time    2.8562: real time    2.8568

 eigenvalue-minimisations  :  4484
 total energy-change (2. order) :-0.8277481E+00  (-0.8254836E+00)
 number of electron      20.0000000 magnetization 
 augmentation part       20.0000000 magnetization 

 Free energy of the ion-electron system (eV)
  ---------------------------------------------------
  alpha Z        PSCENC =         9.55215743
  Ewald energy   TEWEN  =      1142.36387545
  -Hartree energ DENC   =     -1744.37203421
  -exchange      EXHF   =         0.00000000
  -V(xc)+E(xc)   XCENC  =      -238.56560186
  PAW double counting   =       799.43158084     -524.17639913
  entropy T*S    EENTRO =        -0.00000000
  eigenvalues    EBANDS =      -163.43135838
  atomic energy  EATOM  =       702.42789710
  Solvation  Ediel_sol  =         0.00000000
  ---------------------------------------------------
  free energy    TOTEN  =       -16.76988276 eV

  energy without entropy =      -16.76988276  energy(sigma->0) =      -16.76988276


--------------------------------------------------------------------------------------------------------




--------------------------------------- Iteration      1(   5)  ---------------------------------------


     EDDAV:  cpu time    2.6903: real time    2.6909
       DOS:  cpu time    0.0030: real time    0.0030
    CHARGE:  cpu time    0.1910: real time    0.1910
    MIXING:  cpu time    0.0014: real time    0.0016
    --------------------------------------------
      LOOP:  cpu time    2.8857: real time    2.8865

 eigenvalue-minimisations  :  4088
 total energy-change (2. order) :-0.1969632E-01  (-0.1968162E-01)
 number of electron      20.0000000 magnetization 
 augmentation part       -4.5239290 magnetization 

 Broyden mixing:
  rms(total) = 0.45437E+00    rms(broyden)= 0.45437E+00
  rms(prec ) = 0.49459E+00
  weight for this iteration     100.00

 Free energy of the ion-electron system (eV)
  ---------------------------------------------------
  alpha Z        PSCENC =         9.55215743
  Ewald energy   TEWEN  =      1142.36387545
  -Hartree energ DENC   =     -1744.37203421
  -exchange      EXHF   =         0.00000000
  -V(xc)+E(xc)   XCENC  =      -238.56560186
  PAW double counting   =       799.43158084     -524.17639913
  entropy T*S    EENTRO =        -0.00000000
  eigenvalues    EBANDS =      -163.45105469
  atomic energy  EATOM  =       702.42789710
  Solvation  Ediel_sol  =         0.00000000
  ---------------------------------------------------
  free energy    TOTEN  =       -16.78957907 eV

  energy without entropy =      -16.78957907  energy(sigma->0) =      -16.78957907


--------------------------------------------------------------------------------------------------------




--------------------------------------- Iteration      1(   6)  ---------------------------------------


    POTLOK:  cpu time    0.0372: real time    0.0372
    SETDIJ:  cpu time    0.0033: real time    0.0033
     EDDAV:  cpu time    2.5816: real time    2.5822
       DOS:  cpu time    0.0030: real time    0.0030
    CHARGE:  cpu time    0.1832: real time    0.1833
    MIXING:  cpu time    0.0015: real time    0.0015
    --------------------------------------------
      LOOP:  cpu time    2.8099: real time    2.8106

 eigenvalue-minimisations  :  3880
 total energy-change (2. order) : 0.4851562E+00  (-0.1219044E+00)
 number of electron      20.0000000 magnetization 
 augmentation part       -4.4916983 magnetization 

 Broyden mixing:
  rms(total) = 0.27933E+00    rms(broyden)= 0.27933E+00
  rms(prec ) = 0.28852E+00
  weight for this iteration     100.00

 eigenvalues of (default mixing * dielectric matrix)
  average eigenvalue GAMMA=   1.8239
  1.8239

 Free energy of the ion-electron system (eV)
  ---------------------------------------------------
  alpha Z        PSCENC =         9.55215743
  Ewald energy   TEWEN  =      1142.36387545
  -Hartree energ DENC   =     -1752.20031656
  -exchange      EXHF   =         0.00000000
  -V(xc)+E(xc)   XCENC  =      -238.08256097
  PAW double counting   =       925.60455661     -650.53488876
  entropy T*S    EENTRO =        -0.00000000
  eigenvalues    EBANDS =      -155.43514317
  atomic energy  EATOM  =       702.42789710
  Solvation  Ediel_sol  =         0.00000000
  ---------------------------------------------------
  free energy    TOTEN  =       -16.30442287 eV

  energy without entropy =      -16.30442287  energy(sigma->0) =      -16.30442287


--------------------------------------------------------------------------------------------------------




--------------------------------------- Iteration      1(   7)  ---------------------------------------


    POTLOK:  cpu time    0.0366: real time    0.0366
    SETDIJ:  cpu time    0.0033: real time    0.0033
     EDDAV:  cpu time    2.6915: real time    2.6921
       DOS:  cpu time    0.0030: real time    0.0030
    CHARGE:  cpu time    0.1839: real time    0.1839
    MIXING:  cpu time    0.0014: real time    0.0015
    --------------------------------------------
      LOOP:  cpu time    2.9197: real time    2.9205

 eigenvalue-minimisations  :  4136
 total energy-change (2. order) : 0.2782098E-01  (-0.3219445E-01)
 number of electron      20.0000000 magnetization 
 augmentation part       -4.4827894 magnetization 

 Broyden mixing:
  rms(total) = 0.10396E+00    rms(broyden)= 0.10396E+00
  rms(prec ) = 0.10942E+00
  weight for this iteration     100.00

 eigenvalues of (default mixing * dielectric matrix)
  average eigenvalue GAMMA=   1.7314
  1.3791  2.0836

 Free energy of the ion-electron system (eV)
  ---------------------------------------------------
  alpha Z        PSCENC =         9.55215743
  Ewald energy   TEWEN  =      1142.36387545
  -Hartree energ DENC   =     -1757.29030226
  -exchange      EXHF   =         0.00000000
  -V(xc)+E(xc)   XCENC  =      -237.75096880
  PAW double counting   =      1069.98516022     -795.06003391
  entropy T*S    EENTRO =        -0.00000000
  eigenvalues    EBANDS =      -150.50438712
  atomic energy  EATOM  =       702.42789710
  Solvation  Ediel_sol  =         0.00000000
  ---------------------------------------------------
  free energy    TOTEN  =       -16.27660189 eV

  energy without entropy =      -16.27660189  energy(sigma->0) =      -16.27660189


--------------------------------------------------------------------------------------------------------




--------------------------------------- Iteration      1(   8)  ---------------------------------------


    POTLOK:  cpu time    0.0369: real time    0.0370
    SETDIJ:  cpu time    0.0032: real time    0.0032
     EDDAV:  cpu time    2.8539: real time    2.8546
       DOS:  cpu time    0.0030: real time    0.0030
    CHARGE:  cpu time    0.1887: real time    0.1887
    MIXING:  cpu time    0.0015: real time    0.0015
    --------------------------------------------
      LOOP:  cpu time    3.0872: real time    3.0880

 eigenvalue-minimisations  :  4452
 total energy-change (2. order) : 0.9683793E-02  (-0.4044340E-02)
 number of electron      20.0000000 magnetization 
 augmentation part       -4.4871177 magnetization 

 Broyden mixing:
  rms(total) = 0.20722E-01    rms(broyden)= 0.20722E-01
  rms(prec ) = 0.28118E-01
  weight for this iteration     100.00

 eigenvalues of (default mixing * dielectric matrix)
  average eigenvalue GAMMA=   1.7135
  2.5393  1.3007  1.3007

 Free energy of the ion-electron system (eV)
  ---------------------------------------------------
  alpha Z        PSCENC =         9.55215743
  Ewald energy   TEWEN  =      1142.36387545
  -Hartree energ DENC   =     -1758.91320662
  -exchange      EXHF   =         0.00000000
  -V(xc)+E(xc)   XCENC  =      -237.67542006
  PAW double counting   =      1134.96278587     -860.07601138
  entropy T*S    EENTRO =        -0.00000000
  eigenvalues    EBANDS =      -148.90899588
  atomic energy  EATOM  =       702.42789710
  Solvation  Ediel_sol  =         0.00000000
  ---------------------------------------------------
  free energy    TOTEN  =       -16.26691810 eV

  energy without entropy =      -16.26691810  energy(sigma->0) =      -16.26691810


--------------------------------------------------------------------------------------------------------




--------------------------------------- Iteration      1(   9)  ---------------------------------------


    POTLOK:  cpu time    0.0367: real time    0.0368
    SETDIJ:  cpu time    0.0032: real time    0.0032
     EDDAV:  cpu time    2.8030: real time    2.8041
       DOS:  cpu time    0.0030: real time    0.0030
    CHARGE:  cpu time    0.1848: real time    0.1848
    MIXING:  cpu time    0.0014: real time    0.0014
    --------------------------------------------
      LOOP:  cpu time    3.0322: real time    3.0334

 eigenvalue-minimisations  :  4328
 total energy-change (2. order) : 0.3744867E-02  (-0.7063808E-03)
 number of electron      20.0000000 magnetization 
 augmentation part       -4.4851340 magnetization 

 Broyden mixing:
  rms(total) = 0.10142E-01    rms(broyden)= 0.10142E-01
  rms(prec ) = 0.15658E-01
  weight for this iteration     100.00

 eigenvalues of (default mixing * dielectric matrix)
  average eigenvalue GAMMA=   1.7258
  2.2562  2.2562  1.1954  1.1954

 Free energy of the ion-electron system (eV)
  ---------------------------------------------------
  alpha Z        PSCENC =         9.55215743
  Ewald energy   TEWEN  =      1142.36387545
  -Hartree energ DENC   =     -1760.91235996
  -exchange      EXHF   =         0.00000000
  -V(xc)+E(xc)   XCENC  =      -237.60019940
  PAW double counting   =      1153.89320357     -879.01930416
  entropy T*S    EENTRO =        -0.00000000
  eigenvalues    EBANDS =      -146.96844326
  atomic energy  EATOM  =       702.42789710
  Solvation  Ediel_sol  =         0.00000000
  ---------------------------------------------------
  free energy    TOTEN  =       -16.26317323 eV

  energy without entropy =      -16.26317323  energy(sigma->0) =      -16.26317323


--------------------------------------------------------------------------------------------------------




--------------------------------------- Iteration      1(  10)  ---------------------------------------


    POTLOK:  cpu time    0.0367: real time    0.0367
    SETDIJ:  cpu time    0.0033: real time    0.0033
     EDDAV:  cpu time    2.7520: real time    2.7527
       DOS:  cpu time    0.0030: real time    0.0030
    CHARGE:  cpu time    0.1839: real time    0.1840
    MIXING:  cpu time    0.0015: real time    0.0015
    --------------------------------------------
      LOOP:  cpu time    2.9805: real time    2.9812

 eigenvalue-minimisations  :  4298
 total energy-change (2. order) : 0.1285231E-02  (-0.1352685E-03)
 number of electron      20.0000000 magnetization 
 augmentation part       -4.4839139 magnetization 

 Broyden mixing:
  rms(total) = 0.54749E-02    rms(broyden)= 0.54749E-02
  rms(prec ) = 0.94488E-02
  weight for this iteration     100.00

 eigenvalues of (default mixing * dielectric matrix)
  average eigenvalue GAMMA=   1.8696
  3.3575  2.6016  1.2411  1.2411  0.9064

 Free energy of the ion-electron system (eV)
  ---------------------------------------------------
  alpha Z        PSCENC =         9.55215743
  Ewald energy   TEWEN  =      1142.36387545
  -Hartree energ DENC   =     -1762.20214419
  -exchange      EXHF   =         0.00000000
  -V(xc)+E(xc)   XCENC  =      -237.59031698
  PAW double counting   =      1142.48761643     -867.60246698
  entropy T*S    EENTRO =        -0.00000000
  eigenvalues    EBANDS =      -145.69850625
  atomic energy  EATOM  =       702.42789710
  Solvation  Ediel_sol  =         0.00000000
  ---------------------------------------------------
  free energy    TOTEN  =       -16.26188800 eV

  energy without entropy =      -16.26188800  energy(sigma->0) =      -16.26188800


--------------------------------------------------------------------------------------------------------




--------------------------------------- Iteration      1(  11)  ---------------------------------------


    POTLOK:  cpu time    0.0370: real time    0.0370
    SETDIJ:  cpu time    0.0032: real time    0.0032
     EDDAV:  cpu time    2.7937: real time    2.7944
       DOS:  cpu time    0.0031: real time    0.0031
    CHARGE:  cpu time    0.1826: real time    0.1827
    MIXING:  cpu time    0.0016: real time    0.0016
    --------------------------------------------
      LOOP:  cpu time    3.0212: real time    3.0219

 eigenvalue-minimisations  :  4322
 total energy-change (2. order) : 0.6895635E-03  (-0.1192171E-03)
 number of electron      20.0000000 magnetization 
 augmentation part       -4.4825500 magnetization 

 Broyden mixing:
  rms(total) = 0.33087E-02    rms(broyden)= 0.33087E-02
  rms(prec ) = 0.50042E-02
  weight for this iteration     100.00

 eigenvalues of (default mixing * dielectric matrix)
  average eigenvalue GAMMA=   1.8496
  3.4090  2.2098  2.2098  1.1936  1.1936  0.8818

 Free energy of the ion-electron system (eV)
  ---------------------------------------------------
  alpha Z        PSCENC =         9.55215743
  Ewald energy   TEWEN  =      1142.36387545
  -Hartree energ DENC   =     -1763.75655989
  -exchange      EXHF   =         0.00000000
  -V(xc)+E(xc)   XCENC  =      -237.55843652
  PAW double counting   =      1144.63665399     -869.75123334
  entropy T*S    EENTRO =        -0.00000000
  eigenvalues    EBANDS =      -144.17555266
  atomic energy  EATOM  =       702.42789710
  Solvation  Ediel_sol  =         0.00000000
  ---------------------------------------------------
  free energy    TOTEN  =       -16.26119843 eV

  energy without entropy =      -16.26119843  energy(sigma->0) =      -16.26119843


--------------------------------------------------------------------------------------------------------




--------------------------------------- Iteration      1(  12)  ---------------------------------------


    POTLOK:  cpu time    0.0375: real time    0.0375
    SETDIJ:  cpu time    0.0032: real time    0.0032
     EDDAV:  cpu time    2.4462: real time    2.4468
       DOS:  cpu time    0.0031: real time    0.0030
    CHARGE:  cpu time    0.1832: real time    0.1833
    MIXING:  cpu time    0.0016: real time    0.0016
    --------------------------------------------
      LOOP:  cpu time    2.6747: real time    2.6753

 eigenvalue-minimisations  :  3586
 total energy-change (2. order) :-0.8126155E-03  (-0.3261985E-04)
 number of electron      20.0000000 magnetization 
 augmentation part       -4.4818862 magnetization 

 Broyden mixing:
  rms(total) = 0.19311E-02    rms(broyden)= 0.19311E-02
  rms(prec ) = 0.28910E-02
  weight for this iteration     100.00

 eigenvalues of (default mixing * dielectric matrix)
  average eigenvalue GAMMA=   2.0632
  4.5693  3.0801  2.5042  1.2086  1.2086  1.0329  0.8386

 Free energy of the ion-electron system (eV)
  ---------------------------------------------------
  alpha Z        PSCENC =         9.55215743
  Ewald energy   TEWEN  =      1142.36387545
  -Hartree energ DENC   =     -1764.39305894
  -exchange      EXHF   =         0.00000000
  -V(xc)+E(xc)   XCENC  =      -237.54862539
  PAW double counting   =      1146.50941162     -871.62686503
  entropy T*S    EENTRO =        -0.00000000
  eigenvalues    EBANDS =      -143.54680329
  atomic energy  EATOM  =       702.42789710
  Solvation  Ediel_sol  =         0.00000000
  ---------------------------------------------------
  free energy    TOTEN  =       -16.26201105 eV

  energy without entropy =      -16.26201105  energy(sigma->0) =      -16.26201105


--------------------------------------------------------------------------------------------------------




--------------------------------------- Iteration      1(  13)  ---------------------------------------


    POTLOK:  cpu time    0.0377: real time    0.0377
    SETDIJ:  cpu time    0.0032: real time    0.0032
     EDDAV:  cpu time    2.5348: real time    2.5355
       DOS:  cpu time    0.0031: real time    0.0031
    CHARGE:  cpu time    0.1826: real time    0.1827
    MIXING:  cpu time    0.0017: real time    0.0017
    --------------------------------------------
      LOOP:  cpu time    2.7631: real time    2.7638

 eigenvalue-minimisations  :  3716
 total energy-change (2. order) :-0.4126465E-03  (-0.8233870E-05)
 number of electron      20.0000000 magnetization 
 augmentation part       -4.4817132 magnetization 

 Broyden mixing:
  rms(total) = 0.12059E-02    rms(broyden)= 0.12059E-02
  rms(prec ) = 0.15748E-02
  weight for this iteration     100.00

 eigenvalues of (default mixing * dielectric matrix)
  average eigenvalue GAMMA=   2.2153
  5.5440  3.2760  2.4666  2.1477  1.1591  1.1591  1.0574  0.9128

 Free energy of the ion-electron system (eV)
  ---------------------------------------------------
  alpha Z        PSCENC =         9.55215743
  Ewald energy   TEWEN  =      1142.36387545
  -Hartree energ DENC   =     -1764.78631040
  -exchange      EXHF   =         0.00000000
  -V(xc)+E(xc)   XCENC  =      -237.54772901
  PAW double counting   =      1145.33684038     -870.45301782
  entropy T*S    EENTRO =        -0.00000000
  eigenvalues    EBANDS =      -143.15613683
  atomic energy  EATOM  =       702.42789710
  Solvation  Ediel_sol  =         0.00000000
  ---------------------------------------------------
  free energy    TOTEN  =       -16.26242370 eV

  energy without entropy =      -16.26242370  energy(sigma->0) =      -16.26242370


--------------------------------------------------------------------------------------------------------




--------------------------------------- Iteration      1(  14)  ---------------------------------------


    POTLOK:  cpu time    0.0386: real time    0.0386
    SETDIJ:  cpu time    0.0032: real time    0.0032
     EDDAV:  cpu time    2.6157: real time    2.6164
       DOS:  cpu time    0.0030: real time    0.0030
    CHARGE:  cpu time    0.1829: real time    0.1829
    MIXING:  cpu time    0.0017: real time    0.0017
    --------------------------------------------
      LOOP:  cpu time    2.8450: real time    2.8458

 eigenvalue-minimisations  :  3896
 total energy-change (2. order) :-0.2483257E-03  (-0.4151104E-05)
 number of electron      20.0000000 magnetization 
 augmentation part       -4.4816894 magnetization 

 Broyden mixing:
  rms(total) = 0.38701E-03    rms(broyden)= 0.38701E-03
  rms(prec ) = 0.62486E-03
  weight for this iteration     100.00

 eigenvalues of (default mixing * dielectric matrix)
  average eigenvalue GAMMA=   2.2368
  6.7013  3.0639  2.5188  2.5188  1.1866  1.1866  1.0575  0.9489  0.9489

 Free energy of the ion-electron system (eV)
  ---------------------------------------------------
  alpha Z        PSCENC =         9.55215743
  Ewald energy   TEWEN  =      1142.36387545
  -Hartree energ DENC   =     -1764.99170963
  -exchange      EXHF   =         0.00000000
  -V(xc)+E(xc)   XCENC  =      -237.54755904
  PAW double counting   =      1145.60390693     -870.71948735
  entropy T*S    EENTRO =        -0.00000000
  eigenvalues    EBANDS =      -142.95175292
  atomic energy  EATOM  =       702.42789710
  Solvation  Ediel_sol  =         0.00000000
  ---------------------------------------------------
  free energy    TOTEN  =       -16.26267202 eV

  energy without entropy =      -16.26267202  energy(sigma->0) =      -16.26267202


--------------------------------------------------------------------------------------------------------




--------------------------------------- Iteration      1(  15)  ---------------------------------------


    POTLOK:  cpu time    0.0382: real time    0.0382
    SETDIJ:  cpu time    0.0032: real time    0.0032
     EDDAV:  cpu time    2.5674: real time    2.5681
       DOS:  cpu time    0.0030: real time    0.0030
    CHARGE:  cpu time    0.1853: real time    0.1853
    MIXING:  cpu time    0.0018: real time    0.0018
    --------------------------------------------
      LOOP:  cpu time    2.7989: real time    2.7997

 eigenvalue-minimisations  :  3826
 total energy-change (2. order) :-0.6058046E-04  (-0.2059674E-06)
 number of electron      20.0000000 magnetization 
 augmentation part       -4.4817077 magnetization 

 Broyden mixing:
  rms(total) = 0.34325E-03    rms(broyden)= 0.34325E-03
  rms(prec ) = 0.51868E-03
  weight for this iteration     100.00

 eigenvalues of (default mixing * dielectric matrix)
  average eigenvalue GAMMA=   2.3519
  6.5109  4.2461  2.7082  2.7082  1.9781  1.1425  1.1425  1.2099  0.9364  0.9364

 Free energy of the ion-electron system (eV)
  ---------------------------------------------------
  alpha Z        PSCENC =         9.55215743
  Ewald energy   TEWEN  =      1142.36387545
  -Hartree energ DENC   =     -1765.01169900
  -exchange      EXHF   =         0.00000000
  -V(xc)+E(xc)   XCENC  =      -237.54789508
  PAW double counting   =      1145.45454682     -870.57001293
  entropy T*S    EENTRO =        -0.00000000
  eigenvalues    EBANDS =      -142.93160238
  atomic energy  EATOM  =       702.42789710
  Solvation  Ediel_sol  =         0.00000000
  ---------------------------------------------------
  free energy    TOTEN  =       -16.26273260 eV

  energy without entropy =      -16.26273260  energy(sigma->0) =      -16.26273260


--------------------------------------------------------------------------------------------------------




--------------------------------------- Iteration      1(  16)  ---------------------------------------


    POTLOK:  cpu time    0.0391: real time    0.0391
    SETDIJ:  cpu time    0.0032: real time    0.0032
     EDDAV:  cpu time    2.4288: real time    2.4295
       DOS:  cpu time    0.0030: real time    0.0030
    CHARGE:  cpu time    0.1855: real time    0.1855
    MIXING:  cpu time    0.0018: real time    0.0018
    --------------------------------------------
      LOOP:  cpu time    2.6614: real time    2.6622

 eigenvalue-minimisations  :  3582
 total energy-change (2. order) :-0.4469873E-04  (-0.8307097E-06)
 number of electron      20.0000000 magnetization 
 augmentation part       -4.4817189 magnetization 

 Broyden mixing:
  rms(total) = 0.13019E-03    rms(broyden)= 0.13019E-03
  rms(prec ) = 0.23197E-03
  weight for this iteration     100.00

 eigenvalues of (default mixing * dielectric matrix)
  average eigenvalue GAMMA=   2.2826
  6.7903  4.5092  2.6428  2.6428  2.2710  1.1576  1.1576  1.1955  0.9379  0.9379
  0.8657

 Free energy of the ion-electron system (eV)
  ---------------------------------------------------
  alpha Z        PSCENC =         9.55215743
  Ewald energy   TEWEN  =      1142.36387545
  -Hartree energ DENC   =     -1765.06661139
  -exchange      EXHF   =         0.00000000
  -V(xc)+E(xc)   XCENC  =      -237.54800132
  PAW double counting   =      1145.29009480     -870.40556703
  entropy T*S    EENTRO =        -0.00000000
  eigenvalues    EBANDS =      -142.87662233
  atomic energy  EATOM  =       702.42789710
  Solvation  Ediel_sol  =         0.00000000
  ---------------------------------------------------
  free energy    TOTEN  =       -16.26277730 eV

  energy without entropy =      -16.26277730  energy(sigma->0) =      -16.26277730


--------------------------------------------------------------------------------------------------------




--------------------------------------- Iteration      1(  17)  ---------------------------------------


    POTLOK:  cpu time    0.0372: real time    0.0373
    SETDIJ:  cpu time    0.0031: real time    0.0031
     EDDAV:  cpu time    2.2732: real time    2.2738
       DOS:  cpu time    0.0030: real time    0.0030
    CHARGE:  cpu time    0.1830: real time    0.1831
    MIXING:  cpu time    0.0018: real time    0.0018
    --------------------------------------------
[...]
  band No.  band energies     occupation 
      1     -14.5526      2.00000
      2     -14.2917      2.00000
      3      -8.8126      2.00000
      4      -8.5975      2.00000
      5      -6.0672      2.00000
      6      -5.1149      2.00000
      7      -4.8069      2.00000
      8      -4.0971      2.00000
      9      -3.8788      2.00000
     10      -3.0810      2.00000
     11       0.1282      0.00000
     12       1.0795      0.00000
     13       1.1817      0.00000
     14       1.5886      0.00000

 k-point    96 :      -0.2000    0.4000   -0.0000
  band No.  band energies     occupation 
      1     -14.6211      2.00000
      2     -14.3150      2.00000
      3      -8.9792      2.00000
      4      -8.6993      2.00000
      5      -5.6260      2.00000
      6      -4.8312      2.00000
      7      -4.5418      2.00000
      8      -3.9583      2.00000
      9      -3.5079      2.00000
     10      -2.7191      2.00000
     11      -0.3437      0.00000
     12       0.5724      0.00000
     13       0.7176      0.00000
     14       1.2361      0.00000

 k-point    97 :      -0.1333    0.4000   -0.0000
  band No.  band energies     occupation 
      1     -14.6755      2.00000
      2     -14.3383      2.00000
      3      -9.1087      2.00000
      4      -8.7840      2.00000
      5      -5.1055      2.00000
      6      -4.7640      2.00000
      7      -4.1404      2.00000
      8      -3.9125      2.00000
      9      -2.9403      2.00000
     10      -2.4972      2.00000
     11      -0.6219      0.00000
     12      -0.1562      0.00000
     13       0.4986      0.00000
     14       0.8087      0.00000

 k-point    98 :      -0.0667    0.4000   -0.0000
  band No.  band energies     occupation 
      1     -14.7102      2.00000
      2     -14.3553      2.00000
      3      -9.1905      2.00000
      4      -8.8401      2.00000
      5      -4.7669      2.00000
      6      -4.5694      2.00000
      7      -3.9399      2.00000
      8      -3.7348      2.00000
      9      -2.6555      2.00000
     10      -2.3652      2.00000
     11      -0.7515      0.00000
     12      -0.3836      0.00000
     13       0.2495      0.00000
     14       0.3809      0.00000

 k-point    99 :      -0.0000    0.4667   -0.0000
  band No.  band energies     occupation 
      1     -14.5772      2.00000
      2     -14.4536      2.00000
      3      -9.2043      2.00000
      4      -9.0809      2.00000
      5      -4.5270      2.00000
      6      -4.3084      2.00000
      7      -3.8475      2.00000
      8      -3.6533      2.00000
      9      -2.5529      2.00000
     10      -2.2123      2.00000
     11      -0.8904      0.00000
     12      -0.4533      0.00000
     13      -0.0613      0.00000
     14       0.1372      0.00000

 k-point   100 :       0.0667    0.4667    0.0000
  band No.  band energies     occupation 
      1     -14.5660      2.00000
      2     -14.4467      2.00000
      3      -9.1774      2.00000
      4      -9.0565      2.00000
      5      -4.5377      2.00000
      6      -4.4298      2.00000
      7      -3.9968      2.00000
      8      -3.8576      2.00000
      9      -2.4519      2.00000
     10      -2.3787      2.00000
     11      -0.7962      0.00000
     12      -0.6825      0.00000
     13       0.3002      0.00000
     14       0.5941      0.00000

 k-point   101 :       0.1333    0.4667   -0.0000
  band No.  band energies     occupation 
      1     -14.5359      2.00000
      2     -14.4253      2.00000
      3      -9.0964      2.00000
      4      -8.9832      2.00000
      5      -4.8430      2.00000
      6      -4.6398      2.00000
      7      -4.2359      2.00000
      8      -4.1094      2.00000
      9      -2.8405      2.00000
     10      -2.6124      2.00000
     11      -0.5386      0.00000
     12      -0.3172      0.00000
     13       0.8006      0.00000
     14       0.8979      0.00000

 k-point   102 :       0.2000    0.4667   -0.0000
  band No.  band energies     occupation 
      1     -14.4905      2.00000
      2     -14.3932      2.00000
      3      -8.9653      2.00000
      4      -8.8653      2.00000
      5      -5.3517      2.00000
      6      -5.0127      2.00000
      7      -4.4341      2.00000
      8      -4.1825      2.00000
      9      -3.3446      2.00000
     10      -3.0466      2.00000
     11      -0.0093      0.00000
     12       0.3310      0.00000
     13       1.0254      0.00000
     14       1.2422      0.00000

 k-point   103 :       0.2667    0.4667   -0.0000
  band No.  band energies     occupation 
      1     -14.4360      2.00000
      2     -14.3565      2.00000
      3      -8.7927      2.00000
      4      -8.7110      2.00000
      5      -5.8200      2.00000
      6      -5.4770      2.00000
      7      -4.6337      2.00000
      8      -4.3453      2.00000
      9      -3.6750      2.00000
     10      -3.4272      2.00000
     11       0.5029      0.00000
     12       0.8475      0.00000
     13       1.4325      0.00000
     14       1.6589      0.00000

 k-point   104 :       0.3333    0.4667    0.0000
  band No.  band energies     occupation 
      1     -14.3802      2.00000
      2     -14.3227      2.00000
      3      -8.5958      2.00000
      4      -8.5356      2.00000
      5      -6.1997      2.00000
      6      -5.9038      2.00000
      7      -4.9294      2.00000
      8      -4.6470      2.00000
      9      -3.7794      2.00000
     10      -3.6179      2.00000
     11       0.8448      0.00000
     12       1.1162      0.00000
     13       1.9938      0.00000
     14       2.2331      0.00000

 k-point   105 :       0.4000    0.4667   -0.0000
  band No.  band energies     occupation 
      1     -14.3314      2.00000
      2     -14.2996      2.00000
      3      -8.4084      2.00000
      4      -8.3668      2.00000
      5      -6.4570      2.00000
      6      -6.2633      2.00000
      7      -5.1805      2.00000
      8      -4.9744      2.00000
      9      -3.7729      2.00000
     10      -3.6920      2.00000
     11       1.0757      0.00000
     12       1.2558      0.00000
     13       2.4852      0.00000
     14       2.6770      0.00000

 k-point   106 :       0.4667    0.4667   -0.0000
  band No.  band energies     occupation 
      1     -14.2975      2.00000
      2     -14.2935      2.00000
      3      -8.2865      2.00000
      4      -8.2525      2.00000
      5      -6.5537      2.00000
      6      -6.5188      2.00000
      7      -5.2849      2.00000
      8      -5.2081      2.00000
      9      -3.7357      2.00000
     10      -3.7342      2.00000
     11       1.2246      0.00000
     12       1.3017      0.00000
     13       2.7140      0.00000
     14       2.7951      0.00000

 k-point   107 :      -0.4667    0.4667   -0.0000
  band No.  band energies     occupation 
      1     -14.3079      2.00000
      2     -14.2833      2.00000
      3      -8.2814      2.00000
      4      -8.2532      2.00000
      5      -6.6066      2.00000
      6      -6.4665      2.00000
      7      -5.2828      2.00000
      8      -5.2153      2.00000
      9      -3.7751      2.00000
     10      -3.6952      2.00000
     11       1.2434      0.00000
     12       1.2822      0.00000
     13       2.6940      0.00000
     14       2.8246      0.00000

 k-point   108 :      -0.4000    0.4667   -0.0000
  band No.  band energies     occupation 
      1     -14.3414      2.00000
      2     -14.2899      2.00000
      3      -8.3843      2.00000
      4      -8.3812      2.00000
      5      -6.4945      2.00000
      6      -6.2275      2.00000
      7      -5.1739      2.00000
      8      -4.9922      2.00000
      9      -3.8126      2.00000
     10      -3.6542      2.00000
     11       1.0848      0.00000
     12       1.2455      0.00000
     13       2.4584      0.00000
     14       2.7207      0.00000

 k-point   109 :      -0.3333    0.4667   -0.0000
  band No.  band energies     occupation 
      1     -14.3893      2.00000
      2     -14.3141      2.00000
      3      -8.5777      2.00000
      4      -8.5432      2.00000
      5      -6.2178      2.00000
      6      -5.8901      2.00000
      7      -4.9111      2.00000
      8      -4.6745      2.00000
      9      -3.8181      2.00000
     10      -3.5849      2.00000
     11       0.8421      0.00000
     12       1.1178      0.00000
     13       1.9665      0.00000
     14       2.2675      0.00000

 k-point   110 :      -0.2667    0.4667   -0.0000
  band No.  band energies     occupation 
      1     -14.4438      2.00000
      2     -14.3492      2.00000
      3      -8.7814      2.00000
      4      -8.7128      2.00000
      5      -5.8214      2.00000
      6      -5.4829      2.00000
      7      -4.6076      2.00000
      8      -4.3717      2.00000
      9      -3.7063      2.00000
     10      -3.4105      2.00000
     11       0.4893      0.00000
     12       0.8612      0.00000
     13       1.4150      0.00000
     14       1.6789      0.00000

 k-point   111 :      -0.2000    0.4667   -0.0000
  band No.  band energies     occupation 
      1     -14.4967      2.00000
      2     -14.3876      2.00000
      3      -8.9586      2.00000
      4      -8.8644      2.00000
      5      -5.3402      2.00000
      6      -5.0329      2.00000
      7      -4.4144      2.00000
      8      -4.1973      2.00000
      9      -3.3550      2.00000
     10      -3.0574      2.00000
     11      -0.0267      0.00000
     12       0.3515      0.00000
     13       1.0170      0.00000
     14       1.2496      0.00000

 k-point   112 :      -0.1333    0.4667   -0.0000
  band No.  band energies     occupation 
      1     -14.5401      2.00000
      2     -14.4214      2.00000
      3      -9.0926      2.00000
      4      -8.9818      2.00000
      5      -4.8224      2.00000
      6      -4.6597      2.00000
      7      -4.2310      2.00000
      8      -4.1177      2.00000
      9      -2.8312      2.00000
     10      -2.6457      2.00000
     11      -0.5485      0.00000
     12      -0.3028      0.00000
     13       0.7948      0.00000
     14       0.8946      0.00000

 k-point   113 :      -0.0667    0.4667   -0.0000
  band No.  band energies     occupation 
      1     -14.5682      2.00000
      2     -14.4447      2.00000
      3      -9.1758      2.00000
      4      -9.0555      2.00000
      5      -4.5439      2.00000
      6      -4.4123      2.00000
      7      -3.9984      2.00000
      8      -3.8676      2.00000
      9      -2.4872      2.00000
     10      -2.3590      2.00000
     11      -0.7950      0.00000
     12      -0.6885      0.00000
     13       0.2951      0.00000
     14       0.6060      0.00000


--------------------------------------------------------------------------------------------------------


 soft charge-density along one line, spin component           1
         0         1         2         3         4         5         6         7         8         9
 total charge-density along one line
 
 pseudopotential strength for first ion, spin component:           1
 30.080 -23.432  -0.003  -0.089   0.034  -0.005  -0.141   0.054
-23.432  28.115   0.002   0.051  -0.019   0.003   0.082  -0.031
 -0.003   0.002   6.331  -0.000  -0.000   9.794  -0.000  -0.000
 -0.089   0.051  -0.000   6.328   0.002  -0.000   9.790   0.003
  0.034  -0.019  -0.000   0.002   6.330  -0.000   0.003   9.793
 -0.005   0.003   9.794  -0.000  -0.000  15.222  -0.000  -0.000
 -0.141   0.082  -0.000   9.790   0.003  -0.000  15.216   0.004
  0.054  -0.031  -0.000   0.003   9.793  -0.000   0.004  15.221
 -0.000  -0.000   0.007  -0.000  -0.001   0.011  -0.000  -0.001
 -0.000   0.000  -0.020  -0.001  -0.000  -0.031  -0.001  -0.000
 -0.003   0.004   0.000  -0.023  -0.004   0.001  -0.035  -0.006
  0.003  -0.002  -0.000   0.008  -0.020  -0.000   0.013  -0.031
 -0.000   0.000   0.001  -0.000   0.008   0.001  -0.000   0.013
 total augmentation occupancy for first ion, spin component:           1
  2.025  -0.015   0.008   0.238  -0.087  -0.001  -0.042   0.016  -0.001  -0.000   0.023   0.002  -0.000
 -0.015   0.009  -0.002  -0.073   0.027   0.001   0.019  -0.006   0.000  -0.000  -0.002   0.001  -0.000
  0.008  -0.002   1.508  -0.001  -0.001  -0.406   0.001   0.000   0.123  -0.043   0.006  -0.000  -0.001
  0.238  -0.073  -0.001   1.840   0.001   0.001  -0.486  -0.015   0.000   0.001  -0.267  -0.019  -0.001
 -0.087   0.027  -0.001   0.001   1.492   0.000  -0.015  -0.395  -0.010  -0.000  -0.079  -0.046  -0.006
 -0.001   0.001  -0.406   0.001   0.000   0.118  -0.001  -0.000  -0.033   0.012  -0.002   0.000   0.000
 -0.042   0.019   0.001  -0.486  -0.015  -0.001   0.140   0.007  -0.000  -0.000   0.074   0.005   0.000
  0.016  -0.006   0.000  -0.015  -0.395  -0.000   0.007   0.114   0.003   0.000   0.021   0.012   0.002
 -0.001   0.000   0.123   0.000  -0.010  -0.033  -0.000   0.003   0.076   0.000  -0.000  -0.000  -0.000
 -0.000  -0.000  -0.043   0.001  -0.000   0.012  -0.000   0.000   0.000   0.021  -0.000   0.000   0.000
  0.023  -0.002   0.006  -0.267  -0.079  -0.002   0.074   0.021  -0.000  -0.000   0.078   0.006   0.002
  0.002   0.001  -0.000  -0.019  -0.046   0.000   0.005   0.012  -0.000   0.000   0.006   0.022   0.001
 -0.000  -0.000  -0.001  -0.001  -0.006   0.000   0.000   0.002  -0.000   0.000   0.002   0.001   0.017


------------------------ aborting loop because EDIFF is reached ----------------------------------------


    CHARGE:  cpu time    0.1834: real time    0.1835
    FORLOC:  cpu time    0.0020: real time    0.0020
    FORNL :  cpu time    0.3281: real time    0.3282
    STRESS:  cpu time    0.5972: real time    0.5974
    FORCOR:  cpu time    0.0396: real time    0.0396
    FORHAR:  cpu time    0.0099: real time    0.0099
    MIXING:  cpu time    0.0009: real time    0.0009
    OFIELD:  cpu time    0.0000: real time    0.0000

  FORCE on cell =-STRESS in cart. coord.  units (eV):
  Direction    XX          YY          ZZ          XY          YZ          ZX
  --------------------------------------------------------------------------------------
  Alpha Z     9.55216     9.55216     9.55216
  Ewald    1591.03245  1595.36664 -2048.82394     0.79898    -9.13327    -9.10500
  Hartree  1712.24770  1713.86935 -1665.51774     0.26931    -8.46773    -8.46499
  E(xc)     -77.66441   -77.67774   -78.88792     0.01120    -0.00293    -0.00301
  Local   -3556.05390 -3561.45472  3459.46494    -1.09018    17.59514    17.56882
  n-local   162.51868   162.70041   167.21316    -0.03192     0.01057     0.01264
  augment   -31.87570   -31.82032   -32.80249     0.00360    -0.00227    -0.00184
  Kinetic   190.23911   189.47016   189.80079     0.14310     0.00103    -0.00979
  Fock        0.00000     0.00000     0.00000     0.00000     0.00000     0.00000
  -------------------------------------------------------------------------------------
  Total      -0.00392     0.00594    -0.00104     0.10409     0.00053    -0.00316
  in kB      -0.01679     0.02542    -0.00445     0.44550     0.00227    -0.01354
  external pressure =        0.00 kB  Pullay stress =        0.00 kB


 VOLUME and BASIS-vectors are now :
 -----------------------------------------------------------------------------
  energy-cutoff  :      600.00
  volume of cell :      374.34
      direct lattice vectors                 reciprocal lattice vectors
     4.382356765 -0.010955892 -0.010955892     0.228190587  0.000571913  0.000574780
    -0.010731195  4.292477857 -0.010731195     0.000583889  0.232968601  0.000586815
    -0.050000000 -0.050000000 19.900000000     0.000125945  0.000125945  0.050251889

  length of vectors
     4.382384155  4.292504685 19.900125628     0.228192028  0.232970072  0.050252205


 FORCES acting on ions
    electron-ion (+dipol)            ewald-force                    non-local-force                 convergence-correction
 -----------------------------------------------------------------------------------------------
   0.385E+01 -.677E+00 -.144E+03   -.533E+01 0.804E+00 0.148E+03   0.148E+01 -.127E+00 -.381E+01   0.974E-05 -.172E-03 -.165E-03
   0.457E+01 0.243E-01 0.144E+03   -.606E+01 0.870E-01 -.148E+03   0.149E+01 -.111E+00 0.381E+01   0.167E-04 0.242E-03 -.476E-03
   -.578E+01 -.115E+00 -.206E+03   0.623E+01 0.886E-01 0.208E+03   -.450E+00 0.264E-01 -.204E+01   -.349E-03 0.588E-03 -.377E-03
   -.472E+01 0.946E+00 0.206E+03   0.516E+01 -.980E+00 -.208E+03   -.436E+00 0.354E-01 0.204E+01   -.959E-04 -.185E-02 -.127E-02
 -----------------------------------------------------------------------------------------------
   -.208E+01 0.178E+00 0.832E-02   0.266E-14 -.666E-15 -.284E-13   0.208E+01 -.176E+00 -.593E-02   -.419E-03 -.120E-02 -.229E-02
 
 
 POSITION                                       TOTAL-FORCE (eV/Angst)
 -----------------------------------------------------------------------------------
      2.51786      3.18132     11.31053        -0.000837     -0.000205      0.000171
      0.32392      1.03337      8.57152         0.000748      0.000073     -0.000142
      0.12035      1.06122     11.28822        -0.000254      0.000577     -0.000087
      2.29885      3.19558      8.59482         0.000344     -0.000446      0.000059
 -----------------------------------------------------------------------------------
    total drift:                               -0.000269     -0.000039      0.000099


--------------------------------------------------------------------------------------------------------



  FREE ENERGIE OF THE ION-ELECTRON SYSTEM (eV)
  ---------------------------------------------------
  free  energy   TOTEN  =       -16.26413265 eV

  energy  without entropy=      -16.26413265  energy(sigma->0) =      -16.26413265
 
 d Force = 0.1086534E-05[ 0.243E-06, 0.193E-05]  d Energy = 0.1092423E-05-0.589E-08
 d Force =-0.9486802E-02[-0.950E-02,-0.947E-02]  d Ewald  =-0.9486802E-02-0.318E-09


--------------------------------------------------------------------------------------------------------


    POTLOK:  cpu time    0.0409: real time    0.0409


--------------------------------------------------------------------------------------------------------


 Conjugate gradient step on ions:
 trial-energy change:   -0.000001  1 .order   -0.000001   -0.000002   -0.000000
  (g-gl).g = 0.633E-06      g.g   = 0.590E-06  gl.gl    = 0.935E-06
 g(Force)  = 0.590E-06   g(Stress)= 0.000E+00 ortho     =-0.569E-07
 gamma     =   0.67703
 trial     =   3.50010
 opt step  =   4.00333  (harmonic =   4.00333) maximal distance =0.00046200
 next E    =   -16.264133   (d E  =  -0.00000)


--------------------------------------------------------------------------------------------------------


  
 reached required accuracy - stopping structural energy minimisation
 writing wavefunctions
     LOOP+:  cpu time    9.9692: real time   10.2751
    4ORBIT:  cpu time    0.0000: real time    0.0000

 total amount of memory used by VASP MPI-rank0    62976. kBytes
=======================================================================

   base      :      30000. kBytes
   nonl-proj :      12349. kBytes
   fftplans  :       2678. kBytes
   grid      :       4349. kBytes
   one-center:          8. kBytes
   wavefun   :      13592. kBytes
 
  
  
 General timing and accounting informations for this job:
 ========================================================
  
                  Total CPU time used (sec):      222.250
                            User time (sec):      220.852
                          System time (sec):        1.399
                         Elapsed time (sec):      229.418
  
                   Maximum memory used (kb):      210440.
                   Average memory used (kb):           0.
  
                          Minor page faults:      1296399
                          Major page faults:          136
                 Voluntary context switches:         8623
