 vasp.5.4.4.18Apr17-6-g9f103f2a35 (build Jan 05 2022 20:32:27) complex          
  
 executed on              Shaheen date 2024.03.20  14:06:32
 running on   64 total cores
 distrk:  each k-point on   64 cores,    1 groups
 distr:  one band on NCORES_PER_BAND=  16 cores,    4 groups


--------------------------------------------------------------------------------------------------------


 INCAR:
 POTCAR:    PAW_PBE Mo 08Apr2002                  
 POTCAR:    PAW_PBE Te 08Apr2002                  
 POTCAR:    PAW_PBE Mo 08Apr2002                  
   VRHFIN =Mo: 4p5s4d                                                           
   LEXCH  = PE                                                                  
   EATOM  =   217.5176 eV,   15.9871 Ry                                         
                                                                                
   TITEL  = PAW_PBE Mo 08Apr2002                                                
   LULTRA =        F    use ultrasoft PP ?                                      
   IUNSCR =        1    unscreen: 0-lin 1-nonlin 2-no                           
   RPACOR =    2.200    partial core radius                                     
   POMASS =   95.940; ZVAL   =    6.000    mass and valenz                      
   RCORE  =    2.750    outmost cutoff radius                                   
   RWIGS  =    2.750; RWIGS  =    1.455    wigner-seitz radius (au A)           
   ENMAX  =  224.584; ENMIN  =  168.438 eV                                      
   RCLOC  =    2.111    cutoff for local pot                                    
   LCOR   =        T    correct aug charges                                     
   LPAW   =        T    paw PP                                                  
   EAUG   =  345.278                                                            
   DEXC   =    0.000                                                            
   RMAX   =    2.821    core radius for proj-oper                               
   RAUG   =    1.300    factor for augmentation sphere                          
   RDEP   =    2.815    radius for radial grids                                 
   RDEPT  =    2.211    core radius for aug-charge                              
                                                                                
   Atomic configuration                                                         
   12 entries                                                                   
     n  l   j            E        occ.                                          
     1  0  0.50    -19819.0341   2.0000                                         
     2  0  0.50     -2799.0127   2.0000                                         
     2  1  1.50     -2502.0276   6.0000                                         
     3  0  0.50      -476.4448   2.0000                                         
     3  1  1.50      -379.1496   6.0000                                         
     3  2  2.50      -220.9367  10.0000                                         
     4  0  0.50       -64.3378   2.0000                                         
     4  1  1.50       -38.4773   6.0000                                         
     4  2  2.50        -3.7535   5.0000                                         
     5  0  0.50        -4.0862   1.0000                                         
     5  1  0.50        -2.7701   0.0000                                         
     4  3  2.50        -1.3606   0.0000                                         
   Description                                                                  
     l       E           TYP  RCUT    TYP  RCUT                                 
     2     -3.7534765     23  2.500                                             
     2     -5.1140591     23  2.500                                             
     0     -4.0861560     23  2.600                                             
     0     13.6058260     23  2.600                                             
     1      5.4423304     23  2.750                                             
     1     27.2116520     23  2.750                                             
  local pseudopotential read in
  partial core-charges read in
  partial kinetic energy density read in
  atomic valenz-charges read in
  non local Contribution for L=           2  read in
    real space projection operators read in
  non local Contribution for L=           2  read in
    real space projection operators read in
  non local Contribution for L=           0  read in
    real space projection operators read in
  non local Contribution for L=           0  read in
    real space projection operators read in
  non local Contribution for L=           1  read in
    real space projection operators read in
  non local Contribution for L=           1  read in
    real space projection operators read in
    PAW grid and wavefunctions read in
 
   number of l-projection  operators is LMAX  =           6
   number of lm-projection operators is LMMAX =          18
 
 POTCAR:    PAW_PBE Te 08Apr2002                  
   VRHFIN =Te: s2p4                                                             
   LEXCH  = PE                                                                  
   EATOM  =   223.2721 eV,   16.4100 Ry                                         
                                                                                
   TITEL  = PAW_PBE Te 08Apr2002                                                
   LULTRA =        F    use ultrasoft PP ?                                      
   IUNSCR =        1    unscreen: 0-lin 1-nonlin 2-no                           
   RPACOR =    2.200    partial core radius                                     
   POMASS =  127.600; ZVAL   =    6.000    mass and valenz                      
   RCORE  =    2.300    outmost cutoff radius                                   
   RWIGS  =    2.900; RWIGS  =    1.535    wigner-seitz radius (au A)           
   ENMAX  =  174.982; ENMIN  =  131.236 eV                                      
   ICORE  =        3    local potential                                         
   LCOR   =        T    correct aug charges                                     
   LPAW   =        T    paw PP                                                  
   EAUG   =  368.792                                                            
   DEXC   =    0.000                                                            
   RMAX   =    2.345    core radius for proj-oper                               
   RAUG   =    1.300    factor for augmentation sphere                          
   RDEP   =    2.397    radius for radial grids                                 
   RDEPT  =    2.174    core radius for aug-charge                              
                                                                                
   Atomic configuration                                                         
   13 entries                                                                   
     n  l   j            E        occ.                                          
     1  0  0.50    -31621.2075   2.0000                                         
     2  0  0.50     -4848.7941   2.0000                                         
     2  1  1.50     -4352.1960   6.0000                                         
     3  0  0.50      -964.9612   2.0000                                         
     3  1  1.50      -803.6179   6.0000                                         
     3  2  2.50      -559.8710  10.0000                                         
     4  0  0.50      -164.3522   2.0000                                         
     4  1  1.50      -114.3756   6.0000                                         
     4  2  2.50       -41.6483  10.0000                                         
     5  0  0.50       -15.1072   2.0000                                         
     5  1  0.50        -5.9526   4.0000                                         
     5  2  1.50        -5.4423   0.0000                                         
     4  3  2.50        -5.4423   0.0000                                         
   Description                                                                  
     l       E           TYP  RCUT    TYP  RCUT                                 
     0    -15.1072389     23  2.300                                             
     0    -16.4678215     23  2.300                                             
     1     -5.9526306     23  2.300                                             
     1     -2.4873968     23  2.300                                             
     2     -5.4423304     23  2.300                                             
     3     -1.3605826     23  2.300                                             
  local pseudopotential read in
  partial core-charges read in
  partial kinetic energy density read in
  atomic valenz-charges read in
  non local Contribution for L=           0  read in
    real space projection operators read in
  non local Contribution for L=           0  read in
    real space projection operators read in
  non local Contribution for L=           1  read in
    real space projection operators read in
  non local Contribution for L=           1  read in
    real space projection operators read in
  non local Contribution for L=           2  read in
    real space projection operators read in
    PAW grid and wavefunctions read in
 
   number of l-projection  operators is LMAX  =           5
   number of lm-projection operators is LMMAX =          13
 
  PAW_PBE Mo 08Apr2002                  :
 energy of atom  1       EATOM= -217.5176
 kinetic energy error for atom=    0.0005 (will be added to EATOM!!)
  PAW_PBE Te 08Apr2002                  :
 energy of atom  2       EATOM= -223.2721
 kinetic energy error for atom=    0.0004 (will be added to EATOM!!)
 
 
 POSCAR: Mo Te                                   
  positions in direct lattice
  No initial velocities read in
 exchange correlation table for  LEXCH =        8
   RHO(1)=    0.500       N(1)  =     2000
   RHO(2)=  100.500       N(2)  =     4000
 


--------------------------------------------------------------------------------------------------------


 ion  position               nearest neighbor table
   1  0.000  0.000  0.497-   4 2.64   4 2.64   6 2.65   5 2.78   5 2.78   3 2.81   2 2.89   2 2.89

   2  0.364  0.500  0.503-   6 2.64   6 2.64   4 2.65   3 2.78   3 2.78   5 2.81   1 2.89   1 2.89

   3  0.614  0.000  0.449-   2 2.78   2 2.78   1 2.81   5 3.44   5 3.44   4 3.62   4 3.62
   4  0.106  0.500  0.429-   1 2.64   1 2.64   2 2.65   3 3.62   3 3.62
   5  0.750  0.500  0.551-   1 2.78   1 2.78   2 2.81   3 3.44   3 3.44   6 3.62   6 3.62
   6  0.259  0.000  0.571-   2 2.64   2 2.64   1 2.65   5 3.62   5 3.62
 

IMPORTANT INFORMATION: All symmetrisations will be switched off!
NOSYMM: (Re-)initialisation of all symmetry stuff for point group C_1.

 
 
 KPOINTS: K-Spacing Value to Generate K-Mesh: 0.02

Automatic generation of k-mesh.
Space group operators:
 irot       det(A)        alpha          n_x          n_y          n_z        tau_x        tau_y        tau_z
    1     1.000000     0.000001     1.000000     0.000000     0.000000     0.000000     0.000000     0.000000
 
 Subroutine IBZKPT returns following result:
 ===========================================
 
 Found     68 irreducible k-points:
 
 Following reciprocal coordinates:
            Coordinates               Weight
  0.000000  0.000000  0.000000      1.000000
  0.111111  0.000000  0.000000      2.000000
  0.222222  0.000000  0.000000      2.000000
  0.333333  0.000000  0.000000      2.000000
  0.444444  0.000000  0.000000      2.000000
  0.000000  0.066667  0.000000      2.000000
  0.111111  0.066667  0.000000      2.000000
  0.222222  0.066667  0.000000      2.000000
  0.333333  0.066667  0.000000      2.000000
  0.444444  0.066667  0.000000      2.000000
 -0.444444  0.066667  0.000000      2.000000
 -0.333333  0.066667  0.000000      2.000000
 -0.222222  0.066667  0.000000      2.000000
 -0.111111  0.066667  0.000000      2.000000
  0.000000  0.133333  0.000000      2.000000
  0.111111  0.133333  0.000000      2.000000
  0.222222  0.133333  0.000000      2.000000
  0.333333  0.133333  0.000000      2.000000
  0.444444  0.133333  0.000000      2.000000
 -0.444444  0.133333  0.000000      2.000000
 -0.333333  0.133333  0.000000      2.000000
 -0.222222  0.133333  0.000000      2.000000
 -0.111111  0.133333  0.000000      2.000000
  0.000000  0.200000  0.000000      2.000000
  0.111111  0.200000  0.000000      2.000000
  0.222222  0.200000  0.000000      2.000000
  0.333333  0.200000  0.000000      2.000000
  0.444444  0.200000  0.000000      2.000000
 -0.444444  0.200000  0.000000      2.000000
 -0.333333  0.200000  0.000000      2.000000
 -0.222222  0.200000  0.000000      2.000000
 -0.111111  0.200000  0.000000      2.000000
  0.000000  0.266667  0.000000      2.000000
  0.111111  0.266667  0.000000      2.000000
  0.222222  0.266667  0.000000      2.000000
  0.333333  0.266667  0.000000      2.000000
  0.444444  0.266667  0.000000      2.000000
 -0.444444  0.266667  0.000000      2.000000
 -0.333333  0.266667  0.000000      2.000000
 -0.222222  0.266667  0.000000      2.000000
 -0.111111  0.266667  0.000000      2.000000
  0.000000  0.333333  0.000000      2.000000
  0.111111  0.333333  0.000000      2.000000
  0.222222  0.333333  0.000000      2.000000
  0.333333  0.333333  0.000000      2.000000
  0.444444  0.333333  0.000000      2.000000
 -0.444444  0.333333  0.000000      2.000000
 -0.333333  0.333333  0.000000      2.000000
 -0.222222  0.333333  0.000000      2.000000
 -0.111111  0.333333  0.000000      2.000000
  0.000000  0.400000  0.000000      2.000000
  0.111111  0.400000  0.000000      2.000000
  0.222222  0.400000  0.000000      2.000000
  0.333333  0.400000  0.000000      2.000000
  0.444444  0.400000  0.000000      2.000000
 -0.444444  0.400000  0.000000      2.000000
 -0.333333  0.400000  0.000000      2.000000
 -0.222222  0.400000  0.000000      2.000000
 -0.111111  0.400000  0.000000      2.000000
  0.000000  0.466667  0.000000      2.000000
  0.111111  0.466667  0.000000      2.000000
  0.222222  0.466667  0.000000      2.000000
  0.333333  0.466667  0.000000      2.000000
  0.444444  0.466667  0.000000      2.000000
 -0.444444  0.466667  0.000000      2.000000
 -0.333333  0.466667  0.000000      2.000000
 -0.222222  0.466667  0.000000      2.000000
 -0.111111  0.466667  0.000000      2.000000
 
 Following cartesian coordinates:
            Coordinates               Weight
  0.000000  0.000000  0.000000      1.000000
  0.017377  0.000000  0.000000      2.000000
  0.034755  0.000000  0.000000      2.000000
  0.052132  0.000000  0.000000      2.000000
  0.069509  0.000000  0.000000      2.000000
  0.000000  0.019565  0.000000      2.000000
  0.017377  0.019565  0.000000      2.000000
  0.034755  0.019565  0.000000      2.000000
  0.052132  0.019565  0.000000      2.000000
  0.069509  0.019565  0.000000      2.000000
 -0.069509  0.019565  0.000000      2.000000
 -0.052132  0.019565  0.000000      2.000000
 -0.034755  0.019565  0.000000      2.000000
 -0.017377  0.019565  0.000000      2.000000
  0.000000  0.039129  0.000000      2.000000
  0.017377  0.039129  0.000000      2.000000
  0.034755  0.039129  0.000000      2.000000
  0.052132  0.039129  0.000000      2.000000
  0.069509  0.039129  0.000000      2.000000
 -0.069509  0.039129  0.000000      2.000000
 -0.052132  0.039129  0.000000      2.000000
 -0.034755  0.039129  0.000000      2.000000
 -0.017377  0.039129  0.000000      2.000000
  0.000000  0.058694  0.000000      2.000000
  0.017377  0.058694  0.000000      2.000000
  0.034755  0.058694  0.000000      2.000000
  0.052132  0.058694  0.000000      2.000000
  0.069509  0.058694  0.000000      2.000000
 -0.069509  0.058694  0.000000      2.000000
 -0.052132  0.058694  0.000000      2.000000
 -0.034755  0.058694  0.000000      2.000000
 -0.017377  0.058694  0.000000      2.000000
  0.000000  0.078259  0.000000      2.000000
  0.017377  0.078259  0.000000      2.000000
  0.034755  0.078259  0.000000      2.000000
  0.052132  0.078259  0.000000      2.000000
  0.069509  0.078259  0.000000      2.000000
 -0.069509  0.078259  0.000000      2.000000
 -0.052132  0.078259  0.000000      2.000000
 -0.034755  0.078259  0.000000      2.000000
 -0.017377  0.078259  0.000000      2.000000
  0.000000  0.097824  0.000000      2.000000
  0.017377  0.097824  0.000000      2.000000
  0.034755  0.097824  0.000000      2.000000
  0.052132  0.097824  0.000000      2.000000
  0.069509  0.097824  0.000000      2.000000
 -0.069509  0.097824  0.000000      2.000000
 -0.052132  0.097824  0.000000      2.000000
 -0.034755  0.097824  0.000000      2.000000
 -0.017377  0.097824  0.000000      2.000000
  0.000000  0.117388  0.000000      2.000000
  0.017377  0.117388  0.000000      2.000000
  0.034755  0.117388  0.000000      2.000000
  0.052132  0.117388  0.000000      2.000000
  0.069509  0.117388  0.000000      2.000000
 -0.069509  0.117388  0.000000      2.000000
 -0.052132  0.117388  0.000000      2.000000
 -0.034755  0.117388  0.000000      2.000000
 -0.017377  0.117388  0.000000      2.000000
  0.000000  0.136953  0.000000      2.000000
  0.017377  0.136953  0.000000      2.000000
  0.034755  0.136953  0.000000      2.000000
  0.052132  0.136953  0.000000      2.000000
  0.069509  0.136953  0.000000      2.000000
 -0.069509  0.136953  0.000000      2.000000
 -0.052132  0.136953  0.000000      2.000000
 -0.034755  0.136953  0.000000      2.000000
 -0.017377  0.136953  0.000000      2.000000
 


--------------------------------------------------------------------------------------------------------




 Dimension of arrays:
   k-points           NKPTS =     68   k-points in BZ     NKDIM =     68   number of bands    NBANDS=     24
   number of dos      NEDOS =    301   number of ions     NIONS =      6
   non local maximal  LDIM  =      6   non local SUM 2l+1 LMDIM =     18
   total plane-waves  NPLWV = 338688
   max r-space proj   IRMAX =      1   max aug-charges    IRDMAX=  35840
   dimension x,y,z NGX =    54 NGY =   28 NGZ =  224
   dimension x,y,z NGXF=   108 NGYF=   56 NGZF=  448
   support grid    NGXF=   108 NGYF=   56 NGZF=  448
   ions per type =               2   4
   NGX,Y,Z   is equivalent  to a cutoff of  14.04, 13.66, 13.30 a.u.
   NGXF,Y,Z  is equivalent  to a cutoff of  28.08, 27.32, 26.60 a.u.

 SYSTEM =  XYZ                                     
 POSCAR =  Mo Te                                   

 Startparameter for this run:
   NWRITE =      2    write-flag & timer
   PREC   = accura    normal or accurate (medium, high low for compatibility)
   ISTART =      0    job   : 0-new  1-cont  2-samecut
   ICHARG =      2    charge: 1-file 2-atom 10-const
   ISPIN  =      1    spin polarized calculation?
   LNONCOLLINEAR =      F non collinear calculations
   LSORBIT =      F    spin-orbit coupling
   INIWAV =      1    electr: 0-lowe 1-rand  2-diag
   LASPH  =      F    aspherical Exc in radial PAW
   METAGGA=      F    non-selfconsistent MetaGGA calc.

 Electronic Relaxation 1
   ENCUT  =  600.0 eV  44.10 Ry    6.64 a.u.  12.77  6.81 55.92*2*pi/ulx,y,z
   ENINI  =  600.0     initial cutoff
   ENAUG  =  368.8 eV  augmentation charge cutoff
   NELM   =     60;   NELMIN=  2; NELMDL= -5     # of ELM steps 
   EDIFF  = 0.1E-05   stopping-criterion for ELM
   LREAL  =      F    real-space projection
   NLSPLINE    = F    spline interpolate recip. space projectors
   LCOMPAT=      F    compatible to vasp.4.4
   GGA_COMPAT  = T    GGA compatible to vasp.4.4-vasp.4.6
   LMAXPAW     = -100 max onsite density
   LMAXMIX     =    2 max onsite mixed and CHGCAR
   VOSKOWN=      0    Vosko Wilk Nusair interpolation
   ROPT   =    0.00000   0.00000
 Ionic relaxation
   EDIFFG = -.1E-02   stopping-criterion for IOM
   NSW    =    100    number of steps for IOM
   NBLOCK =      1;   KBLOCK =    100    inner block; outer block 
   IBRION =      2    ionic relax: 0-MD 1-quasi-New 2-CG
   NFREE  =      1    steps in history (QN), initial steepest desc. (CG)
   ISIF   =      2    stress and relaxation
   IWAVPR =     11    prediction:  0-non 1-charg 2-wave 3-comb
   ISYM   =      0    0-nonsym 1-usesym 2-fastsym
   LCORR  =      T    Harris-Foulkes like correction to forces

   POTIM  = 0.5000    time-step for ionic-motion
   TEIN   =    0.0    initial temperature
   TEBEG  =    0.0;   TEEND  =   0.0 temperature during run
   SMASS  =  -3.00    Nose mass-parameter (am)
   estimated Nose-frequenzy (Omega)   =  0.10E-29 period in steps =****** mass=  -0.934E-27a.u.
   SCALEE = 1.0000    scale energy and forces
   NPACO  =    256;   APACO  = 16.0  distance and # of slots for P.C.
   PSTRESS=    0.0 pullay stress

  Mass of Ions in am
   POMASS =  95.94127.60
  Ionic Valenz
   ZVAL   =   6.00  6.00
  Atomic Wigner-Seitz radii
   RWIGS  =  -1.00 -1.00
  virtual crystal weights 
   VCA    =   1.00  1.00
   NELECT =      36.0000    total number of electrons
   NUPDOWN=      -1.0000    fix difference up-down

 DOS related values:
   EMIN   =  10.00;   EMAX   =-10.00  energy-range for DOS
   EFERMI =   0.00
   ISMEAR =     0;   SIGMA  =   0.10  broadening in eV -4-tet -1-fermi 0-gaus

 Electronic relaxation 2 (details)
   IALGO  =     38    algorithm
   LDIAG  =      T    sub-space diagonalisation (order eigenvalues)
   LSUBROT=      F    optimize rotation matrix (better conditioning)
   TURBO    =      0    0=normal 1=particle mesh
   IRESTART =      0    0=no restart 2=restart with 2 vectors
   NREBOOT  =      0    no. of reboots
   NMIN     =      0    reboot dimension
   EREF     =   0.00    reference energy to select bands
   IMIX   =      4    mixing-type and parameters
     AMIX     =   0.40;   BMIX     =  1.00
     AMIX_MAG =   1.60;   BMIX_MAG =  1.00
     AMIN     =   0.10
     WC   =   100.;   INIMIX=   1;  MIXPRE=   1;  MAXMIX= -45

 Intra band minimization:
   WEIMIN = 0.0010     energy-eigenvalue tresh-hold
   EBREAK =  0.10E-07  absolut break condition
   DEPER  =   0.30     relativ break condition  

   TIME   =   0.40     timestep for ELM

  volume/ion in A,a.u.               =     101.68       686.14
  Fermi-wavevector in a.u.,A,eV,Ry     =   0.637363  1.204441  5.527109  0.406231
  Thomas-Fermi vector in A             =   1.702343
 
 Write flags
   LWAVE        =      T    write WAVECAR
   LDOWNSAMPLE  =      F    k-point downsampling of WAVECAR
   LCHARG       =      T    write CHGCAR
   LVTOT        =      F    write LOCPOT, total local potential
   LVHAR        =      F    write LOCPOT, Hartree potential only
   LELF         =      F    write electronic localiz. function (ELF)
   LORBIT       =      0    0 simple, 1 ext, 2 COOP (PROOUT), +10 PAW based schemes


 Dipole corrections
   LMONO  =      F    monopole corrections only (constant potential shift)
   LDIPOL =      T    correct potential (dipole corrections)
   IDIPOL =      3    1-x, 2-y, 3-z, 4-all directions 
   EPSILON=  1.0000000 bulk dielectric constant

 Exchange correlation treatment:
   GGA     =    PE    GGA type
   LEXCH   =     8    internal setting for exchange type
   VOSKOWN=      0    Vosko Wilk Nusair interpolation
   LHFCALC =     F    Hartree Fock is set to
   LHFONE  =     F    Hartree Fock one center treatment
   AEXX    =    0.0000 exact exchange contribution

 Linear response parameters
   LEPSILON=     F    determine dielectric tensor
   LRPA    =     F    only Hartree local field effects (RPA)
   LNABLA  =     F    use nabla operator in PAW spheres
   LVEL    =     F    velocity operator in full k-point grid
   LINTERFAST=   F  fast interpolation
   KINTER  =     0    interpolate to denser k-point grid
   CSHIFT  =0.1000    complex shift for real part using Kramers Kronig
   OMEGAMAX=  -1.0    maximum frequency
   DEG_THRESHOLD= 0.2000000E-02 threshold for treating states as degnerate
   RTIME   =   -0.100 relaxation time in fs
  (WPLASMAI=    0.000 imaginary part of plasma frequency in eV, 0.658/RTIME)
   DFIELD  = 0.0000000 0.0000000 0.0000000 field for delta impulse in time
 
 Orbital magnetization related:
   ORBITALMAG=     F  switch on orbital magnetization
   LCHIMAG   =     F  perturbation theory with respect to B field
   DQ        =  0.001000  dq finite difference perturbation B field
   LLRAUG    =     F  two centre corrections for induced B field



--------------------------------------------------------------------------------------------------------


 conjugate gradient relaxation of ions
 charge density and potential will be updated during run
 non-spin polarized calculation
 Variant of blocked Davidson
 Davidson routine will perform the subspace rotation
 perform sub-space diagonalisation
    after iterative eigenvector-optimisation
 modified Broyden-mixing scheme, WC =      100.0
 initial mixing is a Kerker type mixing with AMIX =  0.4000 and BMIX =      1.0000
 Hartree-type preconditioning will be used
 using additional bands            6
 reciprocal scheme for non local part
 use partial core corrections
 calculate Harris-corrections to forces 
   (improved forces if not selfconsistent)
 use gradient corrections 
 use of overlap-Matrix (Vanderbilt PP)
 Gauss-broadening in eV      SIGMA  =   0.10


--------------------------------------------------------------------------------------------------------


  energy-cutoff  :      600.00
  volume of cell :      610.05
      direct lattice vectors                 reciprocal lattice vectors
     6.394026711  0.000000000  0.000000000     0.156395968  0.000000000  0.000000000
     0.000000000  3.407492017  0.000000000     0.000000000  0.293470974  0.000000000
     0.000000000  0.000000000 28.000000000     0.000000000  0.000000000  0.035714286

  length of vectors
     6.394026711  3.407492017 28.000000000     0.156395968  0.293470974  0.035714286


 
 k-points in units of 2pi/SCALE and weight: K-Spacing Value to Generate K-Mesh: 0.02
   0.00000000  0.00000000  0.00000000       0.007
   0.01737733  0.00000000  0.00000000       0.015
   0.03475466  0.00000000  0.00000000       0.015
   0.05213199  0.00000000  0.00000000       0.015
   0.06950932  0.00000000  0.00000000       0.015
   0.00000000  0.01956473  0.00000000       0.015
   0.01737733  0.01956473  0.00000000       0.015
   0.03475466  0.01956473  0.00000000       0.015
   0.05213199  0.01956473  0.00000000       0.015
   0.06950932  0.01956473  0.00000000       0.015
  -0.06950932  0.01956473  0.00000000       0.015
  -0.05213199  0.01956473  0.00000000       0.015
  -0.03475466  0.01956473  0.00000000       0.015
  -0.01737733  0.01956473  0.00000000       0.015
   0.00000000  0.03912946  0.00000000       0.015
   0.01737733  0.03912946  0.00000000       0.015
   0.03475466  0.03912946  0.00000000       0.015
   0.05213199  0.03912946  0.00000000       0.015
   0.06950932  0.03912946  0.00000000       0.015
  -0.06950932  0.03912946  0.00000000       0.015
  -0.05213199  0.03912946  0.00000000       0.015
  -0.03475466  0.03912946  0.00000000       0.015
  -0.01737733  0.03912946  0.00000000       0.015
   0.00000000  0.05869419  0.00000000       0.015
   0.01737733  0.05869419  0.00000000       0.015
   0.03475466  0.05869419  0.00000000       0.015
   0.05213199  0.05869419  0.00000000       0.015
   0.06950932  0.05869419  0.00000000       0.015
  -0.06950932  0.05869419  0.00000000       0.015
  -0.05213199  0.05869419  0.00000000       0.015
  -0.03475466  0.05869419  0.00000000       0.015
  -0.01737733  0.05869419  0.00000000       0.015
   0.00000000  0.07825893  0.00000000       0.015
   0.01737733  0.07825893  0.00000000       0.015
   0.03475466  0.07825893  0.00000000       0.015
   0.05213199  0.07825893  0.00000000       0.015
   0.06950932  0.07825893  0.00000000       0.015
  -0.06950932  0.07825893  0.00000000       0.015
  -0.05213199  0.07825893  0.00000000       0.015
  -0.03475466  0.07825893  0.00000000       0.015
  -0.01737733  0.07825893  0.00000000       0.015
   0.00000000  0.09782366  0.00000000       0.015
   0.01737733  0.09782366  0.00000000       0.015
   0.03475466  0.09782366  0.00000000       0.015
   0.05213199  0.09782366  0.00000000       0.015
   0.06950932  0.09782366  0.00000000       0.015
  -0.06950932  0.09782366  0.00000000       0.015
  -0.05213199  0.09782366  0.00000000       0.015
  -0.03475466  0.09782366  0.00000000       0.015
  -0.01737733  0.09782366  0.00000000       0.015
   0.00000000  0.11738839  0.00000000       0.015
   0.01737733  0.11738839  0.00000000       0.015
   0.03475466  0.11738839  0.00000000       0.015
   0.05213199  0.11738839  0.00000000       0.015
   0.06950932  0.11738839  0.00000000       0.015
  -0.06950932  0.11738839  0.00000000       0.015
  -0.05213199  0.11738839  0.00000000       0.015
  -0.03475466  0.11738839  0.00000000       0.015
  -0.01737733  0.11738839  0.00000000       0.015
   0.00000000  0.13695312  0.00000000       0.015
   0.01737733  0.13695312  0.00000000       0.015
   0.03475466  0.13695312  0.00000000       0.015
   0.05213199  0.13695312  0.00000000       0.015
   0.06950932  0.13695312  0.00000000       0.015
  -0.06950932  0.13695312  0.00000000       0.015
  -0.05213199  0.13695312  0.00000000       0.015
  -0.03475466  0.13695312  0.00000000       0.015
  -0.01737733  0.13695312  0.00000000       0.015
 
 k-points in reciprocal lattice and weights: K-Spacing Value to Generate K-Mesh: 0.02
   0.00000000  0.00000000  0.00000000       0.007
   0.11111111  0.00000000  0.00000000       0.015
   0.22222222  0.00000000  0.00000000       0.015
   0.33333333  0.00000000  0.00000000       0.015
   0.44444444  0.00000000  0.00000000       0.015
   0.00000000  0.06666667  0.00000000       0.015
   0.11111111  0.06666667  0.00000000       0.015
   0.22222222  0.06666667  0.00000000       0.015
   0.33333333  0.06666667  0.00000000       0.015
   0.44444444  0.06666667  0.00000000       0.015
  -0.44444444  0.06666667  0.00000000       0.015
  -0.33333333  0.06666667  0.00000000       0.015
  -0.22222222  0.06666667  0.00000000       0.015
  -0.11111111  0.06666667  0.00000000       0.015
   0.00000000  0.13333333  0.00000000       0.015
   0.11111111  0.13333333  0.00000000       0.015
   0.22222222  0.13333333  0.00000000       0.015
   0.33333333  0.13333333  0.00000000       0.015
   0.44444444  0.13333333  0.00000000       0.015
  -0.44444444  0.13333333  0.00000000       0.015
  -0.33333333  0.13333333  0.00000000       0.015
  -0.22222222  0.13333333  0.00000000       0.015
  -0.11111111  0.13333333  0.00000000       0.015
   0.00000000  0.20000000  0.00000000       0.015
   0.11111111  0.20000000  0.00000000       0.015
   0.22222222  0.20000000  0.00000000       0.015
   0.33333333  0.20000000  0.00000000       0.015
   0.44444444  0.20000000  0.00000000       0.015
  -0.44444444  0.20000000  0.00000000       0.015
  -0.33333333  0.20000000  0.00000000       0.015
  -0.22222222  0.20000000  0.00000000       0.015
  -0.11111111  0.20000000  0.00000000       0.015
   0.00000000  0.26666667  0.00000000       0.015
   0.11111111  0.26666667  0.00000000       0.015
   0.22222222  0.26666667  0.00000000       0.015
   0.33333333  0.26666667  0.00000000       0.015
   0.44444444  0.26666667  0.00000000       0.015
  -0.44444444  0.26666667  0.00000000       0.015
  -0.33333333  0.26666667  0.00000000       0.015
  -0.22222222  0.26666667  0.00000000       0.015
  -0.11111111  0.26666667  0.00000000       0.015
   0.00000000  0.33333333  0.00000000       0.015
   0.11111111  0.33333333  0.00000000       0.015
   0.22222222  0.33333333  0.00000000       0.015
   0.33333333  0.33333333  0.00000000       0.015
   0.44444444  0.33333333  0.00000000       0.015
  -0.44444444  0.33333333  0.00000000       0.015
  -0.33333333  0.33333333  0.00000000       0.015
  -0.22222222  0.33333333  0.00000000       0.015
  -0.11111111  0.33333333  0.00000000       0.015
   0.00000000  0.40000000  0.00000000       0.015
   0.11111111  0.40000000  0.00000000       0.015
   0.22222222  0.40000000  0.00000000       0.015
   0.33333333  0.40000000  0.00000000       0.015
   0.44444444  0.40000000  0.00000000       0.015
  -0.44444444  0.40000000  0.00000000       0.015
  -0.33333333  0.40000000  0.00000000       0.015
  -0.22222222  0.40000000  0.00000000       0.015
  -0.11111111  0.40000000  0.00000000       0.015
   0.00000000  0.46666667  0.00000000       0.015
   0.11111111  0.46666667  0.00000000       0.015
   0.22222222  0.46666667  0.00000000       0.015
   0.33333333  0.46666667  0.00000000       0.015
   0.44444444  0.46666667  0.00000000       0.015
  -0.44444444  0.46666667  0.00000000       0.015
  -0.33333333  0.46666667  0.00000000       0.015
  -0.22222222  0.46666667  0.00000000       0.015
  -0.11111111  0.46666667  0.00000000       0.015
 
 position of ions in fractional coordinates (direct lattice) 
   0.00000000  0.00000000  0.49698211
   0.36448024  0.50000000  0.50301791
   0.61409115  0.00000000  0.44885659
   0.10552933  0.50000000  0.42900240
   0.75038906  0.50000000  0.55114341
   0.25895091  0.00000000  0.57099760
 
 position of ions in cartesian coordinates  (Angst):
   0.00000000  0.00000000 13.91549905
   2.33049640  1.70374601 14.08450153
   3.92651525  0.00000000 12.56798448
   0.67475734  1.70374601 12.01206720
   4.79800772  1.70374601 15.43201552
   1.65573906  0.00000000 15.98793280
 


--------------------------------------------------------------------------------------------------------


 k-point  1 :   0.0000 0.0000 0.0000  plane waves:   20375
 k-point  2 :   0.1111 0.0000 0.0000  plane waves:   20387
 k-point  3 :   0.2222 0.0000 0.0000  plane waves:   20357
 k-point  4 :   0.3333 0.0000 0.0000  plane waves:   20294
 k-point  5 :   0.4444 0.0000 0.0000  plane waves:   20346
 k-point  6 :   0.0000 0.0667 0.0000  plane waves:   20375
 k-point  7 :   0.1111 0.0667 0.0000  plane waves:   20383
 k-point  8 :   0.2222 0.0667 0.0000  plane waves:   20336
 k-point  9 :   0.3333 0.0667 0.0000  plane waves:   20338
 k-point 10 :   0.4444 0.0667 0.0000  plane waves:   20324
 k-point 11 :  -0.4444 0.0667 0.0000  plane waves:   20324
 k-point 12 :  -0.3333 0.0667 0.0000  plane waves:   20338
 k-point 13 :  -0.2222 0.0667 0.0000  plane waves:   20336
 k-point 14 :  -0.1111 0.0667 0.0000  plane waves:   20383
 k-point 15 :   0.0000 0.1333 0.0000  plane waves:   20369
 k-point 16 :   0.1111 0.1333 0.0000  plane waves:   20368
 k-point 17 :   0.2222 0.1333 0.0000  plane waves:   20342
 k-point 18 :   0.3333 0.1333 0.0000  plane waves:   20340
 k-point 19 :   0.4444 0.1333 0.0000  plane waves:   20311
 k-point 20 :  -0.4444 0.1333 0.0000  plane waves:   20311
 k-point 21 :  -0.3333 0.1333 0.0000  plane waves:   20340
 k-point 22 :  -0.2222 0.1333 0.0000  plane waves:   20342
 k-point 23 :  -0.1111 0.1333 0.0000  plane waves:   20368
 k-point 24 :   0.0000 0.2000 0.0000  plane waves:   20366
 k-point 25 :   0.1111 0.2000 0.0000  plane waves:   20341
 k-point 26 :   0.2222 0.2000 0.0000  plane waves:   20311
 k-point 27 :   0.3333 0.2000 0.0000  plane waves:   20294
 k-point 28 :   0.4444 0.2000 0.0000  plane waves:   20327
 k-point 29 :  -0.4444 0.2000 0.0000  plane waves:   20327
 k-point 30 :  -0.3333 0.2000 0.0000  plane waves:   20294
 k-point 31 :  -0.2222 0.2000 0.0000  plane waves:   20311
 k-point 32 :  -0.1111 0.2000 0.0000  plane waves:   20341
 k-point 33 :   0.0000 0.2667 0.0000  plane waves:   20330
 k-point 34 :   0.1111 0.2667 0.0000  plane waves:   20330
 k-point 35 :   0.2222 0.2667 0.0000  plane waves:   20344
 k-point 36 :   0.3333 0.2667 0.0000  plane waves:   20360
 k-point 37 :   0.4444 0.2667 0.0000  plane waves:   20389
 k-point 38 :  -0.4444 0.2667 0.0000  plane waves:   20389
 k-point 39 :  -0.3333 0.2667 0.0000  plane waves:   20360
 k-point 40 :  -0.2222 0.2667 0.0000  plane waves:   20344
 k-point 41 :  -0.1111 0.2667 0.0000  plane waves:   20330
 k-point 42 :   0.0000 0.3333 0.0000  plane waves:   20352
 k-point 43 :   0.1111 0.3333 0.0000  plane waves:   20355
 k-point 44 :   0.2222 0.3333 0.0000  plane waves:   20345
 k-point 45 :   0.3333 0.3333 0.0000  plane waves:   20391
 k-point 46 :   0.4444 0.3333 0.0000  plane waves:   20411
 k-point 47 :  -0.4444 0.3333 0.0000  plane waves:   20411
 k-point 48 :  -0.3333 0.3333 0.0000  plane waves:   20391
 k-point 49 :  -0.2222 0.3333 0.0000  plane waves:   20345
 k-point 50 :  -0.1111 0.3333 0.0000  plane waves:   20355
 k-point 51 :   0.0000 0.4000 0.0000  plane waves:   20374
 k-point 52 :   0.1111 0.4000 0.0000  plane waves:   20374
 k-point 53 :   0.2222 0.4000 0.0000  plane waves:   20367
 k-point 54 :   0.3333 0.4000 0.0000  plane waves:   20422
 k-point 55 :   0.4444 0.4000 0.0000  plane waves:   20403
 k-point 56 :  -0.4444 0.4000 0.0000  plane waves:   20403
 k-point 57 :  -0.3333 0.4000 0.0000  plane waves:   20422
 k-point 58 :  -0.2222 0.4000 0.0000  plane waves:   20367
 k-point 59 :  -0.1111 0.4000 0.0000  plane waves:   20374
 k-point 60 :   0.0000 0.4667 0.0000  plane waves:   20354
 k-point 61 :   0.1111 0.4667 0.0000  plane waves:   20372
 k-point 62 :   0.2222 0.4667 0.0000  plane waves:   20387
 k-point 63 :   0.3333 0.4667 0.0000  plane waves:   20419
 k-point 64 :   0.4444 0.4667 0.0000  plane waves:   20392
 k-point 65 :  -0.4444 0.4667 0.0000  plane waves:   20392
 k-point 66 :  -0.3333 0.4667 0.0000  plane waves:   20419
 k-point 67 :  -0.2222 0.4667 0.0000  plane waves:   20387
 k-point 68 :  -0.1111 0.4667 0.0000  plane waves:   20372

 maximum and minimum number of plane-waves per node :      1313     1239

 maximum number of plane-waves:     20422
 maximum index in each direction: 
   IXMAX=   13   IYMAX=    6   IZMAX=   55
   IXMIN=  -13   IYMIN=   -7   IZMIN=  -55


 parallel 3D FFT for wavefunctions:
    minimum data exchange during FFTs selected (reduces bandwidth)
 parallel 3D FFT for charge:
    minimum data exchange during FFTs selected (reduces bandwidth)


 total amount of memory used by VASP MPI-rank0    69675. kBytes
=======================================================================

   base      :      30000. kBytes
   nonl-proj :      25032. kBytes
   fftplans  :       2370. kBytes
   grid      :       3824. kBytes
   one-center:         15. kBytes
   wavefun   :       8434. kBytes
 
     INWAV:  cpu time    0.0000: real time    0.0000
 Broyden mixing: mesh for mixing (old mesh)
   NGX = 25   NGY = 13   NGZ =111
  (NGX  =108   NGY  = 56   NGZ  =448)
  gives a total of  36075 points

 initial charge density was supplied:
 charge density of overlapping atoms calculated
 number of electron      36.0000000 magnetization 
 keeping initial charge density in first step


--------------------------------------------------------------------------------------------------------


 Maximum index for augmentation-charges         1252 (set IRDMAX)


--------------------------------------------------------------------------------------------------------


 First call to EWALD:  gamma=   0.209
 Maximum number of real-space cells 3x 6x 1
 Maximum number of reciprocal cells 2x 1x 8

    FEWALD:  cpu time    0.0016: real time    0.0016


--------------------------------------- Iteration      1(   1)  ---------------------------------------


    POTLOK:  cpu time    0.0452: real time    0.0492
    SETDIJ:  cpu time    0.0035: real time    0.0036
     EDDAV:  cpu time    2.1254: real time    2.1577
       DOS:  cpu time    0.0018: real time    0.0018
    --------------------------------------------
      LOOP:  cpu time    2.1758: real time    2.2123

 eigenvalue-minimisations  :  3264
 total energy-change (2. order) : 0.2718612E+03  (-0.1151016E+04)
 number of electron      36.0000000 magnetization 
 augmentation part       36.0000000 magnetization 

 DIPCOR: dipole corrections for dipol
 direction  3 min pos     1,
 dipolmoment           0.000000      0.000000     -0.000000 electrons x Angstroem
 Tr[quadrupol]      -140.299328

 energy correction for charged system         0.000000 eV
 dipol+quadrupol energy correction           -0.000000 eV
 added-field ion interaction          0.000000 eV  (added to PSCEN)


 Free energy of the ion-electron system (eV)
  ---------------------------------------------------
  alpha Z        PSCENC =        14.52392644
  Ewald energy   TEWEN  =      6920.69103979
  -Hartree energ DENC   =     -8101.59996695
  -exchange      EXHF   =         0.00000000
  -V(xc)+E(xc)   XCENC  =      -233.28346076
  PAW double counting   =      1362.14282323    -1065.87210056
  entropy T*S    EENTRO =        -0.01849499
  eigenvalues    EBANDS =        47.15666907
  atomic energy  EATOM  =      1328.12079387
  Solvation  Ediel_sol  =         0.00000000
  ---------------------------------------------------
  free energy    TOTEN  =       271.86122912 eV

  energy without entropy =      271.87972411  energy(sigma->0) =      271.87047662


--------------------------------------------------------------------------------------------------------




--------------------------------------- Iteration      1(   2)  ---------------------------------------


     EDDAV:  cpu time    2.9265: real time    2.9266
       DOS:  cpu time    0.0018: real time    0.0018
    --------------------------------------------
      LOOP:  cpu time    2.9283: real time    2.9284

 eigenvalue-minimisations  :  5136
 total energy-change (2. order) :-0.2717697E+03  (-0.2622732E+03)
 number of electron      36.0000000 magnetization 
 augmentation part       36.0000000 magnetization 

 DIPCOR: dipole corrections for dipol
 direction  3 min pos     1,
 dipolmoment           0.000000      0.000000     -0.000000 electrons x Angstroem
 Tr[quadrupol]      -140.299328

 energy correction for charged system         0.000000 eV
 dipol+quadrupol energy correction           -0.000000 eV
 added-field ion interaction          0.000000 eV  (added to PSCEN)


 Free energy of the ion-electron system (eV)
  ---------------------------------------------------
  alpha Z        PSCENC =        14.52392644
  Ewald energy   TEWEN  =      6920.69103979
  -Hartree energ DENC   =     -8101.59996695
  -exchange      EXHF   =         0.00000000
  -V(xc)+E(xc)   XCENC  =      -233.28346076
  PAW double counting   =      1362.14282323    -1065.87210056
  entropy T*S    EENTRO =        -0.00589521
  eigenvalues    EBANDS =      -224.62558999
  atomic energy  EATOM  =      1328.12079387
  Solvation  Ediel_sol  =         0.00000000
  ---------------------------------------------------
  free energy    TOTEN  =         0.09156984 eV

  energy without entropy =        0.09746505  energy(sigma->0) =        0.09451744


--------------------------------------------------------------------------------------------------------




--------------------------------------- Iteration      1(   3)  ---------------------------------------


     EDDAV:  cpu time    2.6072: real time    2.6077
       DOS:  cpu time    0.0019: real time    0.0019
    --------------------------------------------
      LOOP:  cpu time    2.6091: real time    2.6096

 eigenvalue-minimisations  :  4360
 total energy-change (2. order) :-0.3579959E+02  (-0.3537005E+02)
 number of electron      36.0000000 magnetization 
 augmentation part       36.0000000 magnetization 

 DIPCOR: dipole corrections for dipol
 direction  3 min pos     1,
 dipolmoment           0.000000      0.000000     -0.000000 electrons x Angstroem
 Tr[quadrupol]      -140.299328

 energy correction for charged system         0.000000 eV
 dipol+quadrupol energy correction           -0.000000 eV
 added-field ion interaction          0.000000 eV  (added to PSCEN)


 Free energy of the ion-electron system (eV)
  ---------------------------------------------------
  alpha Z        PSCENC =        14.52392644
  Ewald energy   TEWEN  =      6920.69103979
  -Hartree energ DENC   =     -8101.59996695
  -exchange      EXHF   =         0.00000000
  -V(xc)+E(xc)   XCENC  =      -233.28346076
  PAW double counting   =      1362.14282323    -1065.87210056
  entropy T*S    EENTRO =        -0.00615732
  eigenvalues    EBANDS =      -260.42491460
  atomic energy  EATOM  =      1328.12079387
  Solvation  Ediel_sol  =         0.00000000
  ---------------------------------------------------
  free energy    TOTEN  =       -35.70801688 eV

  energy without entropy =      -35.70185955  energy(sigma->0) =      -35.70493822


--------------------------------------------------------------------------------------------------------




--------------------------------------- Iteration      1(   4)  ---------------------------------------


     EDDAV:  cpu time    3.0040: real time    3.0042
       DOS:  cpu time    0.0019: real time    0.0019
    --------------------------------------------
      LOOP:  cpu time    3.0059: real time    3.0060

 eigenvalue-minimisations  :  5024
 total energy-change (2. order) :-0.1453002E+01  (-0.1442613E+01)
 number of electron      36.0000000 magnetization 
 augmentation part       36.0000000 magnetization 

 DIPCOR: dipole corrections for dipol
 direction  3 min pos     1,
 dipolmoment           0.000000      0.000000     -0.000000 electrons x Angstroem
 Tr[quadrupol]      -140.299328

 energy correction for charged system         0.000000 eV
 dipol+quadrupol energy correction           -0.000000 eV
 added-field ion interaction          0.000000 eV  (added to PSCEN)


 Free energy of the ion-electron system (eV)
  ---------------------------------------------------
  alpha Z        PSCENC =        14.52392644
  Ewald energy   TEWEN  =      6920.69103979
  -Hartree energ DENC   =     -8101.59996695
  -exchange      EXHF   =         0.00000000
  -V(xc)+E(xc)   XCENC  =      -233.28346076
  PAW double counting   =      1362.14282323    -1065.87210056
  entropy T*S    EENTRO =        -0.00597347
  eigenvalues    EBANDS =      -261.87810005
  atomic energy  EATOM  =      1328.12079387
  Solvation  Ediel_sol  =         0.00000000
  ---------------------------------------------------
  free energy    TOTEN  =       -37.16101847 eV

  energy without entropy =      -37.15504501  energy(sigma->0) =      -37.15803174


--------------------------------------------------------------------------------------------------------




--------------------------------------- Iteration      1(   5)  ---------------------------------------


     EDDAV:  cpu time    2.9362: real time    2.9364
       DOS:  cpu time    0.0020: real time    0.0020
    CHARGE:  cpu time    0.1272: real time    0.1272
    MIXING:  cpu time    0.0014: real time    0.0015
    --------------------------------------------
      LOOP:  cpu time    3.0668: real time    3.0671

 eigenvalue-minimisations  :  4816
 total energy-change (2. order) :-0.2842459E-01  (-0.2839095E-01)
 number of electron      36.0000000 magnetization 
 augmentation part       -2.6954810 magnetization 

 DIPCOR: dipole corrections for dipol
 direction  3 min pos     1,
 dipolmoment           0.000000      0.000000     -0.000000 electrons x Angstroem
 Tr[quadrupol]      -140.299328

 energy correction for charged system         0.000000 eV
 dipol+quadrupol energy correction           -0.000000 eV
 added-field ion interaction          0.000000 eV  (added to PSCEN)


 Broyden mixing:
  rms(total) = 0.23163E+01    rms(broyden)= 0.23163E+01
  rms(prec ) = 0.23260E+01
  weight for this iteration     100.00

 Free energy of the ion-electron system (eV)
  ---------------------------------------------------
  alpha Z        PSCENC =        14.52392644
  Ewald energy   TEWEN  =      6920.69103979
  -Hartree energ DENC   =     -8101.59996695
  -exchange      EXHF   =         0.00000000
  -V(xc)+E(xc)   XCENC  =      -233.28346076
  PAW double counting   =      1362.14282323    -1065.87210056
  entropy T*S    EENTRO =        -0.00597403
  eigenvalues    EBANDS =      -261.90652408
  atomic energy  EATOM  =      1328.12079387
  Solvation  Ediel_sol  =         0.00000000
  ---------------------------------------------------
  free energy    TOTEN  =       -37.18944307 eV

  energy without entropy =      -37.18346904  energy(sigma->0) =      -37.18645605


--------------------------------------------------------------------------------------------------------




--------------------------------------- Iteration      1(   6)  ---------------------------------------


    POTLOK:  cpu time    0.0363: real time    0.0363
    SETDIJ:  cpu time    0.0030: real time    0.0030
     EDDAV:  cpu time    2.6303: real time    2.6305
       DOS:  cpu time    0.0020: real time    0.0020
    CHARGE:  cpu time    0.1257: real time    0.1257
    MIXING:  cpu time    0.0011: real time    0.0011
    --------------------------------------------
      LOOP:  cpu time    2.7984: real time    2.7986

 eigenvalue-minimisations  :  4528
 total energy-change (2. order) : 0.9245899E+00  (-0.3003996E+00)
 number of electron      36.0000000 magnetization 
 augmentation part       -2.2267309 magnetization 

 DIPCOR: dipole corrections for dipol
 direction  3 min pos     1,
 dipolmoment           0.000000      0.000000     -0.000026 electrons x Angstroem
 Tr[quadrupol]      -140.622051

 energy correction for charged system         0.000000 eV
 dipol+quadrupol energy correction           -0.000000 eV
 added-field ion interaction          0.000000 eV  (added to PSCEN)


 Broyden mixing:
  rms(total) = 0.95950E+00    rms(broyden)= 0.95950E+00
  rms(prec ) = 0.97051E+00
  weight for this iteration     100.00

 eigenvalues of (default mixing * dielectric matrix)
  average eigenvalue GAMMA=   1.5943
  1.5943

 Free energy of the ion-electron system (eV)
  ---------------------------------------------------
  alpha Z        PSCENC =        14.52392644
  Ewald energy   TEWEN  =      6920.69103979
  -Hartree energ DENC   =     -8103.88261205
  -exchange      EXHF   =         0.00000000
  -V(xc)+E(xc)   XCENC  =      -232.60453139
  PAW double counting   =      1913.05115137    -1618.20007865
  entropy T*S    EENTRO =        -0.00668438
  eigenvalues    EBANDS =      -257.95785814
  atomic energy  EATOM  =      1328.12079387
  Solvation  Ediel_sol  =         0.00000000
  ---------------------------------------------------
  free energy    TOTEN  =       -36.26485315 eV

  energy without entropy =      -36.25816877  energy(sigma->0) =      -36.26151096


--------------------------------------------------------------------------------------------------------




--------------------------------------- Iteration      1(   7)  ---------------------------------------


    POTLOK:  cpu time    0.0356: real time    0.0356
    SETDIJ:  cpu time    0.0027: real time    0.0027
     EDDAV:  cpu time    2.4423: real time    2.4424
       DOS:  cpu time    0.0018: real time    0.0018
    CHARGE:  cpu time    0.1256: real time    0.1256
    MIXING:  cpu time    0.0009: real time    0.0009
    --------------------------------------------
      LOOP:  cpu time    2.6090: real time    2.6091

 eigenvalue-minimisations  :  4088
 total energy-change (2. order) : 0.8066063E-01  (-0.3807821E+00)
 number of electron      36.0000000 magnetization 
 augmentation part       -2.6910357 magnetization 

 DIPCOR: dipole corrections for dipol
 direction  3 min pos     1,
 dipolmoment           0.000000      0.000000      0.000209 electrons x Angstroem
 Tr[quadrupol]      -141.400409

 energy correction for charged system         0.000000 eV
 dipol+quadrupol energy correction           -0.000000 eV
 added-field ion interaction         -0.000000 eV  (added to PSCEN)


 Broyden mixing:
  rms(total) = 0.56595E+00    rms(broyden)= 0.56595E+00
  rms(prec ) = 0.58901E+00
  weight for this iteration     100.00

 eigenvalues of (default mixing * dielectric matrix)
  average eigenvalue GAMMA=   1.1344
  1.7958  0.4731

 Free energy of the ion-electron system (eV)
  ---------------------------------------------------
  alpha Z        PSCENC =        14.52392643
  Ewald energy   TEWEN  =      6920.69103979
  -Hartree energ DENC   =     -8122.03307880
  -exchange      EXHF   =         0.00000000
  -V(xc)+E(xc)   XCENC  =      -232.28452493
  PAW double counting   =      2479.79075054    -2186.00204201
  entropy T*S    EENTRO =        -0.00742900
  eigenvalues    EBANDS =      -238.98362839
  atomic energy  EATOM  =      1328.12079387
  Solvation  Ediel_sol  =         0.00000000
  ---------------------------------------------------
  free energy    TOTEN  =       -36.18419252 eV

  energy without entropy =      -36.17676351  energy(sigma->0) =      -36.18047802


--------------------------------------------------------------------------------------------------------




--------------------------------------- Iteration      1(   8)  ---------------------------------------


    POTLOK:  cpu time    0.0352: real time    0.0352
    SETDIJ:  cpu time    0.0028: real time    0.0028
     EDDAV:  cpu time    2.5084: real time    2.5086
       DOS:  cpu time    0.0019: real time    0.0019
    CHARGE:  cpu time    0.1448: real time    0.1448
    MIXING:  cpu time    0.0013: real time    0.0013
    --------------------------------------------
      LOOP:  cpu time    2.6945: real time    2.6947

 eigenvalue-minimisations  :  4240
 total energy-change (2. order) : 0.3228826E+00  (-0.9075148E-01)
 number of electron      36.0000000 magnetization 
 augmentation part       -2.4683662 magnetization 

 DIPCOR: dipole corrections for dipol
 direction  3 min pos     1,
 dipolmoment           0.000000      0.000000      0.000087 electrons x Angstroem
 Tr[quadrupol]      -141.349403

 energy correction for charged system         0.000000 eV
 dipol+quadrupol energy correction           -0.000000 eV
 added-field ion interaction         -0.000000 eV  (added to PSCEN)


 Broyden mixing:
  rms(total) = 0.21355E+00    rms(broyden)= 0.21355E+00
  rms(prec ) = 0.21742E+00
  weight for this iteration     100.00

 eigenvalues of (default mixing * dielectric matrix)
  average eigenvalue GAMMA=   1.1302
  2.1398  0.7575  0.4932

 Free energy of the ion-electron system (eV)
  ---------------------------------------------------
  alpha Z        PSCENC =        14.52392644
  Ewald energy   TEWEN  =      6920.69103979
  -Hartree energ DENC   =     -8118.77172927
  -exchange      EXHF   =         0.00000000
  -V(xc)+E(xc)   XCENC  =      -232.01347853
  PAW double counting   =      2620.07041214    -2326.54170627
  entropy T*S    EENTRO =        -0.00635632
  eigenvalues    EBANDS =      -241.93421172
  atomic energy  EATOM  =      1328.12079387
  Solvation  Ediel_sol  =         0.00000000
  ---------------------------------------------------
  free energy    TOTEN  =       -35.86130988 eV

  energy without entropy =      -35.85495356  energy(sigma->0) =      -35.85813172


--------------------------------------------------------------------------------------------------------




--------------------------------------- Iteration      1(   9)  ---------------------------------------


    POTLOK:  cpu time    0.0388: real time    0.0388
    SETDIJ:  cpu time    0.0030: real time    0.0030
     EDDAV:  cpu time    2.7936: real time    2.7937
       DOS:  cpu time    0.0018: real time    0.0018
    CHARGE:  cpu time    0.1254: real time    0.1254
    MIXING:  cpu time    0.0010: real time    0.0010
    --------------------------------------------
      LOOP:  cpu time    2.9636: real time    2.9637

 eigenvalue-minimisations  :  4928
 total energy-change (2. order) : 0.6346691E-02  (-0.2974873E-01)
 number of electron      36.0000000 magnetization 
 augmentation part       -2.3272730 magnetization 

 DIPCOR: dipole corrections for dipol
 direction  3 min pos     1,
 dipolmoment           0.000000      0.000000     -0.000014 electrons x Angstroem
 Tr[quadrupol]      -141.435814

 energy correction for charged system         0.000000 eV
 dipol+quadrupol energy correction           -0.000000 eV
 added-field ion interaction          0.000000 eV  (added to PSCEN)


 Broyden mixing:
  rms(total) = 0.12780E+00    rms(broyden)= 0.12780E+00
  rms(prec ) = 0.13069E+00
  weight for this iteration     100.00

 eigenvalues of (default mixing * dielectric matrix)
  average eigenvalue GAMMA=   1.0985
  2.1046  1.0696  0.6099  0.6099

 Free energy of the ion-electron system (eV)
  ---------------------------------------------------
  alpha Z        PSCENC =        14.52392644
  Ewald energy   TEWEN  =      6920.69103979
  -Hartree energ DENC   =     -8119.64741311
  -exchange      EXHF   =         0.00000000
  -V(xc)+E(xc)   XCENC  =      -231.83652061
  PAW double counting   =      2752.97326985    -2459.65260903
  entropy T*S    EENTRO =        -0.00647783
  eigenvalues    EBANDS =      -241.02097255
  atomic energy  EATOM  =      1328.12079387
  Solvation  Ediel_sol  =         0.00000000
  ---------------------------------------------------
  free energy    TOTEN  =       -35.85496319 eV

  energy without entropy =      -35.84848536  energy(sigma->0) =      -35.85172428


--------------------------------------------------------------------------------------------------------




--------------------------------------- Iteration      1(  10)  ---------------------------------------


    POTLOK:  cpu time    0.0363: real time    0.0363
    SETDIJ:  cpu time    0.0028: real time    0.0028
     EDDAV:  cpu time    2.5387: real time    2.5388
       DOS:  cpu time    0.0043: real time    0.0043
    CHARGE:  cpu time    0.1255: real time    0.1255
    MIXING:  cpu time    0.0010: real time    0.0010
    --------------------------------------------
      LOOP:  cpu time    2.7087: real time    2.7088

 eigenvalue-minimisations  :  4328
 total energy-change (2. order) : 0.7838536E-02  (-0.4121152E-02)
 number of electron      36.0000000 magnetization 
 augmentation part       -2.3793036 magnetization 

 DIPCOR: dipole corrections for dipol
 direction  3 min pos     1,
 dipolmoment           0.000000      0.000000      0.000016 electrons x Angstroem
 Tr[quadrupol]      -141.530075

 energy correction for charged system         0.000000 eV
 dipol+quadrupol energy correction           -0.000000 eV
 added-field ion interaction         -0.000000 eV  (added to PSCEN)


 Broyden mixing:
  rms(total) = 0.49707E-01    rms(broyden)= 0.49707E-01
  rms(prec ) = 0.50585E-01
  weight for this iteration     100.00

 eigenvalues of (default mixing * dielectric matrix)
  average eigenvalue GAMMA=   1.3612
  2.6513  1.4623  1.4623  0.6151  0.6151

 Free energy of the ion-electron system (eV)
  ---------------------------------------------------
  alpha Z        PSCENC =        14.52392644
  Ewald energy   TEWEN  =      6920.69103979
  -Hartree energ DENC   =     -8121.72532915
  -exchange      EXHF   =         0.00000000
  -V(xc)+E(xc)   XCENC  =      -231.82292719
  PAW double counting   =      2789.20238788    -2495.91442623
  entropy T*S    EENTRO =        -0.00640286
  eigenvalues    EBANDS =      -238.91618720
  atomic energy  EATOM  =      1328.12079387
  Solvation  Ediel_sol  =         0.00000000
  ---------------------------------------------------
  free energy    TOTEN  =       -35.84712465 eV

  energy without entropy =      -35.84072180  energy(sigma->0) =      -35.84392323


--------------------------------------------------------------------------------------------------------




--------------------------------------- Iteration      1(  11)  ---------------------------------------


    POTLOK:  cpu time    0.0353: real time    0.0353
    SETDIJ:  cpu time    0.0027: real time    0.0027
     EDDAV:  cpu time    2.6573: real time    2.6578
       DOS:  cpu time    0.0019: real time    0.0019
    CHARGE:  cpu time    0.1258: real time    0.1258
    MIXING:  cpu time    0.0010: real time    0.0010
    --------------------------------------------
      LOOP:  cpu time    2.8240: real time    2.8245

 eigenvalue-minimisations  :  4632
 total energy-change (2. order) : 0.1044874E-02  (-0.7112647E-03)
 number of electron      36.0000000 magnetization 
 augmentation part       -2.3600725 magnetization 

 DIPCOR: dipole corrections for dipol
 direction  3 min pos     1,
 dipolmoment           0.000000      0.000000     -0.000006 electrons x Angstroem
 Tr[quadrupol]      -141.664516

 energy correction for charged system         0.000000 eV
 dipol+quadrupol energy correction           -0.000000 eV
 added-field ion interaction          0.000000 eV  (added to PSCEN)


 Broyden mixing:
  rms(total) = 0.32053E-01    rms(broyden)= 0.32053E-01
  rms(prec ) = 0.33674E-01
  weight for this iteration     100.00

 eigenvalues of (default mixing * dielectric matrix)
  average eigenvalue GAMMA=   1.2930
  2.5103  1.8438  1.2715  0.9191  0.6067  0.6067

 Free energy of the ion-electron system (eV)
  ---------------------------------------------------
  alpha Z        PSCENC =        14.52392644
  Ewald energy   TEWEN  =      6920.69103979
  -Hartree energ DENC   =     -8123.96300452
  -exchange      EXHF   =         0.00000000
  -V(xc)+E(xc)   XCENC  =      -231.73684608
  PAW double counting   =      2868.21162605    -2574.99317651
  entropy T*S    EENTRO =        -0.00644310
  eigenvalues    EBANDS =      -236.69399570
  atomic energy  EATOM  =      1328.12079387
  Solvation  Ediel_sol  =         0.00000000
  ---------------------------------------------------
  free energy    TOTEN  =       -35.84607978 eV

  energy without entropy =      -35.83963668  energy(sigma->0) =      -35.84285823


--------------------------------------------------------------------------------------------------------




--------------------------------------- Iteration      1(  12)  ---------------------------------------


    POTLOK:  cpu time    0.0386: real time    0.0386
    SETDIJ:  cpu time    0.0028: real time    0.0028
     EDDAV:  cpu time    2.6083: real time    2.6084
       DOS:  cpu time    0.0020: real time    0.0020
    CHARGE:  cpu time    0.1260: real time    0.1260
    MIXING:  cpu time    0.0011: real time    0.0011
    --------------------------------------------
      LOOP:  cpu time    2.7788: real time    2.7789

 eigenvalue-minimisations  :  4448
 total energy-change (2. order) : 0.8503739E-03  (-0.3932894E-03)
 number of electron      36.0000000 magnetization 
 augmentation part       -2.3762264 magnetization 

 DIPCOR: dipole corrections for dipol
 direction  3 min pos     1,
 dipolmoment           0.000000      0.000000      0.000004 electrons x Angstroem
 Tr[quadrupol]      -141.707838

 energy correction for charged system         0.000000 eV
 dipol+quadrupol energy correction           -0.000000 eV
 added-field ion interaction         -0.000000 eV  (added to PSCEN)


 Broyden mixing:
  rms(total) = 0.53514E-02    rms(broyden)= 0.53514E-02
  rms(prec ) = 0.69204E-02
  weight for this iteration     100.00

 eigenvalues of (default mixing * dielectric matrix)
  average eigenvalue GAMMA=   1.2295
  2.2337  2.2337  1.1089  1.1089  0.6043  0.6043  0.7124

 Free energy of the ion-electron system (eV)
  ---------------------------------------------------
  alpha Z        PSCENC =        14.52392644
  Ewald energy   TEWEN  =      6920.69103979
  -Hartree energ DENC   =     -8124.86107042
  -exchange      EXHF   =         0.00000000
  -V(xc)+E(xc)   XCENC  =      -231.74386094
  PAW double counting   =      2860.82143500    -2567.58691712
  entropy T*S    EENTRO =        -0.00642352
  eigenvalues    EBANDS =      -235.80415249
  atomic energy  EATOM  =      1328.12079387
  Solvation  Ediel_sol  =         0.00000000
  ---------------------------------------------------
  free energy    TOTEN  =       -35.84522941 eV

  energy without entropy =      -35.83880589  energy(sigma->0) =      -35.84201765


--------------------------------------------------------------------------------------------------------




--------------------------------------- Iteration      1(  13)  ---------------------------------------


    POTLOK:  cpu time    0.0354: real time    0.0354
    SETDIJ:  cpu time    0.0027: real time    0.0027
     EDDAV:  cpu time    2.7031: real time    2.7033
       DOS:  cpu time    0.0019: real time    0.0019
    CHARGE:  cpu time    0.1257: real time    0.1257
    MIXING:  cpu time    0.0011: real time    0.0011
    --------------------------------------------
      LOOP:  cpu time    2.8699: real time    2.8701

 eigenvalue-minimisations  :  4696
 total energy-change (2. order) : 0.6549010E-04  (-0.6131228E-04)
 number of electron      36.0000000 magnetization 
 augmentation part       -2.3790952 magnetization 

 DIPCOR: dipole corrections for dipol
 direction  3 min pos     1,
 dipolmoment           0.000000      0.000000     -0.000008 electrons x Angstroem
 Tr[quadrupol]      -141.758665

 energy correction for charged system         0.000000 eV
 dipol+quadrupol energy correction           -0.000000 eV
 added-field ion interaction          0.000000 eV  (added to PSCEN)


 Broyden mixing:
  rms(total) = 0.80242E-02    rms(broyden)= 0.80242E-02
  rms(prec ) = 0.88745E-02
  weight for this iteration     100.00

 eigenvalues of (default mixing * dielectric matrix)
  average eigenvalue GAMMA=   1.2469
  2.3432  2.3432  1.3432  1.3432  0.5948  0.5948  0.7942  0.6185

 Free energy of the ion-electron system (eV)
  ---------------------------------------------------
  alpha Z        PSCENC =        14.52392644
  Ewald energy   TEWEN  =      6920.69103979
  -Hartree energ DENC   =     -8125.76264106
  -exchange      EXHF   =         0.00000000
  -V(xc)+E(xc)   XCENC  =      -231.73856861
  PAW double counting   =      2853.26555291    -2560.02052717
  entropy T*S    EENTRO =        -0.00642788
  eigenvalues    EBANDS =      -234.91831219
  atomic energy  EATOM  =      1328.12079387
  Solvation  Ediel_sol  =         0.00000000
  ---------------------------------------------------
  free energy    TOTEN  =       -35.84516392 eV

  energy without entropy =      -35.83873604  energy(sigma->0) =      -35.84194998


--------------------------------------------------------------------------------------------------------




--------------------------------------- Iteration      1(  14)  ---------------------------------------


    POTLOK:  cpu time    0.0356: real time    0.0356
    SETDIJ:  cpu time    0.0027: real time    0.0027
     EDDAV:  cpu time    2.6579: real time    2.6580
       DOS:  cpu time    0.0019: real time    0.0019
    CHARGE:  cpu time    0.1256: real time    0.1256
    MIXING:  cpu time    0.0011: real time    0.0011
    --------------------------------------------
      LOOP:  cpu time    2.8248: real time    2.8250

 eigenvalue-minimisations  :  4512
 total energy-change (2. order) : 0.9235661E-04  (-0.3040675E-04)
 number of electron      36.0000000 magnetization 
 augmentation part       -2.3776509 magnetization 

 DIPCOR: dipole corrections for dipol
 direction  3 min pos     1,
 dipolmoment           0.000000      0.000000      0.000011 electrons x Angstroem
 Tr[quadrupol]      -141.809959

 energy correction for charged system         0.000000 eV
 dipol+quadrupol energy correction           -0.000000 eV
 added-field ion interaction         -0.000000 eV  (added to PSCEN)


 Broyden mixing:
  rms(total) = 0.72219E-02    rms(broyden)= 0.72219E-02
  rms(prec ) = 0.77178E-02
  weight for this iteration     100.00

 eigenvalues of (default mixing * dielectric matrix)
  average eigenvalue GAMMA=   1.3927
  3.2914  2.4807  1.6472  1.6472  1.0328  0.8484  0.6040  0.6040  0.3786

 Free energy of the ion-electron system (eV)
  ---------------------------------------------------
  alpha Z        PSCENC =        14.52392644
  Ewald energy   TEWEN  =      6920.69103979
  -Hartree energ DENC   =     -8126.65674704
  -exchange      EXHF   =         0.00000000
  -V(xc)+E(xc)   XCENC  =      -231.72928962
  PAW double counting   =      2849.13653752    -2555.88734966
  entropy T*S    EENTRO =        -0.00643586
  eigenvalues    EBANDS =      -234.03754699
  atomic energy  EATOM  =      1328.12079387
  Solvation  Ediel_sol  =         0.00000000
  ---------------------------------------------------
  free energy    TOTEN  =       -35.84507156 eV

  energy without entropy =      -35.83863570  energy(sigma->0) =      -35.84185363


--------------------------------------------------------------------------------------------------------




--------------------------------------- Iteration      1(  15)  ---------------------------------------


    POTLOK:  cpu time    0.0359: real time    0.0359
    SETDIJ:  cpu time    0.0027: real time    0.0027
     EDDAV:  cpu time    2.5580: real time    2.5585
       DOS:  cpu time    0.0019: real time    0.0019
    CHARGE:  cpu time    0.1275: real time    0.1275
    MIXING:  cpu time    0.0011: real time    0.0011
    --------------------------------------------
      LOOP:  cpu time    2.7272: real time    2.7277

 eigenvalue-minimisations  :  4352
 total energy-change (2. order) : 0.1045298E-04  (-0.3641517E-04)
 number of electron      36.0000000 magnetization 
 augmentation part       -2.3730760 magnetization 

 DIPCOR: dipole corrections for dipol
 direction  3 min pos     1,
 dipolmoment           0.000000      0.000000     -0.000002 electrons x Angstroem
 Tr[quadrupol]      -141.860425

 energy correction for charged system         0.000000 eV
 dipol+quadrupol energy correction           -0.000000 eV
 added-field ion interaction          0.000000 eV  (added to PSCEN)


 Broyden mixing:
  rms(total) = 0.33124E-02    rms(broyden)= 0.33124E-02
  rms(prec ) = 0.35478E-02
  weight for this iteration     100.00

 eigenvalues of (default mixing * dielectric matrix)
  average eigenvalue GAMMA=   1.3482
  3.4032  2.5810  1.5920  1.5920  0.9373  0.9373  0.8568  0.6035  0.6035  0.3756

 Free energy of the ion-electron system (eV)
  ---------------------------------------------------
  alpha Z        PSCENC =        14.52392644
  Ewald energy   TEWEN  =      6920.69103979
  -Hartree energ DENC   =     -8127.52267367
  -exchange      EXHF   =         0.00000000
  -V(xc)+E(xc)   XCENC  =      -231.71583989
  PAW double counting   =      2850.04329017    -2556.79731715
  entropy T*S    EENTRO =        -0.00644801
  eigenvalues    EBANDS =      -233.18183264
  atomic energy  EATOM  =      1328.12079387
  Solvation  Ediel_sol  =         0.00000000
  ---------------------------------------------------
  free energy    TOTEN  =       -35.84506111 eV

  energy without entropy =      -35.83861309  energy(sigma->0) =      -35.84183710


--------------------------------------------------------------------------------------------------------




--------------------------------------- Iteration      1(  16)  ---------------------------------------


    POTLOK:  cpu time    0.0356: real time    0.0357
    SETDIJ:  cpu time    0.0028: real time    0.0028
     EDDAV:  cpu time    2.5978: real time    2.5979
       DOS:  cpu time    0.0019: real time    0.0019
    CHARGE:  cpu time    0.1259: real time    0.1259
    MIXING:  cpu time    0.0012: real time    0.0012
    --------------------------------------------
      LOOP:  cpu time    2.7652: real time    2.7653

 eigenvalue-minimisations  :  4392
 total energy-change (2. order) :-0.7776638E-04  (-0.2040517E-05)
 number of electron      36.0000000 magnetization 
 augmentation part       -2.3728098 magnetization 

 DIPCOR: dipole corrections for dipol
 direction  3 min pos     1,
 dipolmoment           0.000000      0.000000     -0.000002 electrons x Angstroem
 Tr[quadrupol]      -141.873341

 energy correction for charged system         0.000000 eV
 dipol+quadrupol energy correction           -0.000000 eV
 added-field ion interaction          0.000000 eV  (added to PSCEN)


 Broyden mixing:
  rms(total) = 0.26934E-02    rms(broyden)= 0.26934E-02
  rms(prec ) = 0.28868E-02
  weight for this iteration     100.00

 eigenvalues of (default mixing * dielectric matrix)
  average eigenvalue GAMMA=   1.3640
  3.3531  2.6478  1.5257  1.5257  1.4142  1.4142  0.8536  0.6040  0.6040  0.6811
  0.3805

 Free energy of the ion-electron system (eV)
  ---------------------------------------------------
  alpha Z        PSCENC =        14.52392644
  Ewald energy   TEWEN  =      6920.69103979
  -Hartree energ DENC   =     -8127.75638238
  -exchange      EXHF   =         0.00000000
  -V(xc)+E(xc)   XCENC  =      -231.71414238
  PAW double counting   =      2849.81380990    -2556.56642270
  entropy T*S    EENTRO =        -0.00644889
  eigenvalues    EBANDS =      -232.95131251
  atomic energy  EATOM  =      1328.12079387
  Solvation  Ediel_sol  =         0.00000000
  ---------------------------------------------------
  free energy    TOTEN  =       -35.84513887 eV

  energy without entropy =      -35.83868999  energy(sigma->0) =      -35.84191443


--------------------------------------------------------------------------------------------------------




--------------------------------------- Iteration      1(  17)  ---------------------------------------


    POTLOK:  cpu time    0.0352: real time    0.0352
    SETDIJ:  cpu time    0.0027: real time    0.0027
     EDDAV:  cpu time    2.4047: real time    2.4048
       DOS:  cpu time    0.0018: real time    0.0018
    CHARGE:  cpu time    0.1258: real time    0.1258
    MIXING:  cpu time    0.0012: real time    0.0012
    --------------------------------------------
      LOOP:  cpu time    2.5715: real time    2.5717

 eigenvalue-minimisations  :  3992
 total energy-change (2. order) :-0.1148148E-03  (-0.8070547E-06)
 number of electron      36.0000000 magnetization 
 augmentation part       -2.3731122 magnetization 

 DIPCOR: dipole corrections for dipol
 direction  3 min pos     1,
 dipolmoment           0.000000      0.000000      0.000004 electrons x Angstroem
 Tr[quadrupol]      -141.884569

 energy correction for charged system         0.000000 eV
 dipol+quadrupol energy correction           -0.000000 eV
 added-field ion interaction         -0.000000 eV  (added to PSCEN)


 Broyden mixing:
  rms(total) = 0.92723E-03    rms(broyden)= 0.92723E-03
  rms(prec ) = 0.11980E-02
  weight for this iteration     100.00

 eigenvalues of (default mixing * dielectric matrix)
  average eigenvalue GAMMA=   1.5659
  5.1219  2.6678  2.3872  1.6889  1.6889  1.0040  1.0040  0.6039  0.6039  0.8198
  0.8198  0.3812

 Free energy of the ion-electron system (eV)
  ---------------------------------------------------
  alpha Z        PSCENC =        14.52392644
  Ewald energy   TEWEN  =      6920.69103979
  -Hartree energ DENC   =     -8127.97356533
  -exchange      EXHF   =         0.00000000
  -V(xc)+E(xc)   XCENC  =      -231.71269571
  PAW double counting   =      2851.20756224    -2557.95984471
  entropy T*S    EENTRO =        -0.00644920
  eigenvalues    EBANDS =      -232.73602107
  atomic energy  EATOM  =      1328.12079387
  Solvation  Ediel_sol  =         0.00000000
  ---------------------------------------------------
  free energy    TOTEN  =       -35.84525369 eV

  energy without entropy =      -35.83880449  energy(sigma->0) =      -35.84202909


--------------------------------------------------------------------------------------------------------




--------------------------------------- Iteration      1(  18)  ---------------------------------------


    POTLOK:  cpu time    0.0374: real time    0.0374
    SETDIJ:  cpu time    0.0027: real time    0.0027
     EDDAV:  cpu time    2.4358: real time    2.4359
       DOS:  cpu time    0.0019: real time    0.0019
    CHARGE:  cpu time    0.1265: real time    0.1265
    MIXING:  cpu time    0.0013: real time    0.0013
    --------------------------------------------
      LOOP:  cpu time    2.6055: real time    2.6056

 eigenvalue-minimisations  :  4032
 total energy-change (2. order) :-0.1693165E-03  (-0.2653403E-05)
 number of electron      36.0000000 magnetization 
 augmentation part       -2.3732884 magnetization 

 DIPCOR: dipole corrections for dipol
 direction  3 min pos     1,
 dipolmoment           0.000000      0.000000     -0.000006 electrons x Angstroem
 Tr[quadrupol]      -141.905394

 energy correction for charged system         0.000000 eV
 dipol+quadrupol energy correction           -0.000000 eV
 added-field ion interaction          0.000000 eV  (added to PSCEN)


 Broyden mixing:
  rms(total) = 0.15159E-02    rms(broyden)= 0.15159E-02
  rms(prec ) = 0.15570E-02
  weight for this iteration     100.00

 eigenvalues of (default mixing * dielectric matrix)
  average eigenvalue GAMMA=   1.5814
  5.4314  2.6262  2.5961  1.4660  1.4660  1.4325  1.4325  0.6039  0.6039  0.8762
  0.8762  0.7662  0.3811

 Free energy of the ion-electron system (eV)
  ---------------------------------------------------
  alpha Z        PSCENC =        14.52392644
  Ewald energy   TEWEN  =      6920.69103979
  -Hartree energ DENC   =     -8128.38605889
  -exchange      EXHF   =         0.00000000
  -V(xc)+E(xc)   XCENC  =      -231.70991149
  PAW double counting   =      2852.24998624    -2559.00255723
  entropy T*S    EENTRO =        -0.00645060
  eigenvalues    EBANDS =      -232.32619114
  atomic energy  EATOM  =      1328.12079387
  Solvation  Ediel_sol  =         0.00000000
  ---------------------------------------------------
  free energy    TOTEN  =       -35.84542300 eV

  energy without entropy =      -35.83897241  energy(sigma->0) =      -35.84219771


--------------------------------------------------------------------------------------------------------




--------------------------------------- Iteration      1(  19)  ---------------------------------------


    POTLOK:  cpu time    0.0387: real time    0.0387
    SETDIJ:  cpu time    0.0028: real time    0.0028
     EDDAV:  cpu time    2.2896: real time    2.2897
       DOS:  cpu time    0.0018: real time    0.0018
    CHARGE:  cpu time    0.1260: real time    0.1260
    MIXING:  cpu time    0.0013: real time    0.0013
    --------------------------------------------
      LOOP:  cpu time    2.4602: real time    2.4603

 eigenvalue-minimisations  :  3592
 total energy-change (2. order) :-0.6190022E-04  (-0.3073220E-06)
 number of electron      36.0000000 magnetization 
 augmentation part       -2.3732700 magnetization 

 DIPCOR: dipole corrections for dipol
 direction  3 min pos     1,
 dipolmoment           0.000000      0.000000      0.000008 electrons x Angstroem
 Tr[quadrupol]      -141.907864

 energy correction for charged system         0.000000 eV
 dipol+quadrupol energy correction           -0.000000 eV
 added-field ion interaction         -0.000000 eV  (added to PSCEN)


 Broyden mixing:
  rms(total) = 0.44062E-03    rms(broyden)= 0.44062E-03
  rms(prec ) = 0.51007E-03
  weight for this iteration     100.00

 eigenvalues of (default mixing * dielectric matrix)
  average eigenvalue GAMMA=   1.7155
  6.2106  3.3973  2.5413  1.9096  1.9096  1.7508  1.0952  1.0952  0.6039  0.6039
  0.8666  0.8666  0.7854  0.3811

 Free energy of the ion-electron system (eV)
  ---------------------------------------------------
  alpha Z        PSCENC =        14.52392644
  Ewald energy   TEWEN  =      6920.69103979
  -Hartree energ DENC   =     -8128.47212267
  -exchange      EXHF   =         0.00000000
  -V(xc)+E(xc)   XCENC  =      -231.71002904
  PAW double counting   =      2851.00782144    -2557.76112531
  entropy T*S    EENTRO =        -0.00645098
  eigenvalues    EBANDS =      -232.23933844
  atomic energy  EATOM  =      1328.12079387
  Solvation  Ediel_sol  =         0.00000000
  ---------------------------------------------------
  free energy    TOTEN  =       -35.84548490 eV

  energy without entropy =      -35.83903393  energy(sigma->0) =      -35.84225942


[...]
     13      -3.9948      2.00000
     14      -3.7459      2.00000
     15      -3.4198      2.00000
     16      -3.1788      2.00000
     17      -3.1445      2.00000
     18      -2.6696      2.00000
     19      -0.7999      0.00000
     20      -0.4672      0.00000
     21      -0.1835      0.00000
     22       0.0250      0.00000
     23       0.4188      0.00000
     24       0.5272      0.00000

 k-point    59 :      -0.1111    0.4000    0.0000
  band No.  band energies     occupation 
      1     -12.9368      2.00000
      2     -12.6549      2.00000
      3     -12.2846      2.00000
      4     -11.9790      2.00000
      5      -6.8904      2.00000
      6      -6.4857      2.00000
      7      -6.3708      2.00000
      8      -5.8694      2.00000
      9      -5.4155      2.00000
     10      -5.0715      2.00000
     11      -4.8887      2.00000
     12      -4.7100      2.00000
     13      -4.1316      2.00000
     14      -3.8284      2.00000
     15      -3.4180      2.00000
     16      -3.3752      2.00000
     17      -3.0532      2.00000
     18      -2.6387      2.00000
     19      -0.8005      0.00000
     20      -0.5290      0.00000
     21      -0.2300      0.00000
     22      -0.0065      0.00000
     23       0.2505      0.00000
     24       0.4657      0.00000

 k-point    60 :       0.0000    0.4667    0.0000
  band No.  band energies     occupation 
      1     -12.5811      2.00000
      2     -12.4967      2.00000
      3     -12.2244      2.00000
      4     -12.0996      2.00000
      5      -6.7721      2.00000
      6      -6.6572      2.00000
      7      -6.4474      2.00000
      8      -6.3117      2.00000
      9      -5.4218      2.00000
     10      -5.4168      2.00000
     11      -4.5419      2.00000
     12      -4.4140      2.00000
     13      -4.1979      2.00000
     14      -4.1051      2.00000
     15      -3.4297      2.00000
     16      -3.3220      2.00000
     17      -3.1289      2.00000
     18      -2.9665      2.00000
     19      -0.5685      0.00000
     20      -0.5239      0.00000
     21      -0.1504      0.00000
     22      -0.1490      0.00000
     23       0.1710      0.00000
     24       0.3550      0.00000

 k-point    61 :       0.1111    0.4667    0.0000
  band No.  band energies     occupation 
      1     -12.5802      2.00000
      2     -12.4917      2.00000
      3     -12.2301      2.00000
      4     -12.0890      2.00000
      5      -6.9446      2.00000
      6      -6.7187      2.00000
      7      -6.4764      2.00000
      8      -6.2845      2.00000
      9      -5.3831      2.00000
     10      -5.2678      2.00000
     11      -4.5562      2.00000
     12      -4.3856      2.00000
     13      -4.1633      2.00000
     14      -4.0846      2.00000
     15      -3.3550      2.00000
     16      -3.2954      2.00000
     17      -3.1658      2.00000
     18      -2.9420      2.00000
     19      -0.5714      0.00000
     20      -0.4870      0.00000
     21      -0.1251      0.00000
     22      -0.0925      0.00000
     23       0.1949      0.00000
     24       0.3488      0.00000

 k-point    62 :       0.2222    0.4667    0.0000
  band No.  band energies     occupation 
      1     -12.5746      2.00000
      2     -12.4858      2.00000
      3     -12.2345      2.00000
      4     -12.0687      2.00000
      5      -7.1909      2.00000
      6      -6.9609      2.00000
      7      -6.4873      2.00000
      8      -6.2983      2.00000
      9      -5.2067      2.00000
     10      -5.0778      2.00000
     11      -4.5829      2.00000
     12      -4.3790      2.00000
     13      -4.0022      2.00000
     14      -3.9524      2.00000
     15      -3.3932      2.00000
     16      -3.2998      2.00000
     17      -3.0485      2.00000
     18      -2.8368      2.00000
     19      -0.5716      0.00000
     20      -0.4524      0.00000
     21      -0.0240      0.00000
     22       0.0079      0.00000
     23       0.3025      0.00000
     24       0.3507      0.00000

 k-point    63 :       0.3333    0.4667    0.0000
  band No.  band energies     occupation 
      1     -12.5611      2.00000
      2     -12.4925      2.00000
      3     -12.2254      2.00000
      4     -12.0532      2.00000
      5      -7.3795      2.00000
      6      -7.1949      2.00000
      7      -6.5104      2.00000
      8      -6.3382      2.00000
      9      -5.0710      2.00000
     10      -5.0072      2.00000
     11      -4.4753      2.00000
     12      -4.3287      2.00000
     13      -3.8459      2.00000
     14      -3.8197      2.00000
     15      -3.4705      2.00000
     16      -3.3979      2.00000
     17      -2.7977      2.00000
     18      -2.6795      2.00000
     19      -0.5823      0.00000
     20      -0.4605      0.00000
     21       0.0145      0.00000
     22       0.1531      0.00000
     23       0.3685      0.00000
     24       0.5332      0.00000

 k-point    64 :       0.4444    0.4667    0.0000
  band No.  band energies     occupation 
      1     -12.5415      2.00000
      2     -12.5108      2.00000
      3     -12.2122      2.00000
      4     -12.0468      2.00000
      5      -7.4725      2.00000
      6      -7.3363      2.00000
      7      -6.5270      2.00000
      8      -6.3660      2.00000
      9      -5.0579      2.00000
     10      -4.9943      2.00000
     11      -4.2734      2.00000
     12      -4.1970      2.00000
     13      -3.9584      2.00000
     14      -3.7925      2.00000
     15      -3.4359      2.00000
     16      -3.4243      2.00000
     17      -2.6198      2.00000
     18      -2.5633      2.00000
     19      -0.5983      0.00000
     20      -0.4806      0.00000
     21       0.0163      0.00000
     22       0.2324      0.00000
     23       0.4346      0.00000
     24       0.7079      0.00000

 k-point    65 :      -0.4444    0.4667    0.0000
  band No.  band energies     occupation 
      1     -12.5415      2.00000
      2     -12.5108      2.00000
      3     -12.2122      2.00000
      4     -12.0468      2.00000
      5      -7.4725      2.00000
      6      -7.3363      2.00000
      7      -6.5270      2.00000
      8      -6.3660      2.00000
      9      -5.0579      2.00000
     10      -4.9943      2.00000
     11      -4.2734      2.00000
     12      -4.1970      2.00000
     13      -3.9584      2.00000
     14      -3.7925      2.00000
     15      -3.4359      2.00000
     16      -3.4243      2.00000
     17      -2.6198      2.00000
     18      -2.5633      2.00000
     19      -0.5983      0.00000
     20      -0.4806      0.00000
     21       0.0163      0.00000
     22       0.2324      0.00000
     23       0.4346      0.00000
     24       0.7079      0.00000

 k-point    66 :      -0.3333    0.4667    0.0000
  band No.  band energies     occupation 
      1     -12.5611      2.00000
      2     -12.4925      2.00000
      3     -12.2254      2.00000
      4     -12.0532      2.00000
      5      -7.3795      2.00000
      6      -7.1949      2.00000
      7      -6.5104      2.00000
      8      -6.3382      2.00000
      9      -5.0710      2.00000
     10      -5.0072      2.00000
     11      -4.4753      2.00000
     12      -4.3287      2.00000
     13      -3.8459      2.00000
     14      -3.8197      2.00000
     15      -3.4705      2.00000
     16      -3.3979      2.00000
     17      -2.7977      2.00000
     18      -2.6795      2.00000
     19      -0.5823      0.00000
     20      -0.4605      0.00000
     21       0.0145      0.00000
     22       0.1531      0.00000
     23       0.3685      0.00000
     24       0.5332      0.00000

 k-point    67 :      -0.2222    0.4667    0.0000
  band No.  band energies     occupation 
      1     -12.5746      2.00000
      2     -12.4858      2.00000
      3     -12.2345      2.00000
      4     -12.0687      2.00000
      5      -7.1909      2.00000
      6      -6.9609      2.00000
      7      -6.4873      2.00000
      8      -6.2983      2.00000
      9      -5.2067      2.00000
     10      -5.0778      2.00000
     11      -4.5829      2.00000
     12      -4.3790      2.00000
     13      -4.0022      2.00000
     14      -3.9524      2.00000
     15      -3.3932      2.00000
     16      -3.2998      2.00000
     17      -3.0485      2.00000
     18      -2.8368      2.00000
     19      -0.5716      0.00000
     20      -0.4524      0.00000
     21      -0.0240      0.00000
     22       0.0079      0.00000
     23       0.3025      0.00000
     24       0.3507      0.00000

 k-point    68 :      -0.1111    0.4667    0.0000
  band No.  band energies     occupation 
      1     -12.5802      2.00000
      2     -12.4917      2.00000
      3     -12.2301      2.00000
      4     -12.0890      2.00000
      5      -6.9446      2.00000
      6      -6.7187      2.00000
      7      -6.4764      2.00000
      8      -6.2845      2.00000
      9      -5.3831      2.00000
     10      -5.2678      2.00000
     11      -4.5562      2.00000
     12      -4.3856      2.00000
     13      -4.1633      2.00000
     14      -4.0846      2.00000
     15      -3.3550      2.00000
     16      -3.2954      2.00000
     17      -3.1658      2.00000
     18      -2.9420      2.00000
     19      -0.5714      0.00000
     20      -0.4870      0.00000
     21      -0.1251      0.00000
     22      -0.0925      0.00000
     23       0.1949      0.00000
     24       0.3488      0.00000


--------------------------------------------------------------------------------------------------------


 soft charge-density along one line, spin component           1
         0         1         2         3         4         5         6         7         8         9
 total charge-density along one line
 
 pseudopotential strength for first ion, spin component:           1
 -9.567   0.027  -0.000  -0.000  -0.000  -9.757   0.027  -0.000
  0.027  -9.574  -0.000   0.000   0.000   0.027  -9.764  -0.000
 -0.000  -0.000  -9.550   0.010  -0.021  -0.000  -0.000  -9.740
 -0.000   0.000   0.010  -9.561   0.016  -0.000   0.000   0.010
 -0.000   0.000  -0.021   0.016  -9.592  -0.000   0.000  -0.021
 -9.757   0.027  -0.000  -0.000  -0.000  -9.936   0.027  -0.000
  0.027  -9.764  -0.000   0.000   0.000   0.027  -9.943  -0.000
 -0.000  -0.000  -9.740   0.010  -0.021  -0.000  -0.000  -9.919
 -0.000   0.000   0.010  -9.751   0.016  -0.000   0.000   0.010
 -0.000   0.000  -0.021   0.016  -9.781  -0.000   0.000  -0.021
 -0.000   0.000  -0.006  -0.016  -0.011  -0.000   0.000  -0.006
 -0.000   0.000  -0.012  -0.033  -0.023  -0.000   0.000  -0.012
 -0.004  -0.006   0.000  -0.000   0.000  -0.004  -0.007   0.000
 -0.000  -0.000  -0.002   0.002   0.004  -0.000  -0.000  -0.002
 -0.000  -0.000   0.005   0.002  -0.003  -0.000  -0.000   0.006
 -0.004  -0.008   0.000  -0.000   0.000  -0.004  -0.009   0.000
 -0.000  -0.000  -0.003   0.005   0.005  -0.000  -0.000  -0.003
 -0.000  -0.000   0.006   0.001  -0.002  -0.000  -0.000   0.006
 total augmentation occupancy for first ion, spin component:           1
  1.326  -0.747  -0.000   0.000   0.000  -1.742   1.075   0.000  -0.000  -0.000  -0.000   0.000  -0.047  -0.000  -0.000   0.005
 -0.747   2.229   0.000   0.000   0.000   1.073  -2.815  -0.000  -0.000  -0.000  -0.000  -0.000   0.132  -0.000  -0.000  -0.018
 -0.000   0.000   1.149   0.056  -0.055  -0.000  -0.000  -1.480  -0.072   0.020  -0.169   0.022   0.000   0.047  -0.074  -0.000
  0.000   0.000   0.056   2.336   0.706  -0.000  -0.000  -0.073  -3.003  -0.906  -0.021   0.009  -0.000  -0.130  -0.104   0.000
  0.000   0.000  -0.055   0.706   1.386  -0.000  -0.000   0.026  -0.911  -1.883  -0.008   0.010   0.000  -0.108  -0.002  -0.000
 -1.742   1.073  -0.000  -0.000  -0.000   3.194  -1.307   0.000   0.000   0.000   0.000  -0.000   0.093   0.000   0.000  -0.012
  1.075  -2.815  -0.000  -0.000  -0.000  -1.307   4.355   0.000   0.000   0.000   0.000   0.000  -0.147   0.000   0.000   0.017
  0.000  -0.000  -1.480  -0.073   0.026   0.000   0.000   2.811   0.096  -0.098   0.160  -0.027   0.000  -0.058   0.039   0.000
 -0.000  -0.000  -0.072  -3.003  -0.911   0.000   0.000   0.096   4.495   1.124   0.018  -0.023   0.000   0.140   0.117   0.000
 -0.000  -0.000   0.020  -0.906  -1.883   0.000   0.000  -0.098   1.124   3.099   0.104  -0.020  -0.000   0.124  -0.016   0.000
 -0.000  -0.000  -0.169  -0.021  -0.008   0.000   0.000   0.160   0.018   0.104   1.544  -0.093  -0.000  -0.017   0.057  -0.000
  0.000  -0.000   0.022   0.009   0.010  -0.000   0.000  -0.027  -0.023  -0.020  -0.093   0.007   0.000   0.001  -0.002  -0.000
 -0.047   0.132   0.000  -0.000   0.000   0.093  -0.147   0.000   0.000  -0.000  -0.000   0.000   0.265   0.000   0.000  -0.032
 -0.000  -0.000   0.047  -0.130  -0.108   0.000   0.000  -0.058   0.140   0.124  -0.017   0.001   0.000   0.300  -0.003  -0.000
 -0.000  -0.000  -0.074  -0.104  -0.002   0.000   0.000   0.039   0.117  -0.016   0.057  -0.002   0.000  -0.003   0.302   0.000
  0.005  -0.018  -0.000   0.000  -0.000  -0.012   0.017   0.000   0.000   0.000  -0.000  -0.000  -0.032  -0.000   0.000   0.004
  0.000   0.000  -0.006   0.017   0.014  -0.000  -0.000   0.007  -0.018  -0.015   0.002  -0.000  -0.000  -0.036   0.000   0.000
 -0.000   0.000   0.011   0.013  -0.001  -0.000  -0.000  -0.005  -0.014   0.001  -0.007   0.000   0.000   0.000  -0.036  -0.000


------------------------ aborting loop because EDIFF is reached ----------------------------------------


    CHARGE:  cpu time    0.1288: real time    0.1288
    FORLOC:  cpu time    0.0023: real time    0.0023
    FORNL :  cpu time    0.2860: real time    0.2860
    STRESS:  cpu time    0.7378: real time    0.7378
    FORCOR:  cpu time    0.0395: real time    0.0395
    FORHAR:  cpu time    0.0100: real time    0.0100
    MIXING:  cpu time    0.0008: real time    0.0008
    OFIELD:  cpu time    0.0000: real time    0.0000

  FORCE on cell =-STRESS in cart. coord.  units (eV):
  Direction    XX          YY          ZZ          XY          YZ          ZX
  --------------------------------------------------------------------------------------
  Alpha Z    14.52393    14.52393    14.52393
  Ewald    7779.18605  7825.45670 -8813.75441     0.00000    -0.00000     1.31982
  Hartree  7941.72044  7967.82672 -7905.84902     0.00000    -0.00000     3.76282
  E(xc)    -150.91870  -149.43380  -152.46078    -0.00000     0.00000    -0.39210
  Local  -16265.34047-16322.92628 16169.42155    -0.00000     0.00000    -8.86254
  n-local   402.15318   393.07799   410.66812     0.00000    -0.00000    -1.63523
  augment   -86.48910   -83.89725   -88.21456    -0.00000     0.00000     0.38390
  Kinetic   365.38520   356.21666   365.65459    -0.00000    -0.00000     5.42408
  Fock        0.00000     0.00000     0.00000     0.00000     0.00000     0.00000
  -------------------------------------------------------------------------------------
  Total       0.22053     0.84467    -0.01058     0.00000    -0.00000     0.00075
  in kB       0.57917     2.21836    -0.02779     0.00000    -0.00000     0.00198
  external pressure =        0.92 kB  Pullay stress =        0.00 kB


 VOLUME and BASIS-vectors are now :
 -----------------------------------------------------------------------------
  energy-cutoff  :      600.00
  volume of cell :      610.05
      direct lattice vectors                 reciprocal lattice vectors
     6.394026711  0.000000000  0.000000000     0.156395968  0.000000000  0.000000000
     0.000000000  3.407492017  0.000000000     0.000000000  0.293470974  0.000000000
     0.000000000  0.000000000 28.000000000     0.000000000  0.000000000  0.035714286

  length of vectors
     6.394026711  3.407492017 28.000000000     0.156395968  0.293470974  0.035714286


 FORCES acting on ions
    electron-ion (+dipol)            ewald-force                    non-local-force                 convergence-correction
 -----------------------------------------------------------------------------------------------
   0.341E+02 0.149E-08 0.167E+02   -.337E+02 -.991E-08 -.167E+02   -.465E+00 0.138E-07 -.570E-01   0.237E-03 0.757E-08 -.113E-03
   -.341E+02 -.156E-06 -.167E+02   0.337E+02 0.202E-06 0.167E+02   0.465E+00 0.678E-08 0.571E-01   0.299E-03 -.212E-07 0.948E-04
   -.627E+01 -.108E-06 0.386E+03   0.648E+01 0.121E-06 -.393E+03   -.212E+00 0.212E-07 0.650E+01   -.390E-03 -.320E-08 0.757E-04
   0.425E+01 0.611E-07 0.516E+03   -.357E+01 -.341E-07 -.520E+03   -.680E+00 -.222E-07 0.403E+01   0.278E-03 -.565E-08 -.299E-04
   0.628E+01 -.208E-07 -.386E+03   -.649E+01 -.541E-09 0.393E+03   0.212E+00 0.116E-07 -.650E+01   -.391E-03 0.564E-08 0.165E-03
   -.425E+01 0.290E-06 -.516E+03   0.357E+01 -.278E-06 0.520E+03   0.680E+00 -.965E-07 -.403E+01   0.313E-03 0.336E-08 -.160E-03
 -----------------------------------------------------------------------------------------------
   -.632E-03 0.682E-07 0.217E-03   -.844E-14 0.199E-13 0.000E+00   0.338E-03 -.653E-07 -.649E-03   0.347E-03 -.135E-07 0.319E-04
 
 
 POSITION                                       TOTAL-FORCE (eV/Angst)
 -----------------------------------------------------------------------------------
     -0.00036     -0.00000     13.91242         0.000233      0.000000     -0.000171
      2.33087      1.70375     14.08756        -0.000289      0.000000      0.000607
      3.92693     -0.00000     12.50968        -0.000449      0.000000      0.000163
      0.67442      1.70375     11.93182         0.000320      0.000000     -0.000553
      4.79762      1.70375     15.49032         0.000247     -0.000000     -0.000075
      1.65604      0.00000     16.06821        -0.000061     -0.000000      0.000029
 -----------------------------------------------------------------------------------
    total drift:                                0.000053     -0.000000     -0.000400


--------------------------------------------------------------------------------------------------------



  FREE ENERGIE OF THE ION-ELECTRON SYSTEM (eV)
  ---------------------------------------------------
  free  energy   TOTEN  =       -35.97667586 eV

  energy  without entropy=      -35.96858027  energy(sigma->0) =      -35.97262806
 
 d Force =-0.1535388E-08[-0.107E-07, 0.768E-08]  d Energy = 0.3877767E-07-0.403E-07
 d Force = 0.2796999E-02[ 0.280E-02, 0.280E-02]  d Ewald  = 0.2796999E-02 0.709E-10


--------------------------------------------------------------------------------------------------------


    POTLOK:  cpu time    0.0398: real time    0.0398


--------------------------------------------------------------------------------------------------------




--------------------------------------------------------------------------------------------------------


  
 reached required accuracy - stopping structural energy minimisation
 writing wavefunctions
     LOOP+:  cpu time    7.0788: real time    7.1316
    4ORBIT:  cpu time    0.0000: real time    0.0000

 total amount of memory used by VASP MPI-rank0    69675. kBytes
=======================================================================

   base      :      30000. kBytes
   nonl-proj :      25032. kBytes
   fftplans  :       2370. kBytes
   grid      :       3824. kBytes
   one-center:         15. kBytes
   wavefun   :       8434. kBytes
 
  
  
 General timing and accounting informations for this job:
 ========================================================
  
                  Total CPU time used (sec):      274.967
                            User time (sec):      268.186
                          System time (sec):        6.781
                         Elapsed time (sec):      277.579
  
                   Maximum memory used (kb):       82840.
                   Average memory used (kb):           0.
  
                          Minor page faults:        19079
                          Major page faults:           16
                 Voluntary context switches:          947
