LAMMPS (29 Sep 2021)
Processor partition = 4
# System Setup
    units    real
    dimension   3
    boundary    p p s
    atom_style  charge
    neigh_modify  delay 5
    atom_modify map array sort 0 0.0
    newton      on

# Read Data
    read_data ./image-0.lmp
Reading data file ...
  orthogonal box = (0.0000000 0.0000000 0.0000000) to (252.43931 94.898589 20.000000)
  8 by 2 by 1 MPI processor grid
  reading atoms ...
  8280 atoms
  read_data CPU = 0.047 seconds

# Force field setup
    pair_style reaxff NULL
    pair_coeff * * ./H-S-Mo.reaxff Mo S
    mass 1 95.75
    mass 2 32.06

# Molecular Static run setup
timestep 0.25  # metal 1=1ps; real 1=1fs

# Charge equllibrium step
    fix 0 all qeq/reaxff 1 0.0 10.0 1.0e-6 reaxff  # Charge equillibrium at each step

# Minimization
    thermo 10
    fix 1 all box/relax x 0.0 y 0.0 vmax 0.01
    thermo_style custom step pe lx ly lz pxx pyy pzz press
    min_style cg
    minimize 1e-10 1e-10 5000 10000

CITE-CITE-CITE-CITE-CITE-CITE-CITE-CITE-CITE-CITE-CITE-CITE-CITE

Your simulation uses code contributions which should be cited:

- pair reaxff command:

@Article{Aktulga12,
 author = {H. M. Aktulga, J. C. Fogarty, S. A. Pandit, A. Y. Grama},
 title = {Parallel reactive molecular dynamics: Numerical methods and algorithmic techniques},
 journal = {Parallel Computing},
 year =    2012,
 volume =  38,
 pages =   {245--259}
}

- fix qeq/reaxff command:

@Article{Aktulga12,
 author = {H. M. Aktulga, J. C. Fogarty, S. A. Pandit, A. Y. Grama},
 title = {Parallel reactive molecular dynamics: Numerical methods and algorithmic techniques},
 journal = {Parallel Computing},
 year =    2012,
 volume =  38,
 pages =   {245--259}
}

CITE-CITE-CITE-CITE-CITE-CITE-CITE-CITE-CITE-CITE-CITE-CITE-CITE

WARNING: Using 'neigh_modify every 1 delay 0 check yes' setting during minimization (../min.cpp:188)
Neighbor list info ...
  update every 1 steps, delay 0 steps, check yes
  max neighbors/atom: 2000, page size: 100000
  master list distance cutoff = 12
  ghost atom cutoff = 12
  binsize = 6, bins = 43 16 1
  2 neighbor lists, perpetual/occasional/extra = 2 0 0
  (1) pair reaxff, perpetual
      attributes: half, newton off, ghost
      pair build: half/bin/newtoff/ghost
      stencil: full/ghost/bin/3d
      bin: standard
  (2) fix qeq/reaxff, perpetual, copy from (1)
      attributes: half, newton off, ghost
      pair build: copy
      stencil: none
      bin: none
Per MPI rank memory allocation (min/avg/max) = 28.72 | 28.74 | 28.76 Mbytes
Step PotEng Lx Ly Lz Pxx Pyy Pzz Press 
       0   -927592.51    252.43931    94.898589    3.2398722    263.22187   -182.53557   -487.14416   -135.48595 
      10   -927600.17    252.44442     94.89767    3.2400857    8.7612198   -11.978463   -503.34046   -168.85257 
      20    -927601.1     252.4492      94.8971    3.2402204    -160.8388    60.138171   -433.81493   -178.17185 
      30   -927601.73    252.44938    94.897347    3.2403317   -88.796802     35.30265   -432.96278   -162.15231 
      40   -927602.29    252.45055    94.897434    3.2404364   -79.223635    30.880386   -414.81633   -154.38653 
      50   -927602.79    252.45177    94.897505    3.2405366   -76.583265     29.73946   -396.19145   -147.67842 
      60   -927603.26    252.45286     94.89759    3.2406325    -70.71146    27.852646   -379.72335   -140.86072 
      70   -927603.68    252.45383    94.897687    3.2407241    -62.41421    25.170887   -364.91945   -134.05426 
      80   -927604.07    252.45473    94.897791    3.2408115   -53.651302    21.996236   -351.00812    -127.5544 
      90   -927604.42    252.45563    94.897889     3.240895   -48.312269    19.926726   -336.74591   -121.71048 
     100   -927604.75    252.45651     94.89798    3.2409751   -45.123087    18.968475   -322.71157   -116.28873 
     110   -927605.04    252.45736    94.898073    3.2410516   -42.913443    17.688516    -308.7808   -111.33524 
     120   -927605.32    252.45816    94.898165    3.2411254   -39.634659      16.8417   -296.02589   -106.27295 
     130   -927605.57    252.45892    94.898258    3.2411958   -37.621543    15.586114   -283.08901   -101.70815 
     140    -927605.8    252.45964    94.898349     3.241264   -34.772478    14.715937   -271.04566   -97.034069 
     150   -927606.01    252.46034    94.898439    3.2413291    -32.83574      13.8502   -259.12739    -92.70431 
Loop time of 9.80773 on 16 procs for 150 steps with 8280 atoms

99.7% CPU use with 16 MPI tasks x no OpenMP threads

Minimization stats:
  Stopping criterion = energy tolerance
  Energy initial, next-to-last, final = 
      -927592.51395462  -927606.011729357  -927606.011675674
  Force two-norm initial, final = 400.71979 49.008029
  Force max component initial, final = 297.94937 37.167780
  Final line search alpha, max atom move = 0.00057860582 0.021505494
  Iterations, force evaluations = 150 300

MPI task timing breakdown:
Section |  min time  |  avg time  |  max time  |%varavg| %total
---------------------------------------------------------------
Pair    | 6.284      | 7.4526     | 8.2637     |  25.4 | 75.99
Neigh   | 0.45468    | 0.50097    | 0.52439    |   4.3 |  5.11
Comm    | 0.021403   | 0.7399     | 2.0044     |  81.5 |  7.54
Output  | 0.00053379 | 0.00055993 | 0.00068207 |   0.0 |  0.01
Modify  | 0.93687    | 0.96086    | 1.0061     |   3.0 |  9.80
Other   |            | 0.1529     |            |       |  1.56

Nlocal:        517.500 ave         525 max         510 min
Histogram: 8 0 0 0 0 0 0 0 0 8
Nghost:        855.000 ave         863 max         847 min
Histogram: 8 0 0 0 0 0 0 0 0 8
Neighs:        48525.0 ave       49147 max       47903 min
Histogram: 8 0 0 0 0 0 0 0 0 8

Total # of neighbors = 776400
Ave neighs/atom = 93.768116
Neighbor list builds = 253
Dangerous builds = 235
    reset_timestep	0
    fix 2 all neb 1.0 parallel ideal
    unfix 1

# NEB
    min_style quickmin
    variable u uloop 200
    dump  1 all atom 10 dump.neb.$u
    dump  1 all atom 10 dump.neb.5
    neb	  1e-6 1e-6 10000 10000 100 final ./image-1.cord
WARNING: Using 'neigh_modify every 1 delay 0 check yes' setting during minimization (../min.cpp:188)
Per MPI rank memory allocation (min/avg/max) = 28.61 | 28.65 | 28.68 Mbytes
Step PotEng Lx Ly Lz Pxx Pyy Pzz Press 
       0   -823115.26    252.46034    94.898439    3.2244616    423854.56    75185.753    131062.45    210034.26 
      10   -827143.45    252.46034    94.898439    3.2244616    377674.58     36772.91    188070.55    200839.35 
      20   -838204.15    252.46034    94.898439    3.2244616    243371.74    -67606.08    348552.67    174772.78 
      30   -853264.14    252.46034    94.898439    3.2244616    101269.34   -137523.08    459507.47    141084.58 
      40   -866657.21    252.46034    94.898439    3.2244616    70391.345   -17143.026    304267.56    119171.96 
      50   -873634.65    252.46034    94.898439    3.2244616    155183.85    185965.81    67832.802    136327.49 
      60   -876425.53    252.46034    94.898439    3.2244616    252943.46    269699.18   -36185.338    162152.43 
      70   -878852.58    252.46034    94.898439    3.2244616    277410.05    295851.77   -39627.314    177878.17 
      80   -881444.88    252.46034    94.898439    3.2244616    290231.25     302610.7   -25130.888    189237.02 
      90   -883936.77    252.46034    94.898439    3.2244616     290257.4    284747.29   -11622.989     187793.9 
     100   -885980.46    252.46034    94.898439    3.2244616    276584.45    272334.52   -4317.3111    181533.89 
     110   -886671.86    252.46034    94.898439    3.2244616     236716.6    252799.27   -17062.929    157484.31 
     120   -887147.86    252.46034    94.898439    3.2244616       235515    250458.56   -14097.837    157291.91 
     130   -887560.12    252.46034    94.898439    3.2244616    234167.37    249711.17   -11726.556       157384 
     140   -887850.32    252.46034    94.898439    3.2244616    233147.16    251250.15   -9433.3325    158321.33 
     150   -888034.08    252.46034    94.898439    3.2244616    233005.71    250997.18   -7264.5407    158912.78 
     160   -888148.22    252.46034    94.898439    3.2244616    233832.01    252033.45   -5271.6069    160197.95 
     170   -888277.43    252.46034    94.898439    3.2244616    234926.82    253855.59   -3363.1641    161806.42 
     180      -888382    252.46034    94.898439    3.2244616    235246.31    253517.54   -2530.2436    162077.87 
     190   -888483.93    252.46034    94.898439    3.2244616    235996.77    254730.41   -1713.1431    163004.68 
     200   -888596.31    252.46034    94.898439    3.2244616    236812.73    256025.92   -1039.9999    163932.88 
     210   -888718.89    252.46034    94.898439    3.2244616    237698.31    257398.98   -489.38568     164869.3 
     220      -888854    252.46034    94.898439    3.2244616    238763.24    258927.33   -39.824702    165883.58 
     230   -889007.87    252.46034    94.898439    3.2244616    240125.51    260665.98    313.48343    167034.99 
     240   -889203.11    252.46034    94.898439    3.2244616    241848.39    262881.88    594.22501     168441.5 
     250   -889488.73    252.46034    94.898439    3.2244616    243057.09    264738.14    756.82992    169517.36 
     260   -889772.02    252.46034    94.898439    3.2244616    242368.68    264455.59    1424.7663    169416.35 
     270   -890064.97    252.46034    94.898439    3.2244616    243154.07    265845.95    1978.5979    170326.21 
     280   -890402.88    252.46034    94.898439    3.2244616    241285.54    265641.07    2379.4252    169768.68 
     290   -890621.36    252.46034    94.898439    3.2244616    240726.94    266551.95    3064.8904    170114.59 
     300    -890914.7    252.46034    94.898439    3.2244616    241362.58    268310.48    3337.3609    171003.48 
     310   -891169.16    252.46034    94.898439    3.2244616    238973.48    267410.29    3582.3354     169988.7 
     320   -891329.19    252.46034    94.898439    3.2244616    238646.24    268314.14    3822.3571    170260.91 
     330   -891497.07    252.46034    94.898439    3.2244616    239322.66    269984.12    3930.3841    171079.05 
     340   -891686.98    252.46034    94.898439    3.2244616     240439.7    272101.39    4227.9618    172256.35 
     350   -891923.31    252.46034    94.898439    3.2244616    242153.83    274903.72    4595.4239    173884.33 
     360   -892255.89    252.46034    94.898439    3.2244616    245329.11    279031.97    4802.3618    176387.81 
     370   -892839.29    252.46034    94.898439    3.2244616    249056.82    283000.54    4842.6806    178966.68 
     380   -893599.31    252.46034    94.898439    3.2244616    246441.79    283011.78    5588.8259    178347.47 
     390   -894294.59    252.46034    94.898439    3.2244616    238791.41     281021.3    7544.5041    175785.74 
     400   -894902.55    252.46034    94.898439    3.2244616     231187.1     278696.2    8639.1281    172840.81 
     410   -895438.83    252.46034    94.898439    3.2244616    224214.25    276418.04    9223.5951    169951.96 
     420   -895916.32    252.46034    94.898439    3.2244616    217845.99    273921.95    9470.1435    167079.36 
     430   -896324.97    252.46034    94.898439    3.2244616    211663.75    268717.96    8770.1288    163050.61 
     440   -896582.06    252.46034    94.898439    3.2244616    207514.85    264430.47    8078.1192    160007.81 
     450   -896820.75    252.46034    94.898439    3.2244616    204823.77    262472.87    7839.0405    158378.56 
     460   -897033.74    252.46034    94.898439    3.2244616    202435.26     260687.2    7400.6618    156841.04 
     470    -897212.8    252.46034    94.898439    3.2244616    200397.78    259372.55     7254.108    155674.81 
     480   -897391.14    252.46034    94.898439    3.2244616    198620.16    258270.48    7182.3384    154690.99 
     490    -897558.3    252.46034    94.898439    3.2244616    197003.27    256907.34    7060.3966       153657 
     500    -897701.8    252.46034    94.898439    3.2244616    195508.22    255575.94     6877.158    152653.77 
     510   -897821.34    252.46034    94.898439    3.2244616    194208.56    254232.75     6640.966    151694.09 
     520   -897914.42    252.46034    94.898439    3.2244616    193246.78    253161.41    6462.9638    150957.05 
     530   -897993.58    252.46034    94.898439    3.2244616    192405.33    252271.15    6303.3037    150326.59 
     540   -898056.06    252.46034    94.898439    3.2244616    191727.19    251595.85    6227.3239    149850.12 
     550    -898116.2    252.46034    94.898439    3.2244616    191236.32    251008.69    6149.0135    149464.67 
     560   -898175.56    252.46034    94.898439    3.2244616    190794.64    250542.12    6107.8236    149148.19 
     570   -898225.98    252.46034    94.898439    3.2244616    190303.03    250006.97    6027.9858    148779.33 
     580   -898267.06    252.46034    94.898439    3.2244616    189931.18    249495.82    5969.5053     148465.5 
     590   -898307.74    252.46034    94.898439    3.2244616    189663.45    249010.02    5908.6883    148194.06 
     600   -898341.48    252.46034    94.898439    3.2244616    189436.24    248617.72    5876.0994    147976.69 
     610   -898368.77    252.46034    94.898439    3.2244616    189175.27    248245.84    5845.0422    147755.38 
     620   -898387.13    252.46034    94.898439    3.2244616    188945.07    247973.46    5844.4267    147587.65 
     630   -898401.28    252.46034    94.898439    3.2244616    188786.14    247771.39    5843.6493    147467.06 
     640   -898414.09    252.46034    94.898439    3.2244616    188666.68    247598.52    5842.0349    147369.08 
     650    -898425.7    252.46034    94.898439    3.2244616    188581.71    247460.58    5837.1404    147293.14 
     660   -898437.13    252.46034    94.898439    3.2244616    188514.69    247337.06     5827.596    147226.45 
     670   -898447.73    252.46034    94.898439    3.2244616    188440.04    247224.24    5821.8919    147162.06 
     680   -898456.46    252.46034    94.898439    3.2244616    188345.69    247120.89    5829.7597    147098.78 
     690   -898464.02    252.46034    94.898439    3.2244616    188255.07    247020.05    5839.6921    147038.27 
     691    -898464.8    252.46034    94.898439    3.2244616    188246.72    247009.02    5840.8537     147032.2 
Loop time of 25.1292 on 16 procs for 691 steps with 8280 atoms

99.7% CPU use with 16 MPI tasks x no OpenMP threads

Minimization stats:
  Stopping criterion = energy tolerance
  Energy initial, next-to-last, final = 
     -823115.257842347  -898464.023180511  -898464.803214752
  Force two-norm initial, final = 14067.292 113.25175
  Force max component initial, final = 236.68602 9.9486839
  Final line search alpha, max atom move = 0.0000000 0.0000000
  Iterations, force evaluations = 691 691

MPI task timing breakdown:
Section |  min time  |  avg time  |  max time  |%varavg| %total
---------------------------------------------------------------
Pair    | 14.159     | 17.646     | 19.905     |  46.1 | 70.22
Neigh   | 0          | 0          | 0          |   0.0 |  0.00
Comm    | 0.02937    | 2.0927     | 5.7869     | 131.4 |  8.33
Output  | 0.16312    | 0.16326    | 0.16382    |   0.0 |  0.65
Modify  | 4.5175     | 4.8661     | 5.2386     |  11.7 | 19.36
Other   |            | 0.3616     |            |       |  1.44

Nlocal:        517.500 ave         540 max         495 min
Histogram: 8 0 0 0 0 0 0 0 0 8
Nghost:        843.750 ave         878 max         810 min
Histogram: 8 0 0 0 0 0 0 0 0 8
Neighs:        49338.2 ave       51241 max       47426 min
Histogram: 8 0 0 0 0 0 0 0 0 8

Total # of neighbors = 789412
Ave neighs/atom = 95.339614
Neighbor list builds = 0
Dangerous builds = 0
WARNING: Using 'neigh_modify every 1 delay 0 check yes' setting during minimization (../min.cpp:188)
Per MPI rank memory allocation (min/avg/max) = 28.62 | 28.65 | 28.68 Mbytes
Step PotEng Lx Ly Lz Pxx Pyy Pzz Press 
     691    -898464.8    252.46034    94.898439    3.2752165    185329.55    243181.23    5750.1674    144753.65 
     697   -898464.94    252.46034    94.898439    3.2752165    185315.32    243155.36    5744.7441    144738.48 
Loop time of 0.248137 on 16 procs for 6 steps with 8280 atoms

99.7% CPU use with 16 MPI tasks x no OpenMP threads

Minimization stats:
  Stopping criterion = energy tolerance
  Energy initial, next-to-last, final = 
     -898464.803485293  -898464.784235209  -898464.941558584
  Force two-norm initial, final = 113.25046 113.19381
  Force max component initial, final = 9.9490935 9.8088239
  Final line search alpha, max atom move = 0.0000000 0.0000000
  Iterations, force evaluations = 6 6

MPI task timing breakdown:
Section |  min time  |  avg time  |  max time  |%varavg| %total
---------------------------------------------------------------
Pair    | 0.13958    | 0.17425    | 0.19881    |   4.9 | 70.22
Neigh   | 0          | 0          | 0          |   0.0 |  0.00
Comm    | 0.00025862 | 0.019084   | 0.05171    |  13.0 |  7.69
Output  | 0          | 0          | 0          |   0.0 |  0.00
Modify  | 0.046956   | 0.052701   | 0.05857    |   2.1 | 21.24
Other   |            | 0.002106   |            |       |  0.85

Nlocal:        517.500 ave         540 max         495 min
Histogram: 5 0 0 3 0 0 3 0 0 5
Nghost:        853.500 ave         888 max         820 min
Histogram: 5 0 3 0 0 0 0 3 0 5
Neighs:        49540.7 ave       51814 max       47440 min
Histogram: 2 3 2 1 0 2 1 0 3 2

Total # of neighbors = 792651
Ave neighs/atom = 95.730797
Neighbor list builds = 0
Dangerous builds = 0
Total wall time: 0:00:35
