LAMMPS (29 Sep 2021)
Running on 7 partitions of processors
Step MaxReplicaForce MaxAtomForce GradV0 GradV1 GradVc EBF EBR RDT RD1 PE1 RD2 PE2 ... RDN PEN
0    14067.292    56020.273     27.83192    10815.808    13323.818    123239.34    140890.64    96.106991            0   -927606.01   0.16666667   -850418.42   0.33333333   -807734.25          0.5   -804366.67   0.66666667   -823115.26   0.83333333   -880499.27            1   -945257.31 
100     1186.596    316.40375    7.2132171     400.0579    631.16399    46425.012     81576.45    114.15007            0   -927607.93   0.18964436   -897696.83   0.35207594   -881182.92   0.49765611   -883286.88   0.64686562   -885980.46   0.78818319    -924627.9            1   -962759.37 
200    280.56101    43.128776    1.2032578    28.111607      246.163    44368.557    79708.828    123.51775            0    -927608.2   0.20113472   -902382.15    0.3681557   -883239.64   0.50457858   -884744.56   0.64797196   -888596.31   0.77356687   -927501.21            1   -962948.47 
300    560.97626    2716.4959   0.36106952    7.2221513     206.7253     44026.21    79369.698    126.44638            0   -927608.21   0.19493568    -902814.4   0.36725051      -883582   0.50135525   -884842.16   0.64200467    -890914.7   0.76608729   -928648.76            1    -962951.7 
400    581.53946    1514.1988  0.081824812    1.3144477    187.27698    43735.934    79079.642     131.9549            0   -927608.21   0.18225256   -903029.14   0.35794439   -883872.27   0.48733427   -884952.69   0.62110889   -894902.55    0.7538946    -930820.2            1   -962951.92 
500    254.38232    1789.8653  0.020410513   0.41661836    166.58112    43419.025    78762.742    136.86985            0   -927608.21   0.17101025   -903308.88   0.35224743   -884189.18    0.4778341   -884998.83   0.60574161    -897701.8   0.75020357   -931290.71            1   -962951.93 
600     167.5863    1140.7878  0.010316374   0.32372097     176.4543    43040.114    78383.834    140.33997            0   -927608.21   0.16407405   -903523.64   0.35252556    -884568.1   0.47580334   -885343.17   0.60121328   -898341.48   0.75174361   -931620.44            1   -962951.93 
691    131.09831    98.976312 0.0079913711   0.30390117    140.66699    42892.379    78236.099    141.69725            0   -927608.21   0.16195518   -903592.68    0.3534904   -884715.83    0.4759024   -885461.02   0.60052401    -898464.8   0.75243698   -931687.27            1   -962951.93 
Climbing replica = 3
Step MaxReplicaForce MaxAtomForce GradV0 GradV1 GradVc EBF EBR RDT RD1 PE1 RD2 PE2 ... RDN PEN
691    140.66628    98.984461 0.0083909446   0.30393729    140.66628    42892.378    78236.098    141.69725            0   -927608.21   0.16195518   -903592.67    0.3534904   -884715.83    0.4759024   -885461.02   0.60052401    -898464.8   0.75243698   -931687.27            1   -962951.93 
697    140.63797    96.213027 0.0085381605   0.30381833    140.63797    42892.223    78235.944    141.69943            0   -927608.21   0.16195201   -903592.74   0.35348984   -884715.99   0.47590421   -885461.13   0.60052411   -898464.94   0.75243838   -931687.34            1   -962951.93 
