LAMMPS (29 Sep 2021)
Processor partition = 2
# System Setup
    units    real
    dimension   3
    boundary    p p s
    atom_style  charge
    neigh_modify  delay 5
    atom_modify map array sort 0 0.0
    newton      on

# Read Data
    read_data ./image-0.lmp
Reading data file ...
  orthogonal box = (0.0000000 0.0000000 0.0000000) to (252.43931 94.898589 20.000000)
  8 by 2 by 1 MPI processor grid
  reading atoms ...
  8280 atoms
  read_data CPU = 0.053 seconds

# Force field setup
    pair_style reaxff NULL
    pair_coeff * * ./H-S-Mo.reaxff Mo S
    mass 1 95.75
    mass 2 32.06

# Molecular Static run setup
timestep 0.25  # metal 1=1ps; real 1=1fs

# Charge equllibrium step
    fix 0 all qeq/reaxff 1 0.0 10.0 1.0e-6 reaxff  # Charge equillibrium at each step

# Minimization
    thermo 10
    fix 1 all box/relax x 0.0 y 0.0 vmax 0.01
    thermo_style custom step pe lx ly lz pxx pyy pzz press
    min_style cg
    minimize 1e-10 1e-10 5000 10000

CITE-CITE-CITE-CITE-CITE-CITE-CITE-CITE-CITE-CITE-CITE-CITE-CITE

Your simulation uses code contributions which should be cited:

- pair reaxff command:

@Article{Aktulga12,
 author = {H. M. Aktulga, J. C. Fogarty, S. A. Pandit, A. Y. Grama},
 title = {Parallel reactive molecular dynamics: Numerical methods and algorithmic techniques},
 journal = {Parallel Computing},
 year =    2012,
 volume =  38,
 pages =   {245--259}
}

- fix qeq/reaxff command:

@Article{Aktulga12,
 author = {H. M. Aktulga, J. C. Fogarty, S. A. Pandit, A. Y. Grama},
 title = {Parallel reactive molecular dynamics: Numerical methods and algorithmic techniques},
 journal = {Parallel Computing},
 year =    2012,
 volume =  38,
 pages =   {245--259}
}

CITE-CITE-CITE-CITE-CITE-CITE-CITE-CITE-CITE-CITE-CITE-CITE-CITE

WARNING: Using 'neigh_modify every 1 delay 0 check yes' setting during minimization (../min.cpp:188)
Neighbor list info ...
  update every 1 steps, delay 0 steps, check yes
  max neighbors/atom: 2000, page size: 100000
  master list distance cutoff = 12
  ghost atom cutoff = 12
  binsize = 6, bins = 43 16 1
  2 neighbor lists, perpetual/occasional/extra = 2 0 0
  (1) pair reaxff, perpetual
      attributes: half, newton off, ghost
      pair build: half/bin/newtoff/ghost
      stencil: full/ghost/bin/3d
      bin: standard
  (2) fix qeq/reaxff, perpetual, copy from (1)
      attributes: half, newton off, ghost
      pair build: copy
      stencil: none
      bin: none
Per MPI rank memory allocation (min/avg/max) = 28.72 | 28.74 | 28.76 Mbytes
Step PotEng Lx Ly Lz Pxx Pyy Pzz Press 
       0   -927592.51    252.43931    94.898589    3.2398722    263.22187   -182.53557   -487.14416   -135.48595 
      10   -927600.17    252.44442     94.89767    3.2400857    8.7612198   -11.978463   -503.34046   -168.85257 
      20    -927601.1     252.4492      94.8971    3.2402204    -160.8388    60.138171   -433.81493   -178.17185 
      30   -927601.73    252.44938    94.897347    3.2403317   -88.796802     35.30265   -432.96278   -162.15231 
      40   -927602.29    252.45055    94.897434    3.2404364   -79.223635    30.880386   -414.81633   -154.38653 
      50   -927602.79    252.45177    94.897505    3.2405366   -76.583265     29.73946   -396.19145   -147.67842 
      60   -927603.26    252.45286     94.89759    3.2406325    -70.71146    27.852646   -379.72335   -140.86072 
      70   -927603.68    252.45383    94.897687    3.2407241    -62.41421    25.170887   -364.91945   -134.05426 
      80   -927604.07    252.45473    94.897791    3.2408115   -53.651302    21.996236   -351.00812    -127.5544 
      90   -927604.42    252.45563    94.897889     3.240895   -48.312269    19.926726   -336.74591   -121.71048 
     100   -927604.75    252.45651     94.89798    3.2409751   -45.123087    18.968475   -322.71157   -116.28873 
     110   -927605.04    252.45736    94.898073    3.2410516   -42.913443    17.688516    -308.7808   -111.33524 
     120   -927605.32    252.45816    94.898165    3.2411254   -39.634659      16.8417   -296.02589   -106.27295 
     130   -927605.57    252.45892    94.898258    3.2411958   -37.621543    15.586114   -283.08901   -101.70815 
     140    -927605.8    252.45964    94.898349     3.241264   -34.772478    14.715937   -271.04566   -97.034069 
     150   -927606.01    252.46034    94.898439    3.2413291    -32.83574      13.8502   -259.12739    -92.70431 
Loop time of 10.1828 on 16 procs for 150 steps with 8280 atoms

99.6% CPU use with 16 MPI tasks x no OpenMP threads

Minimization stats:
  Stopping criterion = energy tolerance
  Energy initial, next-to-last, final = 
      -927592.51395462  -927606.011729357  -927606.011675674
  Force two-norm initial, final = 400.71979 49.008029
  Force max component initial, final = 297.94937 37.167780
  Final line search alpha, max atom move = 0.00057860582 0.021505494
  Iterations, force evaluations = 150 300

MPI task timing breakdown:
Section |  min time  |  avg time  |  max time  |%varavg| %total
---------------------------------------------------------------
Pair    | 6.2827     | 7.4771     | 8.6061     |  33.5 | 73.43
Neigh   | 0.45503    | 0.50167    | 0.54034    |   5.6 |  4.93
Comm    | 0.02707    | 1.059      | 2.3204     |  88.6 | 10.40
Output  | 0.00049604 | 0.00051424 | 0.00062015 |   0.0 |  0.01
Modify  | 0.96398    | 1.0037     | 1.0506     |   4.0 |  9.86
Other   |            | 0.1408     |            |       |  1.38

Nlocal:        517.500 ave         525 max         510 min
Histogram: 8 0 0 0 0 0 0 0 0 8
Nghost:        855.000 ave         863 max         847 min
Histogram: 8 0 0 0 0 0 0 0 0 8
Neighs:        48525.0 ave       49147 max       47903 min
Histogram: 8 0 0 0 0 0 0 0 0 8

Total # of neighbors = 776400
Ave neighs/atom = 93.768116
Neighbor list builds = 253
Dangerous builds = 235
    reset_timestep	0
    fix 2 all neb 1.0 parallel ideal
    unfix 1

# NEB
    min_style quickmin
    variable u uloop 200
    dump  1 all atom 10 dump.neb.$u
    dump  1 all atom 10 dump.neb.3
    neb	  1e-6 1e-6 10000 10000 100 final ./image-1.cord
WARNING: Using 'neigh_modify every 1 delay 0 check yes' setting during minimization (../min.cpp:188)
Per MPI rank memory allocation (min/avg/max) = 28.62 | 28.64 | 28.66 Mbytes
Step PotEng Lx Ly Lz Pxx Pyy Pzz Press 
       0   -807734.25    252.46034    94.898439    3.2328953    426811.81    4994.4868     159752.5    197186.27 
      10   -810793.38    252.46034    94.898439    3.2328953    387215.03   -27484.659    208500.93    189410.43 
      20    -819301.5    252.46034    94.898439    3.2328953    270206.25   -119996.16    354263.53    168157.87 
      30   -832420.57    252.46034    94.898439    3.2328953    118134.71   -213103.17    518994.33    141341.96 
      40   -851011.09    252.46034    94.898439    3.2328953    6078.4499   -140677.41    475788.84    113729.96 
      50   -864359.44    252.46034    94.898439    3.2328953    75240.428    142369.93    139795.81    119135.39 
      60   -870858.55    252.46034    94.898439    3.2328953     239236.7    285280.81   -40926.198     161197.1 
      70   -875006.98    252.46034    94.898439    3.2328953    278943.75    330287.53   -48939.082    186764.07 
      80   -877979.53    252.46034    94.898439    3.2328953    261666.07    348234.45   -33471.761    192142.92 
      90    -879896.5    252.46034    94.898439    3.2328953    251764.92    352075.92   -27294.238     192182.2 
     100   -881182.92    252.46034    94.898439    3.2328953    248978.13    359571.68   -15589.876    197653.31 
     110   -881618.84    252.46034    94.898439    3.2328953    244169.07    351877.28   -34437.148    187203.07 
     120   -881926.88    252.46034    94.898439    3.2328953    244271.27    354973.32   -29068.464    190058.71 
     130   -882224.56    252.46034    94.898439    3.2328953     244353.2    358552.73   -23273.875    193210.68 
     140   -882512.74    252.46034    94.898439    3.2328953    244393.64    362886.23   -16712.279    196855.87 
     150   -882768.88    252.46034    94.898439    3.2328953    243332.21    363767.84   -13347.046    197917.67 
     160   -882929.09    252.46034    94.898439    3.2328953    242263.55    365327.85   -10893.344    198899.35 
     170   -883054.43    252.46034    94.898439    3.2328953    241557.72    367353.16   -8215.1934    200231.89 
     180   -883129.83    252.46034    94.898439    3.2328953    240623.07    367184.45   -6923.5883    200294.64 
     190   -883187.93    252.46034    94.898439    3.2328953    239995.51    367981.82    -5400.664    200858.89 
     200   -883239.64    252.46034    94.898439    3.2328953    239293.37    368557.83   -4059.0458    201264.05 
     210   -883286.35    252.46034    94.898439    3.2328953    238540.81     368910.8   -2875.6957     201525.3 
     220   -883331.48    252.46034    94.898439    3.2328953    237747.72     369034.7   -1802.9041    201659.84 
     230   -883378.48    252.46034    94.898439    3.2328953    236902.69    368956.59   -920.00763    201646.42 
     240   -883423.18    252.46034    94.898439    3.2328953    236079.45    368837.71   -362.54563     201518.2 
     250   -883459.12    252.46034    94.898439    3.2328953    235419.09    368732.82    -32.54945    201373.12 
     260   -883488.96    252.46034    94.898439    3.2328953    234944.83    368810.55    247.46834    201334.28 
     270   -883513.34    252.46034    94.898439    3.2328953    234514.71    368800.97    474.19932    201263.29 
     280   -883534.91    252.46034    94.898439    3.2328953    234156.98    368954.76    715.87072    201275.87 
     290   -883559.45    252.46034    94.898439    3.2328953     233747.4    369088.77    986.36114    201274.17 
     300      -883582    252.46034    94.898439    3.2328953    233352.57    369099.12    1218.5228     201223.4 
     310   -883606.14    252.46034    94.898439    3.2328953    233035.16    369350.38    1460.1884    201281.91 
     320   -883634.06    252.46034    94.898439    3.2328953    232620.31    369495.71    1698.7365    201271.59 
     330   -883663.86    252.46034    94.898439    3.2328953    232167.41    369609.06    1914.9003    201230.46 
     340   -883695.55    252.46034    94.898439    3.2328953    231688.23     369717.6    2104.8546    201170.23 
     350   -883729.38    252.46034    94.898439    3.2328953     231169.6    369781.57    2262.8289    201071.33 
     360   -883763.12    252.46034    94.898439    3.2328953    230601.81    369619.82    2378.6883    200866.77 
     370   -883791.35    252.46034    94.898439    3.2328953    230066.23    369259.23    2447.8358     200591.1 
     380   -883816.05    252.46034    94.898439    3.2328953    229688.69    369208.16    2500.7023    200465.85 
     390   -883843.57    252.46034    94.898439    3.2328953    229329.64    369332.75    2550.9416    200404.45 
     400   -883872.27    252.46034    94.898439    3.2328953    228914.73       369446    2590.6473    200317.13 
     410   -883907.27    252.46034    94.898439    3.2328953    228464.07    369514.23     2624.223    200200.84 
     420   -883945.57    252.46034    94.898439    3.2328953    227978.34    369583.71    2645.1012    200069.05 
     430   -883982.64    252.46034    94.898439    3.2328953    227326.04    369194.24    2638.9268    199719.74 
     440   -884011.07    252.46034    94.898439    3.2328953    226797.13    368680.97    2623.6561    199367.25 
     450   -884037.44    252.46034    94.898439    3.2328953    226425.96    368546.54    2615.1687    199195.89 
     460   -884064.15    252.46034    94.898439    3.2328953    226067.49    368450.18    2604.6121    199040.76 
     470   -884091.83    252.46034    94.898439    3.2328953    225712.73    368387.79    2591.7097    198897.41 
     480   -884122.81    252.46034    94.898439    3.2328953    225342.13    368381.08    2577.8282    198767.01 
     490   -884155.41    252.46034    94.898439    3.2328953    224911.83    368242.83    2557.1585    198570.61 
     500   -884189.18    252.46034    94.898439    3.2328953    224467.18    368078.33     2535.242    198360.25 
     510   -884222.38    252.46034    94.898439    3.2328953    223979.55    367785.09    2509.9034    198091.51 
     520   -884253.08    252.46034    94.898439    3.2328953    223499.79    367428.91    2485.8052    197804.84 
     530   -884281.71    252.46034    94.898439    3.2328953    223096.62    367204.37    2471.3169    197590.77 
     540   -884311.44    252.46034    94.898439    3.2328953    222688.14    366967.95    2463.4044    197373.17 
     550    -884341.3    252.46034    94.898439    3.2328953    222277.72    366697.66    2468.2562    197147.88 
     560   -884374.73    252.46034    94.898439    3.2328953    221887.73    366456.48     2516.868    196953.69 
     570   -884415.43    252.46034    94.898439    3.2328953     221438.8    365983.58    2630.8193     196684.4 
     580   -884465.77    252.46034    94.898439    3.2328953    220954.66       365270    2781.1431    196335.27 
     590   -884522.26    252.46034    94.898439    3.2328953    220256.49    364606.48    2698.5697    195853.84 
     600    -884568.1    252.46034    94.898439    3.2328953    219360.92    364414.08    2333.5221    195369.51 
     610   -884599.15    252.46034    94.898439    3.2328953    218729.88    364392.48    2087.2799    195069.88 
     620   -884622.79    252.46034    94.898439    3.2328953    218323.37    364343.01    1962.7254    194876.37 
     630   -884642.07    252.46034    94.898439    3.2328953    218030.97    364270.14    1894.2056    194731.77 
     640   -884658.31    252.46034    94.898439    3.2328953    217806.13    364200.21     1852.082    194619.47 
     650   -884672.38    252.46034    94.898439    3.2328953    217621.92    364135.27     1823.658    194526.95 
     660   -884684.71    252.46034    94.898439    3.2328953    217465.58    364074.03    1802.0981    194447.23 
     670   -884695.67    252.46034    94.898439    3.2328953    217330.75     364018.5     1786.667    194378.64 
     680   -884705.71    252.46034    94.898439    3.2328953    217210.17    363967.06    1775.8364    194317.69 
     690   -884714.95    252.46034    94.898439    3.2328953    217099.52    363916.39    1767.5738    194261.16 
     691   -884715.83    252.46034    94.898439    3.2328953    217089.03    363911.48    1766.9863    194255.83 
Loop time of 25.1292 on 16 procs for 691 steps with 8280 atoms

99.6% CPU use with 16 MPI tasks x no OpenMP threads

Minimization stats:
  Stopping criterion = energy tolerance
  Energy initial, next-to-last, final = 
     -807734.249027897  -884714.950357995  -884715.831155887
  Force two-norm initial, final = 12246.032 131.09831
  Force max component initial, final = 204.35470 7.3854046
  Final line search alpha, max atom move = 0.0000000 0.0000000
  Iterations, force evaluations = 691 691

MPI task timing breakdown:
Section |  min time  |  avg time  |  max time  |%varavg| %total
---------------------------------------------------------------
Pair    | 13.829     | 16.644     | 19.324     |  53.5 | 66.23
Neigh   | 0          | 0          | 0          |   0.0 |  0.00
Comm    | 0.036118   | 2.4091     | 5.4347     | 139.4 |  9.59
Output  | 0.21597    | 0.21608    | 0.21663    |   0.0 |  0.86
Modify  | 5.2414     | 5.5507     | 5.8926     |  10.5 | 22.09
Other   |            | 0.3092     |            |       |  1.23

Nlocal:        517.500 ave         525 max         510 min
Histogram: 8 0 0 0 0 0 0 0 0 8
Nghost:        843.750 ave         863 max         825 min
Histogram: 8 0 0 0 0 0 0 0 0 8
Neighs:        48890.5 ave       49528 max       48253 min
Histogram: 8 0 0 0 0 0 0 0 0 8

Total # of neighbors = 782248
Ave neighs/atom = 94.474396
Neighbor list builds = 0
Dangerous builds = 0
WARNING: Using 'neigh_modify every 1 delay 0 check yes' setting during minimization (../min.cpp:188)
Per MPI rank memory allocation (min/avg/max) = 28.63 | 28.65 | 28.67 Mbytes
Step PotEng Lx Ly Lz Pxx Pyy Pzz Press 
     691   -884715.83    252.46034    94.898439    3.3109559    211970.87    355331.78     1725.051     189675.9 
     697   -884715.99    252.46034    94.898439    3.3109559    211945.97    355289.78    1720.2884    189652.01 
Loop time of 0.248142 on 16 procs for 6 steps with 8280 atoms

99.8% CPU use with 16 MPI tasks x no OpenMP threads

Minimization stats:
  Stopping criterion = energy tolerance
  Energy initial, next-to-last, final = 
     -884715.831680515  -884715.934575659  -884715.986419851
  Force two-norm initial, final = 140.66628 140.63797
  Force max component initial, final = 8.0175405 8.0089480
  Final line search alpha, max atom move = 0.0000000 0.0000000
  Iterations, force evaluations = 6 6

MPI task timing breakdown:
Section |  min time  |  avg time  |  max time  |%varavg| %total
---------------------------------------------------------------
Pair    | 0.13868    | 0.16595    | 0.19301    |   5.2 | 66.88
Neigh   | 0          | 0          | 0          |   0.0 |  0.00
Comm    | 0.00036578 | 0.023905   | 0.05391    |  13.6 |  9.63
Output  | 0          | 0          | 0          |   0.0 |  0.00
Modify  | 0.052627   | 0.056188   | 0.059783   |   1.2 | 22.64
Other   |            | 0.0021     |            |       |  0.85

Nlocal:        517.500 ave         525 max         510 min
Histogram: 8 0 0 0 0 0 0 0 0 8
Nghost:        850.625 ave         872 max         835 min
Histogram: 6 0 0 2 2 2 0 0 0 4
Neighs:        49600.6 ave       50267 max       48937 min
Histogram: 8 0 0 0 0 0 0 0 0 8

Total # of neighbors = 793609
Ave neighs/atom = 95.846498
Neighbor list builds = 0
Dangerous builds = 0
Total wall time: 0:00:35
