LAMMPS (29 Sep 2021)
Processor partition = 3
Reading data file ...
  orthogonal box = (0.0000000 0.0000000 0.0000000) to (252.43931 94.898589 20.000000)
  8 by 2 by 1 MPI processor grid
  reading atoms ...
  8280 atoms
  read_data CPU = 0.054 seconds

CITE-CITE-CITE-CITE-CITE-CITE-CITE-CITE-CITE-CITE-CITE-CITE-CITE

Your simulation uses code contributions which should be cited:
- pair reaxff command:
- fix qeq/reaxff command:
The log file lists these citations in BibTeX format.

CITE-CITE-CITE-CITE-CITE-CITE-CITE-CITE-CITE-CITE-CITE-CITE-CITE

WARNING: Using 'neigh_modify every 1 delay 0 check yes' setting during minimization (../min.cpp:188)
Neighbor list info ...
  update every 1 steps, delay 0 steps, check yes
  max neighbors/atom: 2000, page size: 100000
  master list distance cutoff = 12
  ghost atom cutoff = 12
  binsize = 6, bins = 43 16 1
  2 neighbor lists, perpetual/occasional/extra = 2 0 0
  (1) pair reaxff, perpetual
      attributes: half, newton off, ghost
      pair build: half/bin/newtoff/ghost
      stencil: full/ghost/bin/3d
      bin: standard
  (2) fix qeq/reaxff, perpetual, copy from (1)
      attributes: half, newton off, ghost
      pair build: copy
      stencil: none
      bin: none
Setting up cg style minimization ...
  Unit style    : real
  Current step  : 0
WARNING: Energy due to 3 extra global DOFs will be included in minimizer energies
Per MPI rank memory allocation (min/avg/max) = 28.72 | 28.74 | 28.76 Mbytes
Step PotEng Lx Ly Lz Pxx Pyy Pzz Press 
       0   -927592.51    252.43931    94.898589    3.2398722    263.22187   -182.53557   -487.14416   -135.48595 
      10   -927600.17    252.44442     94.89767    3.2400857    8.7612198   -11.978463   -503.34046   -168.85257 
      20    -927601.1     252.4492      94.8971    3.2402204    -160.8388    60.138171   -433.81493   -178.17185 
      30   -927601.73    252.44938    94.897347    3.2403317   -88.796802     35.30265   -432.96278   -162.15231 
      40   -927602.29    252.45055    94.897434    3.2404364   -79.223635    30.880386   -414.81633   -154.38653 
      50   -927602.79    252.45177    94.897505    3.2405366   -76.583265     29.73946   -396.19145   -147.67842 
      60   -927603.26    252.45286     94.89759    3.2406325    -70.71146    27.852646   -379.72335   -140.86072 
      70   -927603.68    252.45383    94.897687    3.2407241    -62.41421    25.170887   -364.91945   -134.05426 
      80   -927604.07    252.45473    94.897791    3.2408115   -53.651302    21.996236   -351.00812    -127.5544 
      90   -927604.42    252.45563    94.897889     3.240895   -48.312269    19.926726   -336.74591   -121.71048 
     100   -927604.75    252.45651     94.89798    3.2409751   -45.123087    18.968475   -322.71157   -116.28873 
     110   -927605.04    252.45736    94.898073    3.2410516   -42.913443    17.688516    -308.7808   -111.33524 
     120   -927605.32    252.45816    94.898165    3.2411254   -39.634659      16.8417   -296.02589   -106.27295 
     130   -927605.57    252.45892    94.898258    3.2411958   -37.621543    15.586114   -283.08901   -101.70815 
     140    -927605.8    252.45964    94.898349     3.241264   -34.772478    14.715937   -271.04566   -97.034069 
     150   -927606.01    252.46034    94.898439    3.2413291    -32.83574      13.8502   -259.12739    -92.70431 
Loop time of 10.1842 on 16 procs for 150 steps with 8280 atoms

99.6% CPU use with 16 MPI tasks x no OpenMP threads

Minimization stats:
  Stopping criterion = energy tolerance
  Energy initial, next-to-last, final = 
      -927592.51395462  -927606.011729357  -927606.011675674
  Force two-norm initial, final = 400.71979 49.008029
  Force max component initial, final = 297.94937 37.167780
  Final line search alpha, max atom move = 0.00057860582 0.021505494
  Iterations, force evaluations = 150 300

MPI task timing breakdown:
Section |  min time  |  avg time  |  max time  |%varavg| %total
---------------------------------------------------------------
Pair    | 6.0908     | 7.6771     | 8.6079     |  29.1 | 75.38
Neigh   | 0.45402    | 0.51213    | 0.54101    |   4.6 |  5.03
Comm    | 0.025357   | 0.7016     | 2.5483     |  88.5 |  6.89
Output  | 0.00067541 | 0.00070237 | 0.00080875 |   0.0 |  0.01
Modify  | 0.96437    | 0.99307    | 1.051      |   3.3 |  9.75
Other   |            | 0.2996     |            |       |  2.94

Nlocal:        517.500 ave         525 max         510 min
Histogram: 8 0 0 0 0 0 0 0 0 8
Nghost:        855.000 ave         863 max         847 min
Histogram: 8 0 0 0 0 0 0 0 0 8
Neighs:        48525.0 ave       49147 max       47903 min
Histogram: 8 0 0 0 0 0 0 0 0 8

Total # of neighbors = 776400
Ave neighs/atom = 93.768116
Neighbor list builds = 253
Dangerous builds = 235
WARNING: Using 'neigh_modify every 1 delay 0 check yes' setting during minimization (../min.cpp:188)
Setting up quickmin style minimization ...
  Unit style    : real
  Current step  : 0
Per MPI rank memory allocation (min/avg/max) = 28.62 | 28.64 | 28.65 Mbytes
Step PotEng Lx Ly Lz Pxx Pyy Pzz Press 
       0   -804366.67    252.46034    94.898439    3.2286785    460425.21    79926.415    70279.998    203543.87 
      10    -807905.2    252.46034    94.898439    3.2286785    418442.97    44502.123    125345.66    196096.92 
      20    -817011.2    252.46034    94.898439    3.2286785    292658.53   -61346.528    280519.03    170610.34 
      30   -829832.65    252.46034    94.898439    3.2286785    143529.48   -173490.79    466170.17    145402.95 
      40   -850441.34    252.46034    94.898439    3.2286785    37778.839   -146954.92    498602.97    129808.96 
      50   -868263.89    252.46034    94.898439    3.2286785    108206.17    202306.58    130325.82    146946.19 
      60   -874458.86    252.46034    94.898439    3.2286785    268185.26    320666.16   -46363.338    180829.36 
      70   -877865.68    252.46034    94.898439    3.2286785    293601.21    345892.07   -46276.405    197738.96 
      80   -880488.49    252.46034    94.898439    3.2286785    275595.67    359110.64   -32853.247    200617.69 
      90   -882188.74    252.46034    94.898439    3.2286785    262107.15    360584.84   -27068.952    198541.01 
     100   -883286.88    252.46034    94.898439    3.2286785    254604.92    363956.91   -17510.476    200350.45 
     110    -883643.3    252.46034    94.898439    3.2286785    246135.01    355552.12   -27384.176    191434.32 
     120   -883887.94    252.46034    94.898439    3.2286785    244210.01    357069.28   -22864.996    192804.76 
     130   -884116.83    252.46034    94.898439    3.2286785    241980.64    358621.44   -18151.678    194150.13 
     140   -884327.54    252.46034    94.898439    3.2286785    239356.93     360284.6   -13211.608    195476.64 
     150   -884491.16    252.46034    94.898439    3.2286785    235617.77    359864.36   -10187.479    195098.22 
     160   -884577.88    252.46034    94.898439    3.2286785    233323.17    360019.49   -7902.2221    195146.81 
     170   -884650.57    252.46034    94.898439    3.2286785    230858.56    360122.14   -5752.5538    195076.05 
     180   -884691.09    252.46034    94.898439    3.2286785    228887.91    359608.89   -4627.1366    194623.22 
     190   -884720.34    252.46034    94.898439    3.2286785     227552.3    359554.83   -3641.2282    194488.63 
     200   -884744.56    252.46034    94.898439    3.2286785    226261.86     359431.4   -2823.7067    194289.85 
     210   -884764.27    252.46034    94.898439    3.2286785    225050.39     359260.4   -2162.2468    194049.52 
     220   -884780.31    252.46034    94.898439    3.2286785    223929.94    359058.46   -1630.4739    193785.97 
     230   -884793.25    252.46034    94.898439    3.2286785    222913.26    358835.92   -1209.6627    193513.17 
     240   -884803.58    252.46034    94.898439    3.2286785    222016.24    358608.64   -882.64797    193247.41 
     250   -884811.52    252.46034    94.898439    3.2286785    221265.67     358393.3   -639.83218    193006.38 
     260   -884818.28    252.46034    94.898439    3.2286785    220598.16    358198.23   -437.53324    192786.28 
     270   -884824.12    252.46034    94.898439    3.2286785    219985.15    357991.41   -271.10804    192568.48 
     280   -884829.49    252.46034    94.898439    3.2286785    219420.37    357796.58   -120.56238    192365.46 
     290   -884835.86    252.46034    94.898439    3.2286785    218742.76    357528.83    49.791593    192107.13 
     300   -884842.16    252.46034    94.898439    3.2286785    218092.89    357229.55    204.34177    191842.26 
     310   -884850.03    252.46034    94.898439    3.2286785    217423.52    356866.46    395.69443    191561.89 
     320   -884863.46    252.46034    94.898439    3.2286785    216648.35    356301.93    689.46162    191213.25 
     330   -884886.37    252.46034    94.898439    3.2286785    215889.88    355614.47    1055.9549    190853.43 
     340    -884914.8    252.46034    94.898439    3.2286785    214817.55    355177.02    865.47691    190286.68 
     350   -884928.71    252.46034    94.898439    3.2286785       214043    354915.51    589.31628    189849.28 
     360   -884936.14    252.46034    94.898439    3.2286785    213445.13     354658.4    537.67109    189547.07 
     370   -884941.04    252.46034    94.898439    3.2286785       212964    354436.39    526.24396    189308.88 
     380   -884944.79    252.46034    94.898439    3.2286785    212579.84    354257.89    532.49792    189123.41 
     390   -884948.64    252.46034    94.898439    3.2286785       212172    354062.25    545.76305    188926.67 
     400   -884952.69    252.46034    94.898439    3.2286785    211720.07    353832.04    558.36799    188703.49 
     410   -884956.91    252.46034    94.898439    3.2286785     211244.8    353573.87    572.13016     188463.6 
     420   -884961.41    252.46034    94.898439    3.2286785     210740.1    353279.92     588.6448    188202.89 
     430   -884966.08    252.46034    94.898439    3.2286785    210194.35    352943.39    600.67923    187912.81 
     440   -884969.52    252.46034    94.898439    3.2286785    209825.57    352696.02    609.74211    187710.45 
     450   -884972.92    252.46034    94.898439    3.2286785    209508.37    352465.82    631.39927     187535.2 
     460   -884976.68    252.46034    94.898439    3.2286785    209192.22     352218.8    661.46741     187357.5 
     470   -884981.08    252.46034    94.898439    3.2286785    208880.99    351947.32    706.45392    187178.25 
     480   -884986.96    252.46034    94.898439    3.2286785    208471.69    351583.54    779.27646    186944.84 
     490   -884994.77    252.46034    94.898439    3.2286785    207909.53    351097.25    877.03212    186627.94 
     500   -884998.83    252.46034    94.898439    3.2286785    207309.48    350600.83    1024.2587    186311.52 
     510   -885016.65    252.46034    94.898439    3.2286785    206676.81    349806.31    1312.9525    185932.03 
     520   -885048.38    252.46034    94.898439    3.2286785    206008.06    348783.45    1723.7537    185505.09 
     530    -885095.6    252.46034    94.898439    3.2286785     205250.8    347780.51    1949.5255    184993.61 
     540    -885145.1    252.46034    94.898439    3.2286785    204554.21    346858.65    2019.2562    184477.37 
     550    -885206.3    252.46034    94.898439    3.2286785    203841.88    346082.49    1960.7955    183961.72 
     560   -885255.41    252.46034    94.898439    3.2286785    202862.79    346070.29     1194.021     183375.7 
     570   -885282.95    252.46034    94.898439    3.2286785    202276.17    346175.22    799.32678    183083.57 
     580   -885304.62    252.46034    94.898439    3.2286785    201856.93    346090.04    709.13278    182885.37 
     590   -885324.16    252.46034    94.898439    3.2286785    201485.01    345862.85     740.7602    182696.21 
     600   -885343.17    252.46034    94.898439    3.2286785    201139.47    345584.57     813.7946    182512.61 
     610   -885362.71    252.46034    94.898439    3.2286785    200812.37    345259.92    905.91947    182326.07 
     620   -885383.48    252.46034    94.898439    3.2286785    200489.23    344937.31    970.35913     182132.3 
     630   -885403.58    252.46034    94.898439    3.2286785    200153.55    344709.09    951.05226     181937.9 
     640   -885420.15    252.46034    94.898439    3.2286785    199835.69    344630.58    859.01607     181775.1 
     650    -885432.5    252.46034    94.898439    3.2286785    199567.31       344652    751.83388    181657.05 
     660   -885441.66    252.46034    94.898439    3.2286785    199355.68    344699.77     666.3938    181573.95 
     670    -885448.9    252.46034    94.898439    3.2286785    199191.81    344740.42    606.38215    181512.87 
     680   -885455.06    252.46034    94.898439    3.2286785     199055.3    344765.86    565.63543    181462.26 
     690   -885460.51    252.46034    94.898439    3.2286785       198937    344776.48    538.55027    181417.34 
     691   -885461.02    252.46034    94.898439    3.2286785    198926.21    344776.88    536.45173    181413.18 
Loop time of 25.1292 on 16 procs for 691 steps with 8280 atoms

99.7% CPU use with 16 MPI tasks x no OpenMP threads

Minimization stats:
  Stopping criterion = energy tolerance
  Energy initial, next-to-last, final = 
     -804366.673682986  -885460.509657292  -885461.022863916
  Force two-norm initial, final = 13315.757 99.911784
  Force max component initial, final = 208.66557 9.5769536
  Final line search alpha, max atom move = 0.0000000 0.0000000
  Iterations, force evaluations = 691 691

MPI task timing breakdown:
Section |  min time  |  avg time  |  max time  |%varavg| %total
---------------------------------------------------------------
Pair    | 13.285     | 17.095     | 19.249     |  46.7 | 68.03
Neigh   | 0          | 0          | 0          |   0.0 |  0.00
Comm    | 0.030638   | 1.7576     | 5.9995     | 139.0 |  6.99
Output  | 0.12066    | 0.12079    | 0.12128    |   0.0 |  0.48
Modify  | 5.3154     | 5.7532     | 6.4552     |  17.3 | 22.89
Other   |            | 0.4028     |            |       |  1.60

Nlocal:        517.500 ave         540 max         495 min
Histogram: 4 0 0 4 0 0 4 0 0 4
Nghost:        853.750 ave         888 max         820 min
Histogram: 4 0 4 0 0 0 0 4 0 4
Neighs:        48556.6 ave       50490 max       46644 min
Histogram: 4 0 0 4 0 0 4 0 0 4

Total # of neighbors = 776906
Ave neighs/atom = 93.829227
Neighbor list builds = 0
Dangerous builds = 0
WARNING: Using 'neigh_modify every 1 delay 0 check yes' setting during minimization (../min.cpp:188)
Setting up quickmin style minimization ...
  Unit style    : real
  Current step  : 691
Per MPI rank memory allocation (min/avg/max) = 28.63 | 28.65 | 28.67 Mbytes
Step PotEng Lx Ly Lz Pxx Pyy Pzz Press 
     691   -885461.02    252.46034    94.898439    3.2733157    196213.51    340075.26    529.11938     178939.3 
     697   -885461.13    252.46034    94.898439    3.2733157    196192.05    340064.58     524.7192    178927.12 
Loop time of 0.248142 on 16 procs for 6 steps with 8280 atoms

99.8% CPU use with 16 MPI tasks x no OpenMP threads

Minimization stats:
  Stopping criterion = energy tolerance
  Energy initial, next-to-last, final = 
     -885461.022896992  -885461.093663914  -885461.128988534
  Force two-norm initial, final = 99.911008 99.866714
  Force max component initial, final = 9.5770505 9.5606939
  Final line search alpha, max atom move = 0.0000000 0.0000000
  Iterations, force evaluations = 6 6

MPI task timing breakdown:
Section |  min time  |  avg time  |  max time  |%varavg| %total
---------------------------------------------------------------
Pair    | 0.13518    | 0.17205    | 0.19251    |   4.5 | 69.34
Neigh   | 0          | 0          | 0          |   0.0 |  0.00
Comm    | 0.00027135 | 0.016681   | 0.057674   |  14.2 |  6.72
Output  | 0          | 0          | 0          |   0.0 |  0.00
Modify  | 0.053143   | 0.057316   | 0.063205   |   1.5 | 23.10
Other   |            | 0.002094   |            |       |  0.84

Nlocal:        517.500 ave         540 max         495 min
Histogram: 4 0 0 4 0 0 4 0 0 4
Nghost:        853.750 ave         888 max         820 min
Histogram: 4 0 4 0 0 0 0 4 0 4
Neighs:        49566.7 ave       51484 max       47624 min
Histogram: 4 0 0 4 0 0 4 0 0 4

Total # of neighbors = 793067
Ave neighs/atom = 95.781039
Neighbor list builds = 0
Dangerous builds = 0
Total wall time: 0:00:35
