LAMMPS (29 Sep 2021)
Processor partition = 6
Reading data file ...
  orthogonal box = (0.0000000 0.0000000 0.0000000) to (252.43931 94.898589 20.000000)
  8 by 2 by 1 MPI processor grid
  reading atoms ...
  8280 atoms
  read_data CPU = 0.056 seconds

CITE-CITE-CITE-CITE-CITE-CITE-CITE-CITE-CITE-CITE-CITE-CITE-CITE

Your simulation uses code contributions which should be cited:
- pair reaxff command:
- fix qeq/reaxff command:
The log file lists these citations in BibTeX format.

CITE-CITE-CITE-CITE-CITE-CITE-CITE-CITE-CITE-CITE-CITE-CITE-CITE

WARNING: Using 'neigh_modify every 1 delay 0 check yes' setting during minimization (../min.cpp:188)
Neighbor list info ...
  update every 1 steps, delay 0 steps, check yes
  max neighbors/atom: 2000, page size: 100000
  master list distance cutoff = 12
  ghost atom cutoff = 12
  binsize = 6, bins = 43 16 1
  2 neighbor lists, perpetual/occasional/extra = 2 0 0
  (1) pair reaxff, perpetual
      attributes: half, newton off, ghost
      pair build: half/bin/newtoff/ghost
      stencil: full/ghost/bin/3d
      bin: standard
  (2) fix qeq/reaxff, perpetual, copy from (1)
      attributes: half, newton off, ghost
      pair build: copy
      stencil: none
      bin: none
Setting up cg style minimization ...
  Unit style    : real
  Current step  : 0
WARNING: Energy due to 3 extra global DOFs will be included in minimizer energies
Per MPI rank memory allocation (min/avg/max) = 28.72 | 28.74 | 28.76 Mbytes
Step PotEng Lx Ly Lz Pxx Pyy Pzz Press 
       0   -927592.51    252.43931    94.898589    3.2398722    263.22187   -182.53557   -487.14416   -135.48595 
      10   -927600.17    252.44442     94.89767    3.2400857    8.7612198   -11.978463   -503.34046   -168.85257 
      20    -927601.1     252.4492      94.8971    3.2402204    -160.8388    60.138171   -433.81493   -178.17185 
      30   -927601.73    252.44938    94.897347    3.2403317   -88.796802     35.30265   -432.96278   -162.15231 
      40   -927602.29    252.45055    94.897434    3.2404364   -79.223635    30.880386   -414.81633   -154.38653 
      50   -927602.79    252.45177    94.897505    3.2405366   -76.583265     29.73946   -396.19145   -147.67842 
      60   -927603.26    252.45286     94.89759    3.2406325    -70.71146    27.852646   -379.72335   -140.86072 
      70   -927603.68    252.45383    94.897687    3.2407241    -62.41421    25.170887   -364.91945   -134.05426 
      80   -927604.07    252.45473    94.897791    3.2408115   -53.651302    21.996236   -351.00812    -127.5544 
      90   -927604.42    252.45563    94.897889     3.240895   -48.312269    19.926726   -336.74591   -121.71048 
     100   -927604.75    252.45651     94.89798    3.2409751   -45.123087    18.968475   -322.71157   -116.28873 
     110   -927605.04    252.45736    94.898073    3.2410516   -42.913443    17.688516    -308.7808   -111.33524 
     120   -927605.32    252.45816    94.898165    3.2411254   -39.634659      16.8417   -296.02589   -106.27295 
     130   -927605.57    252.45892    94.898258    3.2411958   -37.621543    15.586114   -283.08901   -101.70815 
     140    -927605.8    252.45964    94.898349     3.241264   -34.772478    14.715937   -271.04566   -97.034069 
     150   -927606.01    252.46034    94.898439    3.2413291    -32.83574      13.8502   -259.12739    -92.70431 
Loop time of 9.97465 on 16 procs for 150 steps with 8280 atoms

99.7% CPU use with 16 MPI tasks x no OpenMP threads

Minimization stats:
  Stopping criterion = energy tolerance
  Energy initial, next-to-last, final = 
      -927592.51395462  -927606.011729357  -927606.011675674
  Force two-norm initial, final = 400.71979 49.008029
  Force max component initial, final = 297.94937 37.167780
  Final line search alpha, max atom move = 0.00057860582 0.021505494
  Iterations, force evaluations = 150 300

MPI task timing breakdown:
Section |  min time  |  avg time  |  max time  |%varavg| %total
---------------------------------------------------------------
Pair    | 6.1881     | 7.8533     | 8.4311     |  20.8 | 78.73
Neigh   | 0.45533    | 0.52129    | 0.53584    |   3.4 |  5.23
Comm    | 0.022131   | 0.49414    | 2.2723     |  90.4 |  4.95
Output  | 0.00050218 | 0.00051629 | 0.00063453 |   0.0 |  0.01
Modify  | 0.93737    | 0.95323    | 1.0176     |   2.5 |  9.56
Other   |            | 0.1522     |            |       |  1.53

Nlocal:        517.500 ave         525 max         510 min
Histogram: 8 0 0 0 0 0 0 0 0 8
Nghost:        855.000 ave         863 max         847 min
Histogram: 8 0 0 0 0 0 0 0 0 8
Neighs:        48525.0 ave       49147 max       47903 min
Histogram: 8 0 0 0 0 0 0 0 0 8

Total # of neighbors = 776400
Ave neighs/atom = 93.768116
Neighbor list builds = 253
Dangerous builds = 235
WARNING: Using 'neigh_modify every 1 delay 0 check yes' setting during minimization (../min.cpp:188)
Setting up quickmin style minimization ...
  Unit style    : real
  Current step  : 0
Per MPI rank memory allocation (min/avg/max) = 28.62 | 28.66 | 28.70 Mbytes
Step PotEng Lx Ly Lz Pxx Pyy Pzz Press 
       0   -945257.31    252.46034    94.898439    3.2197008    207684.36    315238.57    -150317.6    124201.78 
      10   -947594.48    252.46034    94.898439    3.2197008    197104.28    286589.34   -139216.74    114825.63 
      20   -953111.07    252.46034    94.898439    3.2197008    171034.79    212624.51   -113231.83    90142.493 
      30   -957209.05    252.46034    94.898439    3.2197008    144071.45    147602.44     -93171.2    66167.562 
      40   -959130.12    252.46034    94.898439    3.2197008    120572.62    113968.97   -70208.326    54777.756 
      50   -960605.09    252.46034    94.898439    3.2197008    97173.125    90939.238   -35126.393    50995.323 
      60   -961605.53    252.46034    94.898439    3.2197008    74949.078    73913.946   -2033.0019    48943.341 
      70    -962054.5    252.46034    94.898439    3.2197008    66089.112     68727.09    7946.1839    47587.462 
      80   -962374.27    252.46034    94.898439    3.2197008    64682.494    67922.484    8811.4125    47138.797 
      90   -962606.27    252.46034    94.898439    3.2197008    63333.192    67807.371    6503.2486     45881.27 
     100   -962759.37    252.46034    94.898439    3.2197008    62757.394    67787.501    10632.539    47059.145 
     110   -962816.03    252.46034    94.898439    3.2197008    60327.375    67755.618    907.53089    42996.841 
     120   -962850.41    252.46034    94.898439    3.2197008    60295.198    67734.958    885.12424     42971.76 
     130   -962881.38    252.46034    94.898439    3.2197008    60271.633    67724.343    842.78139    42946.252 
     140   -962908.08    252.46034    94.898439    3.2197008     60260.76    67716.845    817.04626     42931.55 
     150   -962926.74    252.46034    94.898439    3.2197008    60002.475    67711.352    343.43745    42685.755 
     160   -962935.45    252.46034    94.898439    3.2197008    59944.282    67708.625    235.90929    42629.605 
     170   -962941.62    252.46034    94.898439    3.2197008    59911.681    67708.182    508.17098    42709.344 
     180   -962945.04    252.46034    94.898439    3.2197008     59852.56    67706.205    66.322127    42541.696 
     190   -962947.04    252.46034    94.898439    3.2197008    59842.821    67705.172    47.632802    42531.875 
     200   -962948.47    252.46034    94.898439    3.2197008    59835.311    67704.741    33.553766    42524.535 
     210   -962949.47    252.46034    94.898439    3.2197008    59829.846    67704.493    23.395061    42519.245 
     220   -962950.16    252.46034    94.898439    3.2197008    59826.075    67704.385    15.632938    42515.364 
     230   -962950.64    252.46034    94.898439    3.2197008    59823.264    67704.198    10.324734    42512.596 
     240   -962950.96    252.46034    94.898439    3.2197008    59821.427    67704.166    6.8326153    42510.809 
     250   -962951.18    252.46034    94.898439    3.2197008    59820.019     67704.01    4.9142462    42509.648 
     260   -962951.33    252.46034    94.898439    3.2197008    59819.569    67703.989    3.8131069    42509.124 
     270   -962951.45    252.46034    94.898439    3.2197008    59818.946     67703.93    2.8611293    42508.579 
     280   -962951.54    252.46034    94.898439    3.2197008    59818.881    67703.927    2.3646775    42508.391 
     290   -962951.63    252.46034    94.898439    3.2197008    59818.685    67703.916    1.9585354    42508.186 
     300    -962951.7    252.46034    94.898439    3.2197008     59818.41    67703.932    1.1851272    42507.842 
     310   -962951.75    252.46034    94.898439    3.2197008     59818.42    67703.939    1.3969379    42507.919 
     320    -962951.8    252.46034    94.898439    3.2197008     59818.26    67703.913   0.97765681    42507.717 
     330   -962951.84    252.46034    94.898439    3.2197008    59818.084    67703.867   0.86357185    42507.605 
     340   -962951.86    252.46034    94.898439    3.2197008    59817.955    67703.846   0.58089269     42507.46 
     350   -962951.88    252.46034    94.898439    3.2197008    59817.953    67703.944  -0.09413299    42507.267 
     360    -962951.9    252.46034    94.898439    3.2197008    59817.849    67703.945  -0.36994932    42507.141 
     370   -962951.91    252.46034    94.898439    3.2197008    59817.746    67703.923  -0.15653598    42507.171 
     380   -962951.91    252.46034    94.898439    3.2197008    59817.737    67703.934  -0.28773368    42507.128 
     390   -962951.91    252.46034    94.898439    3.2197008    59817.658     67703.86   0.10477641    42507.208 
     400   -962951.92    252.46034    94.898439    3.2197008    59817.468    67703.677   0.98801025    42507.378 
     410   -962951.92    252.46034    94.898439    3.2197008    59817.555    67703.774     0.477607    42507.269 
     420   -962951.92    252.46034    94.898439    3.2197008    59817.564     67703.79  -0.26454265     42507.03 
     430   -962951.93    252.46034    94.898439    3.2197008    59817.617     67703.86  -0.28207852    42507.065 
     440   -962951.92    252.46034    94.898439    3.2197008    59817.473    67703.727   0.55156669    42507.251 
     450   -962951.93    252.46034    94.898439    3.2197008     59817.51    67703.766    0.1376088    42507.138 
     460   -962951.93    252.46034    94.898439    3.2197008    59817.647    67703.907  -0.42159518    42507.044 
     470   -962951.93    252.46034    94.898439    3.2197008    59817.592    67703.851  -0.08006971    42507.121 
     480   -962951.93    252.46034    94.898439    3.2197008    59817.558    67703.816   0.17530758    42507.183 
     490   -962951.93    252.46034    94.898439    3.2197008    59817.548    67703.808   0.11711778    42507.158 
     500   -962951.93    252.46034    94.898439    3.2197008    59817.569    67703.829   0.29054258     42507.23 
     510   -962951.93    252.46034    94.898439    3.2197008    59817.557     67703.82 0.0071862881    42507.128 
     520   -962951.93    252.46034    94.898439    3.2197008    59817.489    67703.753   0.15449366    42507.132 
     530   -962951.93    252.46034    94.898439    3.2197008    59817.655    67703.922  -0.28012229    42507.099 
     540   -962951.93    252.46034    94.898439    3.2197008    59817.635    67703.903  -0.34970541    42507.063 
     550   -962951.93    252.46034    94.898439    3.2197008    59817.634    67703.903   -0.4481004     42507.03 
     560   -962951.93    252.46034    94.898439    3.2197008    59817.543     67703.81  0.020579228    42507.124 
     570   -962951.93    252.46034    94.898439    3.2197008     59817.57    67703.837  -0.26943313    42507.046 
     580   -962951.93    252.46034    94.898439    3.2197008    59817.584    67703.853   0.17772564    42507.205 
     590   -962951.93    252.46034    94.898439    3.2197008    59817.596    67703.866 -0.025064755    42507.146 
     600   -962951.93    252.46034    94.898439    3.2197008    59817.612    67703.884  0.015995063    42507.171 
     610   -962951.93    252.46034    94.898439    3.2197008    59817.599    67703.872   -0.1188434    42507.117 
     620   -962951.93    252.46034    94.898439    3.2197008    59817.682    67703.958  -0.62715599    42507.004 
     630   -962951.93    252.46034    94.898439    3.2197008    59817.597    67703.872  -0.10047545    42507.123 
     640   -962951.93    252.46034    94.898439    3.2197008    59817.626    67703.902  -0.73777795     42506.93 
     650   -962951.93    252.46034    94.898439    3.2197008    59817.636    67703.912  -0.77586464    42506.924 
     660   -962951.93    252.46034    94.898439    3.2197008    59817.483    67703.758   0.24599783    42507.163 
     670   -962951.93    252.46034    94.898439    3.2197008    59817.455     67703.73   0.72537597    42507.303 
     680   -962951.93    252.46034    94.898439    3.2197008    59817.583     67703.86  -0.13537114    42507.103 
     690   -962951.93    252.46034    94.898439    3.2197008    59817.486    67703.762   0.35668421    42507.202 
     691   -962951.93    252.46034    94.898439    3.2197008    59817.478    67703.754   0.45723058     42507.23 
Loop time of 25.1292 on 16 procs for 691 steps with 8280 atoms

99.7% CPU use with 16 MPI tasks x no OpenMP threads

Minimization stats:
  Stopping criterion = energy tolerance
  Energy initial, next-to-last, final = 
     -945257.313451072  -962951.930283893  -962951.930106025
  Force two-norm initial, final = 10815.808 0.30390117
  Force max component initial, final = 168.58653 0.0098520636
  Final line search alpha, max atom move = 0.0000000 0.0000000
  Iterations, force evaluations = 691 691

MPI task timing breakdown:
Section |  min time  |  avg time  |  max time  |%varavg| %total
---------------------------------------------------------------
Pair    | 15.177     | 19.852     | 21.678     |  37.5 | 79.00
Neigh   | 0          | 0          | 0          |   0.0 |  0.00
Comm    | 0.024597   | 1.5516     | 6.5349     | 146.0 |  6.17
Output  | 0.13157    | 0.13169    | 0.1323     |   0.0 |  0.52
Modify  | 2.8174     | 3.1945     | 3.5143     |  14.9 | 12.71
Other   |            | 0.3993     |            |       |  1.59

Nlocal:        517.500 ave         546 max         489 min
Histogram: 4 2 2 0 0 0 0 4 0 4
Nghost:        855.000 ave         907 max         804 min
Histogram: 4 4 0 0 0 0 0 0 4 4
Neighs:        50151.4 ave       52623 max       47661 min
Histogram: 4 0 4 0 0 0 0 4 0 4

Total # of neighbors = 802422
Ave neighs/atom = 96.910870
Neighbor list builds = 0
Dangerous builds = 0
WARNING: Using 'neigh_modify every 1 delay 0 check yes' setting during minimization (../min.cpp:188)
Setting up quickmin style minimization ...
  Unit style    : real
  Current step  : 691
Per MPI rank memory allocation (min/avg/max) = 28.62 | 28.66 | 28.69 Mbytes
Step PotEng Lx Ly Lz Pxx Pyy Pzz Press 
     691   -962951.93    252.46034    94.898439    3.1705979    60743.863    68752.273   0.49732918    43165.545 
     697   -962951.93    252.46034    94.898439    3.1705979    60743.946    68752.357 -0.074487252     43165.41 
Loop time of 0.248141 on 16 procs for 6 steps with 8280 atoms

99.7% CPU use with 16 MPI tasks x no OpenMP threads

Minimization stats:
  Stopping criterion = energy tolerance
  Energy initial, next-to-last, final = 
     -962951.930055725  -962951.930185256  -962951.930897902
  Force two-norm initial, final = 0.30393729 0.30381833
  Force max component initial, final = 0.0098721282 0.0098051299
  Final line search alpha, max atom move = 0.0000000 0.0000000
  Iterations, force evaluations = 6 6

MPI task timing breakdown:
Section |  min time  |  avg time  |  max time  |%varavg| %total
---------------------------------------------------------------
Pair    | 0.15438    | 0.20112    | 0.21849    |   3.7 | 81.05
Neigh   | 0          | 0          | 0          |   0.0 |  0.00
Comm    | 0.00024046 | 0.014137   | 0.064439   |  15.2 |  5.70
Output  | 0          | 0          | 0          |   0.0 |  0.00
Modify  | 0.027105   | 0.030717   | 0.033563   |   1.6 | 12.38
Other   |            | 0.002172   |            |       |  0.88

Nlocal:        517.500 ave         540 max         495 min
Histogram: 8 0 0 0 0 0 0 0 0 8
Nghost:        855.000 ave         901 max         810 min
Histogram: 8 0 0 0 0 0 0 0 0 8
Neighs:        50130.5 ave       52057 max       48204 min
Histogram: 8 0 0 0 0 0 0 0 0 8

Total # of neighbors = 802088
Ave neighs/atom = 96.870531
Neighbor list builds = 0
Dangerous builds = 0
Total wall time: 0:00:35
