 vasp.5.4.4.18Apr17-6-g9f103f2a35 (build Sep 16 2021 13:51:27) complex          
  
 executed on             LinuxIFC date 2023.03.16  12:57:38
 running on   24 total cores
 distrk:  each k-point on   24 cores,    1 groups
 distr:  one band on NCORES_PER_BAND=  24 cores,    1 groups


--------------------------------------------------------------------------------------------------------


 INCAR:
 POTCAR:    PAW_PBE Sn 08Apr2002                  
 POTCAR:    PAW_PBE Se 06Sep2000                  

 ----------------------------------------------------------------------------- 
|                                                                             |
|           W    W    AA    RRRRR   N    N  II  N    N   GGGG   !!!           |
|           W    W   A  A   R    R  NN   N  II  NN   N  G    G  !!!           |
|           W    W  A    A  R    R  N N  N  II  N N  N  G       !!!           |
|           W WW W  AAAAAA  RRRRR   N  N N  II  N  N N  G  GGG   !            |
|           WW  WW  A    A  R   R   N   NN  II  N   NN  G    G                |
|           W    W  A    A  R    R  N    N  II  N    N   GGGG   !!!           |
|                                                                             |
|      For optimal performance we recommend to set                            |
|        NCORE= 4 - approx SQRT( number of cores)                             |
|      NCORE specifies how many cores store one orbital (NPAR=cpu/NCORE).     |
|      This setting can  greatly improve the performance of VASP for DFT.     |
|      The default,   NCORE=1            might be grossly inefficient         |
|      on modern multi-core architectures or massively parallel machines.     |
|      Do your own testing !!!!                                               |
|      Unfortunately you need to use the default for GW and RPA calculations. |
|      (for HF NCORE is supported but not extensively tested yet)             |
|                                                                             |
 ----------------------------------------------------------------------------- 

 POTCAR:    PAW_PBE Sn 08Apr2002                  
   VRHFIN =Sn: s2p2                                                             
   LEXCH  = PE                                                                  
   EATOM  =    94.0860 eV,    6.9151 Ry                                         
                                                                                
   TITEL  = PAW_PBE Sn 08Apr2002                                                
   LULTRA =        F    use ultrasoft PP ?                                      
   IUNSCR =        1    unscreen: 0-lin 1-nonlin 2-no                           
   RPACOR =    2.000    partial core radius                                     
   POMASS =  118.710; ZVAL   =    4.000    mass and valenz                      
   RCORE  =    3.000    outmost cutoff radius                                   
   RWIGS  =    2.960; RWIGS  =    1.566    wigner-seitz radius (au A)           
   ENMAX  =  103.236; ENMIN  =   77.427 eV                                      
   ICORE  =        3    local potential                                         
   LCOR   =        T    correct aug charges                                     
   LPAW   =        T    paw PP                                                  
   EAUG   =  263.585                                                            
   DEXC   =    0.000                                                            
   RMAX   =    3.078    core radius for proj-oper                               
   RAUG   =    1.300    factor for augmentation sphere                          
   RDEP   =    3.022    radius for radial grids                                 
   RDEPT  =    2.655    core radius for aug-charge                              
                                                                                
   Atomic configuration                                                         
   13 entries                                                                   
     n  l   j            E        occ.                                          
     1  0  0.50    -29007.2859   2.0000                                         
     2  0  0.50     -4378.8056   2.0000                                         
     2  1  1.50     -3930.4293   6.0000                                         
     3  0  0.50      -845.0264   2.0000                                         
     3  1  1.50      -698.5725   6.0000                                         
     3  2  2.50      -473.2839  10.0000                                         
     4  0  0.50      -133.9036   2.0000                                         
     4  1  1.50       -89.6752   6.0000                                         
     4  2  2.50       -25.8375  10.0000                                         
     5  0  0.50       -10.5484   2.0000                                         
     5  1  0.50        -3.6940   2.0000                                         
     5  2  1.50        -1.3606   0.0000                                         
     4  3  2.50        -4.0817   0.0000                                         
   Description                                                                  
     l       E           TYP  RCUT    TYP  RCUT                                 
     0    -10.5483727     23  3.000                                             
     0     27.2116520     23  3.000                                             
     1     -3.6939829     23  3.000                                             
     1      1.9821976     23  3.000                                             
     2     -1.3605826     23  3.000                                             
     3     -2.7211652     23  3.000                                             
  local pseudopotential read in
  partial core-charges read in
  partial kinetic energy density read in
  atomic valenz-charges read in
  non local Contribution for L=           0  read in
    real space projection operators read in
  non local Contribution for L=           0  read in
    real space projection operators read in
  non local Contribution for L=           1  read in
    real space projection operators read in
  non local Contribution for L=           1  read in
    real space projection operators read in
  non local Contribution for L=           2  read in
    real space projection operators read in
    PAW grid and wavefunctions read in
 
   number of l-projection  operators is LMAX  =           5
   number of lm-projection operators is LMMAX =          13
 
 POTCAR:    PAW_PBE Se 06Sep2000                  
   VRHFIN =Se: s2p4                                                             
   LEXCH  = PE                                                                  
   EATOM  =   257.1286 eV,   18.8984 Ry                                         
                                                                                
   TITEL  = PAW_PBE Se 06Sep2000                                                
   LULTRA =        F    use ultrasoft PP ?                                      
   IUNSCR =        1    unscreen: 0-lin 1-nonlin 2-no                           
   RPACOR =    1.900    partial core radius                                     
   POMASS =   78.960; ZVAL   =    6.000    mass and valenz                      
   RCORE  =    2.100    outmost cutoff radius                                   
   RWIGS  =    2.200; RWIGS  =    1.164    wigner-seitz radius (au A)           
   ENMAX  =  211.555; ENMIN  =  158.666 eV                                      
   ICORE  =        3    local potential                                         
   LCOR   =        T    correct aug charges                                     
   LPAW   =        T    paw PP                                                  
   EAUG   =  446.842                                                            
   DEXC   =    0.000                                                            
   RMAX   =    2.147    core radius for proj-oper                               
   RAUG   =    1.300    factor for augmentation sphere                          
   RDEP   =    2.177    radius for radial grids                                 
   RDEPT  =    1.928    core radius for aug-charge                              
                                                                                
   Atomic configuration                                                         
   10 entries                                                                   
     n  l   j            E        occ.                                          
     1  0  0.50    -12503.4787   2.0000                                         
     2  0  0.50     -1606.9547   2.0000                                         
     2  1  1.50     -1413.3140   6.0000                                         
     3  0  0.50      -213.4885   2.0000                                         
     3  1  1.50      -152.9538   6.0000                                         
     3  2  2.50       -53.1221  10.0000                                         
     4  0  0.50       -17.2865   2.0000                                         
     4  1  0.50        -6.5110   4.0000                                         
     4  2  2.50        -6.8029   0.0000                                         
     4  3  2.50        -6.8029   0.0000                                         
   Description                                                                  
     l       E           TYP  RCUT    TYP  RCUT                                 
     0    -17.2865377     23  2.100                                             
     0    -15.3094411     23  2.100                                             
     1     -6.5110275     23  2.100                                             
     1     -0.0695192     23  2.100                                             
     2     -6.8029130     23  2.100                                             
     3     -1.3605826      7  2.100                                             
  local pseudopotential read in
  partial core-charges read in
  partial kinetic energy density read in
  atomic valenz-charges read in
  non local Contribution for L=           0  read in
    real space projection operators read in
  non local Contribution for L=           0  read in
    real space projection operators read in
  non local Contribution for L=           1  read in
    real space projection operators read in
  non local Contribution for L=           1  read in
    real space projection operators read in
  non local Contribution for L=           2  read in
    real space projection operators read in
    PAW grid and wavefunctions read in
 
   number of l-projection  operators is LMAX  =           5
   number of lm-projection operators is LMMAX =          13
 
 WARNING: PSMAXN for non-local potential too small
          PSMAXN should be >   12.5490833729506       NTYP=           1
  PAW_PBE Sn 08Apr2002                  :
 energy of atom  1       EATOM=  -94.0860
 kinetic energy error for atom=    0.0000 (will be added to EATOM!!)
  PAW_PBE Se 06Sep2000                  :
 energy of atom  2       EATOM= -257.1286
 kinetic energy error for atom=    0.0006 (will be added to EATOM!!)
 
 
 POSCAR:  POSCAR with strain of -0.003           
  positions in direct lattice
  No initial velocities read in
 exchange correlation table for  LEXCH =        8
   RHO(1)=    0.500       N(1)  =     2000
   RHO(2)=  100.500       N(2)  =     4000
 


--------------------------------------------------------------------------------------------------------


 ion  position               nearest neighbor table
   1  0.581  0.750  0.569-   4 2.72   3 2.92   3 2.92   3 3.22   3 3.22
   2  0.081  0.250  0.431-   3 2.72   4 2.92   4 2.92   4 3.22   4 3.22
   3  0.033  0.250  0.567-   2 2.72   1 2.92   1 2.92   1 3.22   1 3.22
   4  0.533  0.750  0.433-   1 2.72   2 2.92   2 2.92   2 3.22   2 3.22
 

IMPORTANT INFORMATION: All symmetrisations will be switched off!
NOSYMM: (Re-)initialisation of all symmetry stuff for point group C_1.

 
 
 KPOINTS: KMesh Grid                              

Automatic generation of k-mesh.
Space group operators:
 irot       det(A)        alpha          n_x          n_y          n_z        tau_x        tau_y        tau_z
    1     1.000000     0.000000     1.000000     0.000000     0.000000     0.000000     0.000000     0.000000
 
 Subroutine IBZKPT returns following result:
 ===========================================
 
 Found    113 irreducible k-points:
 
 Following reciprocal coordinates:
            Coordinates               Weight
  0.000000  0.000000  0.000000      1.000000
  0.066667  0.000000  0.000000      2.000000
  0.133333  0.000000  0.000000      2.000000
  0.200000  0.000000  0.000000      2.000000
  0.266667  0.000000  0.000000      2.000000
  0.333333  0.000000  0.000000      2.000000
  0.400000  0.000000  0.000000      2.000000
  0.466667  0.000000  0.000000      2.000000
  0.000000  0.066667  0.000000      2.000000
  0.066667  0.066667  0.000000      2.000000
  0.133333  0.066667  0.000000      2.000000
  0.200000  0.066667  0.000000      2.000000
  0.266667  0.066667  0.000000      2.000000
  0.333333  0.066667  0.000000      2.000000
  0.400000  0.066667  0.000000      2.000000
  0.466667  0.066667  0.000000      2.000000
 -0.466667  0.066667  0.000000      2.000000
 -0.400000  0.066667  0.000000      2.000000
 -0.333333  0.066667  0.000000      2.000000
 -0.266667  0.066667  0.000000      2.000000
 -0.200000  0.066667  0.000000      2.000000
 -0.133333  0.066667  0.000000      2.000000
 -0.066667  0.066667  0.000000      2.000000
  0.000000  0.133333  0.000000      2.000000
  0.066667  0.133333  0.000000      2.000000
  0.133333  0.133333  0.000000      2.000000
  0.200000  0.133333  0.000000      2.000000
  0.266667  0.133333  0.000000      2.000000
  0.333333  0.133333  0.000000      2.000000
  0.400000  0.133333  0.000000      2.000000
  0.466667  0.133333  0.000000      2.000000
 -0.466667  0.133333  0.000000      2.000000
 -0.400000  0.133333  0.000000      2.000000
 -0.333333  0.133333  0.000000      2.000000
 -0.266667  0.133333  0.000000      2.000000
 -0.200000  0.133333  0.000000      2.000000
 -0.133333  0.133333  0.000000      2.000000
 -0.066667  0.133333  0.000000      2.000000
  0.000000  0.200000  0.000000      2.000000
  0.066667  0.200000  0.000000      2.000000
  0.133333  0.200000  0.000000      2.000000
  0.200000  0.200000  0.000000      2.000000
  0.266667  0.200000  0.000000      2.000000
  0.333333  0.200000  0.000000      2.000000
  0.400000  0.200000  0.000000      2.000000
  0.466667  0.200000  0.000000      2.000000
 -0.466667  0.200000  0.000000      2.000000
 -0.400000  0.200000  0.000000      2.000000
 -0.333333  0.200000  0.000000      2.000000
 -0.266667  0.200000  0.000000      2.000000
 -0.200000  0.200000  0.000000      2.000000
 -0.133333  0.200000  0.000000      2.000000
 -0.066667  0.200000  0.000000      2.000000
  0.000000  0.266667  0.000000      2.000000
  0.066667  0.266667  0.000000      2.000000
  0.133333  0.266667  0.000000      2.000000
  0.200000  0.266667  0.000000      2.000000
  0.266667  0.266667  0.000000      2.000000
  0.333333  0.266667  0.000000      2.000000
  0.400000  0.266667  0.000000      2.000000
  0.466667  0.266667  0.000000      2.000000
 -0.466667  0.266667  0.000000      2.000000
 -0.400000  0.266667  0.000000      2.000000
 -0.333333  0.266667  0.000000      2.000000
 -0.266667  0.266667  0.000000      2.000000
 -0.200000  0.266667  0.000000      2.000000
 -0.133333  0.266667  0.000000      2.000000
 -0.066667  0.266667  0.000000      2.000000
  0.000000  0.333333  0.000000      2.000000
  0.066667  0.333333  0.000000      2.000000
  0.133333  0.333333  0.000000      2.000000
  0.200000  0.333333  0.000000      2.000000
  0.266667  0.333333  0.000000      2.000000
  0.333333  0.333333  0.000000      2.000000
  0.400000  0.333333  0.000000      2.000000
  0.466667  0.333333  0.000000      2.000000
 -0.466667  0.333333  0.000000      2.000000
 -0.400000  0.333333  0.000000      2.000000
 -0.333333  0.333333  0.000000      2.000000
 -0.266667  0.333333  0.000000      2.000000
 -0.200000  0.333333  0.000000      2.000000
 -0.133333  0.333333  0.000000      2.000000
 -0.066667  0.333333  0.000000      2.000000
  0.000000  0.400000  0.000000      2.000000
  0.066667  0.400000  0.000000      2.000000
  0.133333  0.400000  0.000000      2.000000
  0.200000  0.400000  0.000000      2.000000
  0.266667  0.400000  0.000000      2.000000
  0.333333  0.400000  0.000000      2.000000
  0.400000  0.400000  0.000000      2.000000
  0.466667  0.400000  0.000000      2.000000
 -0.466667  0.400000  0.000000      2.000000
 -0.400000  0.400000  0.000000      2.000000
 -0.333333  0.400000  0.000000      2.000000
 -0.266667  0.400000  0.000000      2.000000
 -0.200000  0.400000  0.000000      2.000000
 -0.133333  0.400000  0.000000      2.000000
 -0.066667  0.400000  0.000000      2.000000
  0.000000  0.466667  0.000000      2.000000
  0.066667  0.466667  0.000000      2.000000
  0.133333  0.466667  0.000000      2.000000
  0.200000  0.466667  0.000000      2.000000
  0.266667  0.466667  0.000000      2.000000
  0.333333  0.466667  0.000000      2.000000
  0.400000  0.466667  0.000000      2.000000
  0.466667  0.466667  0.000000      2.000000
 -0.466667  0.466667  0.000000      2.000000
 -0.400000  0.466667  0.000000      2.000000
 -0.333333  0.466667  0.000000      2.000000
 -0.266667  0.466667  0.000000      2.000000
 -0.200000  0.466667  0.000000      2.000000
 -0.133333  0.466667  0.000000      2.000000
 -0.066667  0.466667  0.000000      2.000000
 
 Following cartesian coordinates:
            Coordinates               Weight
  0.000000  0.000000  0.000000      1.000000
  0.015213  0.000000  0.000000      2.000000
  0.030425  0.000000  0.000000      2.000000
  0.045638  0.000000  0.000000      2.000000
  0.060850  0.000000  0.000000      2.000000
  0.076063  0.000000  0.000000      2.000000
  0.091275  0.000000  0.000000      2.000000
  0.106488  0.000000  0.000000      2.000000
  0.000000  0.015570  0.000000      2.000000
  0.015213  0.015570  0.000000      2.000000
  0.030425  0.015570  0.000000      2.000000
  0.045638  0.015570  0.000000      2.000000
  0.060850  0.015570  0.000000      2.000000
  0.076063  0.015570  0.000000      2.000000
  0.091275  0.015570  0.000000      2.000000
  0.106488  0.015570  0.000000      2.000000
 -0.106488  0.015570  0.000000      2.000000
 -0.091275  0.015570  0.000000      2.000000
 -0.076063  0.015570  0.000000      2.000000
 -0.060850  0.015570  0.000000      2.000000
 -0.045638  0.015570  0.000000      2.000000
 -0.030425  0.015570  0.000000      2.000000
 -0.015213  0.015570  0.000000      2.000000
  0.000000  0.031140  0.000000      2.000000
  0.015213  0.031140  0.000000      2.000000
  0.030425  0.031140  0.000000      2.000000
  0.045638  0.031140  0.000000      2.000000
  0.060850  0.031140  0.000000      2.000000
  0.076063  0.031140  0.000000      2.000000
  0.091275  0.031140  0.000000      2.000000
  0.106488  0.031140  0.000000      2.000000
 -0.106488  0.031140  0.000000      2.000000
 -0.091275  0.031140  0.000000      2.000000
 -0.076063  0.031140  0.000000      2.000000
 -0.060850  0.031140  0.000000      2.000000
 -0.045638  0.031140  0.000000      2.000000
 -0.030425  0.031140  0.000000      2.000000
 -0.015213  0.031140  0.000000      2.000000
  0.000000  0.046710  0.000000      2.000000
  0.015213  0.046710  0.000000      2.000000
  0.030425  0.046710  0.000000      2.000000
  0.045638  0.046710  0.000000      2.000000
  0.060850  0.046710  0.000000      2.000000
  0.076063  0.046710  0.000000      2.000000
  0.091275  0.046710  0.000000      2.000000
  0.106488  0.046710  0.000000      2.000000
 -0.106488  0.046710  0.000000      2.000000
 -0.091275  0.046710  0.000000      2.000000
 -0.076063  0.046710  0.000000      2.000000
 -0.060850  0.046710  0.000000      2.000000
 -0.045638  0.046710  0.000000      2.000000
 -0.030425  0.046710  0.000000      2.000000
 -0.015213  0.046710  0.000000      2.000000
  0.000000  0.062280  0.000000      2.000000
  0.015213  0.062280  0.000000      2.000000
  0.030425  0.062280  0.000000      2.000000
  0.045638  0.062280  0.000000      2.000000
  0.060850  0.062280  0.000000      2.000000
  0.076063  0.062280  0.000000      2.000000
  0.091275  0.062280  0.000000      2.000000
  0.106488  0.062280  0.000000      2.000000
 -0.106488  0.062280  0.000000      2.000000
 -0.091275  0.062280  0.000000      2.000000
 -0.076063  0.062280  0.000000      2.000000
 -0.060850  0.062280  0.000000      2.000000
 -0.045638  0.062280  0.000000      2.000000
 -0.030425  0.062280  0.000000      2.000000
 -0.015213  0.062280  0.000000      2.000000
  0.000000  0.077850  0.000000      2.000000
  0.015213  0.077850  0.000000      2.000000
  0.030425  0.077850  0.000000      2.000000
  0.045638  0.077850  0.000000      2.000000
  0.060850  0.077850  0.000000      2.000000
  0.076063  0.077850  0.000000      2.000000
  0.091275  0.077850  0.000000      2.000000
  0.106488  0.077850  0.000000      2.000000
 -0.106488  0.077850  0.000000      2.000000
 -0.091275  0.077850  0.000000      2.000000
 -0.076063  0.077850  0.000000      2.000000
 -0.060850  0.077850  0.000000      2.000000
 -0.045638  0.077850  0.000000      2.000000
 -0.030425  0.077850  0.000000      2.000000
 -0.015213  0.077850  0.000000      2.000000
  0.000000  0.093420  0.000000      2.000000
  0.015213  0.093420  0.000000      2.000000
  0.030425  0.093420  0.000000      2.000000
  0.045638  0.093420  0.000000      2.000000
  0.060850  0.093420  0.000000      2.000000
  0.076063  0.093420  0.000000      2.000000
  0.091275  0.093420  0.000000      2.000000
  0.106488  0.093420  0.000000      2.000000
 -0.106488  0.093420  0.000000      2.000000
 -0.091275  0.093420  0.000000      2.000000
 -0.076063  0.093420  0.000000      2.000000
 -0.060850  0.093420  0.000000      2.000000
 -0.045638  0.093420  0.000000      2.000000
 -0.030425  0.093420  0.000000      2.000000
 -0.015213  0.093420  0.000000      2.000000
  0.000000  0.108990  0.000000      2.000000
  0.015213  0.108990  0.000000      2.000000
  0.030425  0.108990  0.000000      2.000000
  0.045638  0.108990  0.000000      2.000000
  0.060850  0.108990  0.000000      2.000000
  0.076063  0.108990  0.000000      2.000000
  0.091275  0.108990  0.000000      2.000000
  0.106488  0.108990  0.000000      2.000000
 -0.106488  0.108990  0.000000      2.000000
 -0.091275  0.108990  0.000000      2.000000
 -0.076063  0.108990  0.000000      2.000000
 -0.060850  0.108990  0.000000      2.000000
 -0.045638  0.108990  0.000000      2.000000
 -0.030425  0.108990  0.000000      2.000000
 -0.015213  0.108990  0.000000      2.000000
 


--------------------------------------------------------------------------------------------------------




 Dimension of arrays:
   k-points           NKPTS =    113   k-points in BZ     NKDIM =    113   number of bands    NBANDS=     14
   number of dos      NEDOS =    301   number of ions     NIONS =      4
   non local maximal  LDIM  =      5   non local SUM 2l+1 LMDIM =     13
   total plane-waves  NPLWV = 207360
   max r-space proj   IRMAX =      1   max aug-charges    IRDMAX=  53380
   dimension x,y,z NGX =    36 NGY =   36 NGZ =  160
   dimension x,y,z NGXF=    72 NGYF=   72 NGZF=  320
   support grid    NGXF=    72 NGYF=   72 NGZF=  320
   ions per type =               2   2
   NGX,Y,Z   is equivalent  to a cutoff of  13.66, 13.98, 13.30 a.u.
   NGXF,Y,Z  is equivalent  to a cutoff of  27.31, 27.96, 26.60 a.u.

 SYSTEM =  SnSe                                    
 POSCAR =   POSCAR with strain of -0.003           

 Startparameter for this run:
   NWRITE =      2    write-flag & timer
   PREC   = accura    normal or accurate (medium, high low for compatibility)
   ISTART =      0    job   : 0-new  1-cont  2-samecut
   ICHARG =      2    charge: 1-file 2-atom 10-const
   ISPIN  =      1    spin polarized calculation?
   LNONCOLLINEAR =      F non collinear calculations
   LSORBIT =      F    spin-orbit coupling
   INIWAV =      1    electr: 0-lowe 1-rand  2-diag
   LASPH  =      F    aspherical Exc in radial PAW
   METAGGA=      F    non-selfconsistent MetaGGA calc.

 Electronic Relaxation 1
   ENCUT  =  600.0 eV  44.10 Ry    6.64 a.u.   8.75  8.55 39.94*2*pi/ulx,y,z
   ENINI  =  600.0     initial cutoff
   ENAUG  =  446.8 eV  augmentation charge cutoff
   NELM   =     60;   NELMIN=  2; NELMDL= -5     # of ELM steps 
   EDIFF  = 0.1E-05   stopping-criterion for ELM
   LREAL  =      F    real-space projection
   NLSPLINE    = F    spline interpolate recip. space projectors
   LCOMPAT=      F    compatible to vasp.4.4
   GGA_COMPAT  = T    GGA compatible to vasp.4.4-vasp.4.6
   LMAXPAW     = -100 max onsite density
   LMAXMIX     =    2 max onsite mixed and CHGCAR
   VOSKOWN=      0    Vosko Wilk Nusair interpolation
   ROPT   =    0.00000   0.00000
 Ionic relaxation
   EDIFFG = -.1E-02   stopping-criterion for IOM
   NSW    =    100    number of steps for IOM
   NBLOCK =      1;   KBLOCK =    100    inner block; outer block 
   IBRION =      2    ionic relax: 0-MD 1-quasi-New 2-CG
   NFREE  =      1    steps in history (QN), initial steepest desc. (CG)
   ISIF   =      2    stress and relaxation
   IWAVPR =     11    prediction:  0-non 1-charg 2-wave 3-comb
   ISYM   =      0    0-nonsym 1-usesym 2-fastsym
   LCORR  =      T    Harris-Foulkes like correction to forces

   POTIM  = 0.5000    time-step for ionic-motion
   TEIN   =    0.0    initial temperature
   TEBEG  =    0.0;   TEEND  =   0.0 temperature during run
   SMASS  =  -3.00    Nose mass-parameter (am)
   estimated Nose-frequenzy (Omega)   =  0.10E-29 period in steps =****** mass=  -0.439E-27a.u.
   SCALEE = 1.0000    scale energy and forces
   NPACO  =    256;   APACO  = 16.0  distance and # of slots for P.C.
   PSTRESS=    0.0 pullay stress

  Mass of Ions in am
   POMASS = 118.71 78.96
  Ionic Valenz
   ZVAL   =   4.00  6.00
  Atomic Wigner-Seitz radii
   RWIGS  =  -1.00 -1.00
  virtual crystal weights 
   VCA    =   1.00  1.00
   NELECT =      20.0000    total number of electrons
   NUPDOWN=      -1.0000    fix difference up-down

 DOS related values:
   EMIN   =  10.00;   EMAX   =-10.00  energy-range for DOS
   EFERMI =   0.00
   ISMEAR =     0;   SIGMA  =   0.10  broadening in eV -4-tet -1-fermi 0-gaus

 Electronic relaxation 2 (details)
   IALGO  =     38    algorithm
   LDIAG  =      T    sub-space diagonalisation (order eigenvalues)
   LSUBROT=      F    optimize rotation matrix (better conditioning)
   TURBO    =      0    0=normal 1=particle mesh
   IRESTART =      0    0=no restart 2=restart with 2 vectors
   NREBOOT  =      0    no. of reboots
   NMIN     =      0    reboot dimension
   EREF     =   0.00    reference energy to select bands
   IMIX   =      4    mixing-type and parameters
     AMIX     =   0.40;   BMIX     =  1.00
     AMIX_MAG =   1.60;   BMIX_MAG =  1.00
     AMIN     =   0.10
     WC   =   100.;   INIMIX=   1;  MIXPRE=   1;  MAXMIX= -45

 Intra band minimization:
   WEIMIN = 0.0010     energy-eigenvalue tresh-hold
   EBREAK =  0.18E-07  absolut break condition
   DEPER  =   0.30     relativ break condition  

   TIME   =   0.40     timestep for ELM

  volume/ion in A,a.u.               =      93.82       633.13
  Fermi-wavevector in a.u.,A,eV,Ry     =   0.616073  1.164209  5.164030  0.379546
  Thomas-Fermi vector in A             =   1.673670
 
 Write flags
   LWAVE        =      T    write WAVECAR
   LDOWNSAMPLE  =      F    k-point downsampling of WAVECAR
   LCHARG       =      T    write CHGCAR
   LVTOT        =      F    write LOCPOT, total local potential
   LVHAR        =      F    write LOCPOT, Hartree potential only
   LELF         =      F    write electronic localiz. function (ELF)
   LORBIT       =      0    0 simple, 1 ext, 2 COOP (PROOUT), +10 PAW based schemes


 Dipole corrections
   LMONO  =      F    monopole corrections only (constant potential shift)
   LDIPOL =      F    correct potential (dipole corrections)
   IDIPOL =      0    1-x, 2-y, 3-z, 4-all directions 
   EPSILON=  1.0000000 bulk dielectric constant

 Exchange correlation treatment:
   GGA     =    PE    GGA type
   LEXCH   =     8    internal setting for exchange type
   VOSKOWN=      0    Vosko Wilk Nusair interpolation
   LHFCALC =     F    Hartree Fock is set to
   LHFONE  =     F    Hartree Fock one center treatment
   AEXX    =    0.0000 exact exchange contribution

 Linear response parameters
   LEPSILON=     F    determine dielectric tensor
   LRPA    =     F    only Hartree local field effects (RPA)
   LNABLA  =     F    use nabla operator in PAW spheres
   LVEL    =     F    velocity operator in full k-point grid
   LINTERFAST=   F  fast interpolation
   KINTER  =     0    interpolate to denser k-point grid
   CSHIFT  =0.1000    complex shift for real part using Kramers Kronig
   OMEGAMAX=  -1.0    maximum frequency
   DEG_THRESHOLD= 0.2000000E-02 threshold for treating states as degnerate
   RTIME   =   -0.100 relaxation time in fs
  (WPLASMAI=    0.000 imaginary part of plasma frequency in eV, 0.658/RTIME)
   DFIELD  = 0.0000000 0.0000000 0.0000000 field for delta impulse in time
 
 Orbital magnetization related:
   ORBITALMAG=     F  switch on orbital magnetization
   LCHIMAG   =     F  perturbation theory with respect to B field
   DQ        =  0.001000  dq finite difference perturbation B field
   LLRAUG    =     F  two centre corrections for induced B field



--------------------------------------------------------------------------------------------------------


 conjugate gradient relaxation of ions
 charge density and potential will be updated during run
 non-spin polarized calculation
 Variant of blocked Davidson
 Davidson routine will perform the subspace rotation
 perform sub-space diagonalisation
    after iterative eigenvector-optimisation
 modified Broyden-mixing scheme, WC =      100.0
 initial mixing is a Kerker type mixing with AMIX =  0.4000 and BMIX =      1.0000
 Hartree-type preconditioning will be used
 using additional bands            4
 reciprocal scheme for non local part
 use partial core corrections
 calculate Harris-corrections to forces 
   (improved forces if not selfconsistent)
 use gradient corrections 
 use of overlap-Matrix (Vanderbilt PP)
 Gauss-broadening in eV      SIGMA  =   0.10


--------------------------------------------------------------------------------------------------------


  energy-cutoff  :      600.00
  volume of cell :      375.28
      direct lattice vectors                 reciprocal lattice vectors
     4.382356765  0.000000000  0.000000000     0.228187720  0.000000000  0.000000000
     0.000000000  4.281746663  0.000000000     0.000000000  0.233549549  0.000000000
     0.000000000  0.000000000 20.000000000     0.000000000  0.000000000  0.050000000

  length of vectors
     4.382356765  4.281746663 20.000000000     0.228187720  0.233549549  0.050000000


 
 k-points in units of 2pi/SCALE and weight: KMesh Grid                              
   0.00000000  0.00000000  0.00000000       0.004
   0.01521251  0.00000000  0.00000000       0.009
   0.03042503  0.00000000  0.00000000       0.009
   0.04563754  0.00000000  0.00000000       0.009
   0.06085006  0.00000000  0.00000000       0.009
   0.07606257  0.00000000  0.00000000       0.009
   0.09127509  0.00000000  0.00000000       0.009
   0.10648760  0.00000000  0.00000000       0.009
   0.00000000  0.01556997  0.00000000       0.009
   0.01521251  0.01556997  0.00000000       0.009
   0.03042503  0.01556997  0.00000000       0.009
   0.04563754  0.01556997  0.00000000       0.009
   0.06085006  0.01556997  0.00000000       0.009
   0.07606257  0.01556997  0.00000000       0.009
   0.09127509  0.01556997  0.00000000       0.009
   0.10648760  0.01556997  0.00000000       0.009
  -0.10648760  0.01556997  0.00000000       0.009
  -0.09127509  0.01556997  0.00000000       0.009
  -0.07606257  0.01556997  0.00000000       0.009
  -0.06085006  0.01556997  0.00000000       0.009
  -0.04563754  0.01556997  0.00000000       0.009
  -0.03042503  0.01556997  0.00000000       0.009
  -0.01521251  0.01556997  0.00000000       0.009
   0.00000000  0.03113994  0.00000000       0.009
   0.01521251  0.03113994  0.00000000       0.009
   0.03042503  0.03113994  0.00000000       0.009
   0.04563754  0.03113994  0.00000000       0.009
   0.06085006  0.03113994  0.00000000       0.009
   0.07606257  0.03113994  0.00000000       0.009
   0.09127509  0.03113994  0.00000000       0.009
   0.10648760  0.03113994  0.00000000       0.009
  -0.10648760  0.03113994  0.00000000       0.009
  -0.09127509  0.03113994  0.00000000       0.009
  -0.07606257  0.03113994  0.00000000       0.009
  -0.06085006  0.03113994  0.00000000       0.009
  -0.04563754  0.03113994  0.00000000       0.009
  -0.03042503  0.03113994  0.00000000       0.009
  -0.01521251  0.03113994  0.00000000       0.009
   0.00000000  0.04670991  0.00000000       0.009
   0.01521251  0.04670991  0.00000000       0.009
   0.03042503  0.04670991  0.00000000       0.009
   0.04563754  0.04670991  0.00000000       0.009
   0.06085006  0.04670991  0.00000000       0.009
   0.07606257  0.04670991  0.00000000       0.009
   0.09127509  0.04670991  0.00000000       0.009
   0.10648760  0.04670991  0.00000000       0.009
  -0.10648760  0.04670991  0.00000000       0.009
  -0.09127509  0.04670991  0.00000000       0.009
  -0.07606257  0.04670991  0.00000000       0.009
  -0.06085006  0.04670991  0.00000000       0.009
  -0.04563754  0.04670991  0.00000000       0.009
  -0.03042503  0.04670991  0.00000000       0.009
  -0.01521251  0.04670991  0.00000000       0.009
   0.00000000  0.06227988  0.00000000       0.009
   0.01521251  0.06227988  0.00000000       0.009
   0.03042503  0.06227988  0.00000000       0.009
   0.04563754  0.06227988  0.00000000       0.009
   0.06085006  0.06227988  0.00000000       0.009
   0.07606257  0.06227988  0.00000000       0.009
   0.09127509  0.06227988  0.00000000       0.009
   0.10648760  0.06227988  0.00000000       0.009
  -0.10648760  0.06227988  0.00000000       0.009
  -0.09127509  0.06227988  0.00000000       0.009
  -0.07606257  0.06227988  0.00000000       0.009
  -0.06085006  0.06227988  0.00000000       0.009
  -0.04563754  0.06227988  0.00000000       0.009
  -0.03042503  0.06227988  0.00000000       0.009
  -0.01521251  0.06227988  0.00000000       0.009
   0.00000000  0.07784985  0.00000000       0.009
   0.01521251  0.07784985  0.00000000       0.009
   0.03042503  0.07784985  0.00000000       0.009
   0.04563754  0.07784985  0.00000000       0.009
   0.06085006  0.07784985  0.00000000       0.009
   0.07606257  0.07784985  0.00000000       0.009
   0.09127509  0.07784985  0.00000000       0.009
   0.10648760  0.07784985  0.00000000       0.009
  -0.10648760  0.07784985  0.00000000       0.009
  -0.09127509  0.07784985  0.00000000       0.009
  -0.07606257  0.07784985  0.00000000       0.009
  -0.06085006  0.07784985  0.00000000       0.009
  -0.04563754  0.07784985  0.00000000       0.009
  -0.03042503  0.07784985  0.00000000       0.009
  -0.01521251  0.07784985  0.00000000       0.009
   0.00000000  0.09341982  0.00000000       0.009
   0.01521251  0.09341982  0.00000000       0.009
   0.03042503  0.09341982  0.00000000       0.009
   0.04563754  0.09341982  0.00000000       0.009
   0.06085006  0.09341982  0.00000000       0.009
   0.07606257  0.09341982  0.00000000       0.009
   0.09127509  0.09341982  0.00000000       0.009
   0.10648760  0.09341982  0.00000000       0.009
  -0.10648760  0.09341982  0.00000000       0.009
  -0.09127509  0.09341982  0.00000000       0.009
  -0.07606257  0.09341982  0.00000000       0.009
  -0.06085006  0.09341982  0.00000000       0.009
  -0.04563754  0.09341982  0.00000000       0.009
  -0.03042503  0.09341982  0.00000000       0.009
  -0.01521251  0.09341982  0.00000000       0.009
   0.00000000  0.10898979  0.00000000       0.009
   0.01521251  0.10898979  0.00000000       0.009
   0.03042503  0.10898979  0.00000000       0.009
   0.04563754  0.10898979  0.00000000       0.009
   0.06085006  0.10898979  0.00000000       0.009
   0.07606257  0.10898979  0.00000000       0.009
   0.09127509  0.10898979  0.00000000       0.009
   0.10648760  0.10898979  0.00000000       0.009
  -0.10648760  0.10898979  0.00000000       0.009
  -0.09127509  0.10898979  0.00000000       0.009
  -0.07606257  0.10898979  0.00000000       0.009
  -0.06085006  0.10898979  0.00000000       0.009
  -0.04563754  0.10898979  0.00000000       0.009
  -0.03042503  0.10898979  0.00000000       0.009
  -0.01521251  0.10898979  0.00000000       0.009
 
 k-points in reciprocal lattice and weights: KMesh Grid                              
   0.00000000  0.00000000  0.00000000       0.004
   0.06666667  0.00000000  0.00000000       0.009
   0.13333333  0.00000000  0.00000000       0.009
   0.20000000  0.00000000  0.00000000       0.009
   0.26666667  0.00000000  0.00000000       0.009
   0.33333333  0.00000000  0.00000000       0.009
   0.40000000  0.00000000  0.00000000       0.009
   0.46666667  0.00000000  0.00000000       0.009
   0.00000000  0.06666667  0.00000000       0.009
   0.06666667  0.06666667  0.00000000       0.009
   0.13333333  0.06666667  0.00000000       0.009
   0.20000000  0.06666667  0.00000000       0.009
   0.26666667  0.06666667  0.00000000       0.009
   0.33333333  0.06666667  0.00000000       0.009
   0.40000000  0.06666667  0.00000000       0.009
   0.46666667  0.06666667  0.00000000       0.009
  -0.46666667  0.06666667  0.00000000       0.009
  -0.40000000  0.06666667  0.00000000       0.009
  -0.33333333  0.06666667  0.00000000       0.009
  -0.26666667  0.06666667  0.00000000       0.009
  -0.20000000  0.06666667  0.00000000       0.009
  -0.13333333  0.06666667  0.00000000       0.009
  -0.06666667  0.06666667  0.00000000       0.009
   0.00000000  0.13333333  0.00000000       0.009
   0.06666667  0.13333333  0.00000000       0.009
   0.13333333  0.13333333  0.00000000       0.009
   0.20000000  0.13333333  0.00000000       0.009
   0.26666667  0.13333333  0.00000000       0.009
   0.33333333  0.13333333  0.00000000       0.009
   0.40000000  0.13333333  0.00000000       0.009
   0.46666667  0.13333333  0.00000000       0.009
  -0.46666667  0.13333333  0.00000000       0.009
  -0.40000000  0.13333333  0.00000000       0.009
  -0.33333333  0.13333333  0.00000000       0.009
  -0.26666667  0.13333333  0.00000000       0.009
  -0.20000000  0.13333333  0.00000000       0.009
  -0.13333333  0.13333333  0.00000000       0.009
  -0.06666667  0.13333333  0.00000000       0.009
   0.00000000  0.20000000  0.00000000       0.009
   0.06666667  0.20000000  0.00000000       0.009
   0.13333333  0.20000000  0.00000000       0.009
   0.20000000  0.20000000  0.00000000       0.009
   0.26666667  0.20000000  0.00000000       0.009
   0.33333333  0.20000000  0.00000000       0.009
   0.40000000  0.20000000  0.00000000       0.009
   0.46666667  0.20000000  0.00000000       0.009
  -0.46666667  0.20000000  0.00000000       0.009
  -0.40000000  0.20000000  0.00000000       0.009
  -0.33333333  0.20000000  0.00000000       0.009
  -0.26666667  0.20000000  0.00000000       0.009
  -0.20000000  0.20000000  0.00000000       0.009
  -0.13333333  0.20000000  0.00000000       0.009
  -0.06666667  0.20000000  0.00000000       0.009
   0.00000000  0.26666667  0.00000000       0.009
   0.06666667  0.26666667  0.00000000       0.009
   0.13333333  0.26666667  0.00000000       0.009
   0.20000000  0.26666667  0.00000000       0.009
   0.26666667  0.26666667  0.00000000       0.009
   0.33333333  0.26666667  0.00000000       0.009
   0.40000000  0.26666667  0.00000000       0.009
   0.46666667  0.26666667  0.00000000       0.009
  -0.46666667  0.26666667  0.00000000       0.009
  -0.40000000  0.26666667  0.00000000       0.009
  -0.33333333  0.26666667  0.00000000       0.009
  -0.26666667  0.26666667  0.00000000       0.009
  -0.20000000  0.26666667  0.00000000       0.009
  -0.13333333  0.26666667  0.00000000       0.009
  -0.06666667  0.26666667  0.00000000       0.009
   0.00000000  0.33333333  0.00000000       0.009
   0.06666667  0.33333333  0.00000000       0.009
   0.13333333  0.33333333  0.00000000       0.009
   0.20000000  0.33333333  0.00000000       0.009
   0.26666667  0.33333333  0.00000000       0.009
   0.33333333  0.33333333  0.00000000       0.009
   0.40000000  0.33333333  0.00000000       0.009
   0.46666667  0.33333333  0.00000000       0.009
  -0.46666667  0.33333333  0.00000000       0.009
  -0.40000000  0.33333333  0.00000000       0.009
  -0.33333333  0.33333333  0.00000000       0.009
  -0.26666667  0.33333333  0.00000000       0.009
  -0.20000000  0.33333333  0.00000000       0.009
  -0.13333333  0.33333333  0.00000000       0.009
  -0.06666667  0.33333333  0.00000000       0.009
   0.00000000  0.40000000  0.00000000       0.009
   0.06666667  0.40000000  0.00000000       0.009
   0.13333333  0.40000000  0.00000000       0.009
   0.20000000  0.40000000  0.00000000       0.009
   0.26666667  0.40000000  0.00000000       0.009
   0.33333333  0.40000000  0.00000000       0.009
   0.40000000  0.40000000  0.00000000       0.009
   0.46666667  0.40000000  0.00000000       0.009
  -0.46666667  0.40000000  0.00000000       0.009
  -0.40000000  0.40000000  0.00000000       0.009
  -0.33333333  0.40000000  0.00000000       0.009
  -0.26666667  0.40000000  0.00000000       0.009
  -0.20000000  0.40000000  0.00000000       0.009
  -0.13333333  0.40000000  0.00000000       0.009
  -0.06666667  0.40000000  0.00000000       0.009
   0.00000000  0.46666667  0.00000000       0.009
   0.06666667  0.46666667  0.00000000       0.009
   0.13333333  0.46666667  0.00000000       0.009
   0.20000000  0.46666667  0.00000000       0.009
   0.26666667  0.46666667  0.00000000       0.009
   0.33333333  0.46666667  0.00000000       0.009
   0.40000000  0.46666667  0.00000000       0.009
   0.46666667  0.46666667  0.00000000       0.009
  -0.46666667  0.46666667  0.00000000       0.009
  -0.40000000  0.46666667  0.00000000       0.009
  -0.33333333  0.46666667  0.00000000       0.009
  -0.26666667  0.46666667  0.00000000       0.009
  -0.20000000  0.46666667  0.00000000       0.009
  -0.13333333  0.46666667  0.00000000       0.009
  -0.06666667  0.46666667  0.00000000       0.009
 
 position of ions in fractional coordinates (direct lattice) 
   0.58124336  0.75000000  0.56874314
   0.08124336  0.25000000  0.43125686
   0.03286064  0.25000000  0.56707387
   0.53286061  0.75000000  0.43292613
 
 position of ions in cartesian coordinates  (Angst):
   2.54721576  3.21131000 11.37486283
   0.35603738  1.07043667  8.62513717
   0.14400706  1.07043667 11.34147733
   2.33518532  3.21131000  8.65852267
 


--------------------------------------------------------------------------------------------------------


 k-point  1 :   0.0000 0.0000 0.0000  plane waves:   12591
 k-point  2 :   0.0667 0.0000 0.0000  plane waves:   12563
 k-point  3 :   0.1333 0.0000 0.0000  plane waves:   12543
 k-point  4 :   0.2000 0.0000 0.0000  plane waves:   12513
 k-point  5 :   0.2667 0.0000 0.0000  plane waves:   12512
 k-point  6 :   0.3333 0.0000 0.0000  plane waves:   12550
 k-point  7 :   0.4000 0.0000 0.0000  plane waves:   12578
 k-point  8 :   0.4667 0.0000 0.0000  plane waves:   12550
 k-point  9 :   0.0000 0.0667 0.0000  plane waves:   12555
 k-point 10 :   0.0667 0.0667 0.0000  plane waves:   12542
 k-point 11 :   0.1333 0.0667 0.0000  plane waves:   12543
 k-point 12 :   0.2000 0.0667 0.0000  plane waves:   12530
 k-point 13 :   0.2667 0.0667 0.0000  plane waves:   12519
 k-point 14 :   0.3333 0.0667 0.0000  plane waves:   12546
 k-point 15 :   0.4000 0.0667 0.0000  plane waves:   12572
 k-point 16 :   0.4667 0.0667 0.0000  plane waves:   12568
 k-point 17 :  -0.4667 0.0667 0.0000  plane waves:   12568
 k-point 18 :  -0.4000 0.0667 0.0000  plane waves:   12572
 k-point 19 :  -0.3333 0.0667 0.0000  plane waves:   12546
 k-point 20 :  -0.2667 0.0667 0.0000  plane waves:   12519
 k-point 21 :  -0.2000 0.0667 0.0000  plane waves:   12530
 k-point 22 :  -0.1333 0.0667 0.0000  plane waves:   12543
 k-point 23 :  -0.0667 0.0667 0.0000  plane waves:   12542
 k-point 24 :   0.0000 0.1333 0.0000  plane waves:   12535
 k-point 25 :   0.0667 0.1333 0.0000  plane waves:   12546
 k-point 26 :   0.1333 0.1333 0.0000  plane waves:   12525
 k-point 27 :   0.2000 0.1333 0.0000  plane waves:   12509
 k-point 28 :   0.2667 0.1333 0.0000  plane waves:   12522
 k-point 29 :   0.3333 0.1333 0.0000  plane waves:   12549
 k-point 30 :   0.4000 0.1333 0.0000  plane waves:   12549
 k-point 31 :   0.4667 0.1333 0.0000  plane waves:   12539
 k-point 32 :  -0.4667 0.1333 0.0000  plane waves:   12539
 k-point 33 :  -0.4000 0.1333 0.0000  plane waves:   12549
 k-point 34 :  -0.3333 0.1333 0.0000  plane waves:   12549
 k-point 35 :  -0.2667 0.1333 0.0000  plane waves:   12522
 k-point 36 :  -0.2000 0.1333 0.0000  plane waves:   12509
 k-point 37 :  -0.1333 0.1333 0.0000  plane waves:   12525
 k-point 38 :  -0.0667 0.1333 0.0000  plane waves:   12546
 k-point 39 :   0.0000 0.2000 0.0000  plane waves:   12529
 k-point 40 :   0.0667 0.2000 0.0000  plane waves:   12535
 k-point 41 :   0.1333 0.2000 0.0000  plane waves:   12540
 k-point 42 :   0.2000 0.2000 0.0000  plane waves:   12527
 k-point 43 :   0.2667 0.2000 0.0000  plane waves:   12515
 k-point 44 :   0.3333 0.2000 0.0000  plane waves:   12525
 k-point 45 :   0.4000 0.2000 0.0000  plane waves:   12527
 k-point 46 :   0.4667 0.2000 0.0000  plane waves:   12533
 k-point 47 :  -0.4667 0.2000 0.0000  plane waves:   12533
 k-point 48 :  -0.4000 0.2000 0.0000  plane waves:   12527
 k-point 49 :  -0.3333 0.2000 0.0000  plane waves:   12525
 k-point 50 :  -0.2667 0.2000 0.0000  plane waves:   12515
 k-point 51 :  -0.2000 0.2000 0.0000  plane waves:   12527
 k-point 52 :  -0.1333 0.2000 0.0000  plane waves:   12540
 k-point 53 :  -0.0667 0.2000 0.0000  plane waves:   12535
 k-point 54 :   0.0000 0.2667 0.0000  plane waves:   12545
 k-point 55 :   0.0667 0.2667 0.0000  plane waves:   12528
 k-point 56 :   0.1333 0.2667 0.0000  plane waves:   12529
 k-point 57 :   0.2000 0.2667 0.0000  plane waves:   12515
 k-point 58 :   0.2667 0.2667 0.0000  plane waves:   12520
 k-point 59 :   0.3333 0.2667 0.0000  plane waves:   12527
 k-point 60 :   0.4000 0.2667 0.0000  plane waves:   12526
 k-point 61 :   0.4667 0.2667 0.0000  plane waves:   12525
 k-point 62 :  -0.4667 0.2667 0.0000  plane waves:   12525
 k-point 63 :  -0.4000 0.2667 0.0000  plane waves:   12526
 k-point 64 :  -0.3333 0.2667 0.0000  plane waves:   12527
 k-point 65 :  -0.2667 0.2667 0.0000  plane waves:   12520
 k-point 66 :  -0.2000 0.2667 0.0000  plane waves:   12515
 k-point 67 :  -0.1333 0.2667 0.0000  plane waves:   12529
 k-point 68 :  -0.0667 0.2667 0.0000  plane waves:   12528
 k-point 69 :   0.0000 0.3333 0.0000  plane waves:   12507
 k-point 70 :   0.0667 0.3333 0.0000  plane waves:   12495
 k-point 71 :   0.1333 0.3333 0.0000  plane waves:   12512
 k-point 72 :   0.2000 0.3333 0.0000  plane waves:   12521
 k-point 73 :   0.2667 0.3333 0.0000  plane waves:   12510
 k-point 74 :   0.3333 0.3333 0.0000  plane waves:   12500
 k-point 75 :   0.4000 0.3333 0.0000  plane waves:   12526
 k-point 76 :   0.4667 0.3333 0.0000  plane waves:   12522
 k-point 77 :  -0.4667 0.3333 0.0000  plane waves:   12522
 k-point 78 :  -0.4000 0.3333 0.0000  plane waves:   12526
 k-point 79 :  -0.3333 0.3333 0.0000  plane waves:   12500
 k-point 80 :  -0.2667 0.3333 0.0000  plane waves:   12510
 k-point 81 :  -0.2000 0.3333 0.0000  plane waves:   12521
 k-point 82 :  -0.1333 0.3333 0.0000  plane waves:   12512
 k-point 83 :  -0.0667 0.3333 0.0000  plane waves:   12495
 k-point 84 :   0.0000 0.4000 0.0000  plane waves:   12475
 k-point 85 :   0.0667 0.4000 0.0000  plane waves:   12496
 k-point 86 :   0.1333 0.4000 0.0000  plane waves:   12516
 k-point 87 :   0.2000 0.4000 0.0000  plane waves:   12511
 k-point 88 :   0.2667 0.4000 0.0000  plane waves:   12521
 k-point 89 :   0.3333 0.4000 0.0000  plane waves:   12502
 k-point 90 :   0.4000 0.4000 0.0000  plane waves:   12500
 k-point 91 :   0.4667 0.4000 0.0000  plane waves:   12503
 k-point 92 :  -0.4667 0.4000 0.0000  plane waves:   12503
 k-point 93 :  -0.4000 0.4000 0.0000  plane waves:   12500
 k-point 94 :  -0.3333 0.4000 0.0000  plane waves:   12502
 k-point 95 :  -0.2667 0.4000 0.0000  plane waves:   12521
 k-point 96 :  -0.2000 0.4000 0.0000  plane waves:   12511
 k-point 97 :  -0.1333 0.4000 0.0000  plane waves:   12516
 k-point 98 :  -0.0667 0.4000 0.0000  plane waves:   12496
 k-point 99 :   0.0000 0.4667 0.0000  plane waves:   12486
 k-point ** :   0.0667 0.4667 0.0000  plane waves:   12502
 k-point ** :   0.1333 0.4667 0.0000  plane waves:   12508
 k-point ** :   0.2000 0.4667 0.0000  plane waves:   12499
 k-point ** :   0.2667 0.4667 0.0000  plane waves:   12476
 k-point ** :   0.3333 0.4667 0.0000  plane waves:   12496
 k-point ** :   0.4000 0.4667 0.0000  plane waves:   12487
 k-point ** :   0.4667 0.4667 0.0000  plane waves:   12498
 k-point ** :  -0.4667 0.4667 0.0000  plane waves:   12498
 k-point ** :  -0.4000 0.4667 0.0000  plane waves:   12487
 k-point ** :  -0.3333 0.4667 0.0000  plane waves:   12496
 k-point ** :  -0.2667 0.4667 0.0000  plane waves:   12476
 k-point ** :  -0.2000 0.4667 0.0000  plane waves:   12499
 k-point ** :  -0.1333 0.4667 0.0000  plane waves:   12508
 k-point ** :  -0.0667 0.4667 0.0000  plane waves:   12502

 maximum and minimum number of plane-waves per node :       544      505

 maximum number of plane-waves:     12591
 maximum index in each direction: 
   IXMAX=    9   IYMAX=    8   IZMAX=   39
   IXMIN=   -9   IYMIN=   -9   IZMIN=  -39


 parallel 3D FFT for wavefunctions:
    minimum data exchange during FFTs selected (reduces bandwidth)
 parallel 3D FFT for charge:
    minimum data exchange during FFTs selected (reduces bandwidth)


 total amount of memory used by VASP MPI-rank0    63368. kBytes
=======================================================================

   base      :      30000. kBytes
   nonl-proj :      12538. kBytes
   fftplans  :       2678. kBytes
   grid      :       4349. kBytes
   one-center:          8. kBytes
   wavefun   :      13795. kBytes
 
     INWAV:  cpu time    0.0000: real time    0.0000
 Broyden mixing: mesh for mixing (old mesh)
   NGX = 17   NGY = 17   NGZ = 79
  (NGX  = 72   NGY  = 72   NGZ  =320)
  gives a total of  22831 points

 initial charge density was supplied:
 charge density of overlapping atoms calculated
 number of electron      20.0000000 magnetization 
 keeping initial charge density in first step


--------------------------------------------------------------------------------------------------------


 Maximum index for augmentation-charges         2238 (set IRDMAX)


--------------------------------------------------------------------------------------------------------


 First call to EWALD:  gamma=   0.246
 Maximum number of real-space cells 4x 4x 1
 Maximum number of reciprocal cells 2x 2x 7

    FEWALD:  cpu time    0.0014: real time    0.0013


--------------------------------------- Iteration      1(   1)  ---------------------------------------


    POTLOK:  cpu time    0.7643: real time    1.6934
    SETDIJ:  cpu time    0.0381: real time    0.0670
     EDDAV:  cpu time    4.5611: real time    6.5862
       DOS:  cpu time    0.0051: real time    0.0054
    --------------------------------------------
      LOOP:  cpu time    5.3686: real time    8.3520

 eigenvalue-minimisations  :  3164
 total energy-change (2. order) : 0.1451163E+03  (-0.6287785E+03)
 number of electron      20.0000000 magnetization 
 augmentation part       20.0000000 magnetization 

 Free energy of the ion-electron system (eV)
  ---------------------------------------------------
  alpha Z        PSCENC =         9.52803764
  Ewald energy   TEWEN  =      1156.75604983
  -Hartree energ DENC   =     -1758.69613106
  -exchange      EXHF   =         0.00000000
  -V(xc)+E(xc)   XCENC  =      -238.57027910
  PAW double counting   =       799.43158084     -524.17639913
  entropy T*S    EENTRO =        -0.01128642
  eigenvalues    EBANDS =        -1.57313971
  atomic energy  EATOM  =       702.42789710
  Solvation  Ediel_sol  =         0.00000000
  ---------------------------------------------------
  free energy    TOTEN  =       145.11633000 eV

  energy without entropy =      145.12761642  energy(sigma->0) =      145.12197321


--------------------------------------------------------------------------------------------------------




--------------------------------------- Iteration      1(   2)  ---------------------------------------


     EDDAV:  cpu time    3.6826: real time    3.6909
       DOS:  cpu time    0.0051: real time    0.0051
    --------------------------------------------
      LOOP:  cpu time    3.6877: real time    3.6960

 eigenvalue-minimisations  :  5230
 total energy-change (2. order) :-0.1402986E+03  (-0.1358303E+03)
 number of electron      20.0000000 magnetization 
 augmentation part       20.0000000 magnetization 

 Free energy of the ion-electron system (eV)
  ---------------------------------------------------
  alpha Z        PSCENC =         9.52803764
  Ewald energy   TEWEN  =      1156.75604983
  -Hartree energ DENC   =     -1758.69613106
  -exchange      EXHF   =         0.00000000
  -V(xc)+E(xc)   XCENC  =      -238.57027910
  PAW double counting   =       799.43158084     -524.17639913
  entropy T*S    EENTRO =        -0.00201096
  eigenvalues    EBANDS =      -141.88098432
  atomic energy  EATOM  =       702.42789710
  Solvation  Ediel_sol  =         0.00000000
  ---------------------------------------------------
  free energy    TOTEN  =         4.81776085 eV

  energy without entropy =        4.81977180  energy(sigma->0) =        4.81876632


--------------------------------------------------------------------------------------------------------




--------------------------------------- Iteration      1(   3)  ---------------------------------------


     EDDAV:  cpu time    3.0323: real time    3.0391
       DOS:  cpu time    0.0034: real time    0.0033
    --------------------------------------------
      LOOP:  cpu time    3.0357: real time    3.0425

 eigenvalue-minimisations  :  4052
 total energy-change (2. order) :-0.2079169E+02  (-0.2061287E+02)
 number of electron      20.0000000 magnetization 
 augmentation part       20.0000000 magnetization 

 Free energy of the ion-electron system (eV)
  ---------------------------------------------------
  alpha Z        PSCENC =         9.52803764
  Ewald energy   TEWEN  =      1156.75604983
  -Hartree energ DENC   =     -1758.69613106
  -exchange      EXHF   =         0.00000000
  -V(xc)+E(xc)   XCENC  =      -238.57027910
  PAW double counting   =       799.43158084     -524.17639913
  entropy T*S    EENTRO =        -0.00000000
  eigenvalues    EBANDS =      -162.67468405
  atomic energy  EATOM  =       702.42789710
  Solvation  Ediel_sol  =         0.00000000
  ---------------------------------------------------
  free energy    TOTEN  =       -15.97392792 eV

  energy without entropy =      -15.97392792  energy(sigma->0) =      -15.97392792


--------------------------------------------------------------------------------------------------------




--------------------------------------- Iteration      1(   4)  ---------------------------------------


     EDDAV:  cpu time    3.2691: real time    3.2762
       DOS:  cpu time    0.0034: real time    0.0034
    --------------------------------------------
      LOOP:  cpu time    3.2725: real time    3.2797

 eigenvalue-minimisations  :  4476
 total energy-change (2. order) :-0.8019065E+00  (-0.7997678E+00)
 number of electron      20.0000000 magnetization 
 augmentation part       20.0000000 magnetization 

 Free energy of the ion-electron system (eV)
  ---------------------------------------------------
  alpha Z        PSCENC =         9.52803764
  Ewald energy   TEWEN  =      1156.75604983
  -Hartree energ DENC   =     -1758.69613106
  -exchange      EXHF   =         0.00000000
  -V(xc)+E(xc)   XCENC  =      -238.57027910
  PAW double counting   =       799.43158084     -524.17639913
  entropy T*S    EENTRO =        -0.00000000
  eigenvalues    EBANDS =      -163.47659056
  atomic energy  EATOM  =       702.42789710
  Solvation  Ediel_sol  =         0.00000000
  ---------------------------------------------------
  free energy    TOTEN  =       -16.77583443 eV

  energy without entropy =      -16.77583443  energy(sigma->0) =      -16.77583443


--------------------------------------------------------------------------------------------------------




--------------------------------------- Iteration      1(   5)  ---------------------------------------


     EDDAV:  cpu time    3.1063: real time    3.1131
       DOS:  cpu time    0.0036: real time    0.0036
    CHARGE:  cpu time    0.2190: real time    0.2198
    MIXING:  cpu time    0.0056: real time    0.0057
    --------------------------------------------
      LOOP:  cpu time    3.3344: real time    3.3423

 eigenvalue-minimisations  :  4210
 total energy-change (2. order) :-0.1798095E-01  (-0.1796367E-01)
 number of electron      20.0000000 magnetization 
 augmentation part       -4.5236648 magnetization 

 Broyden mixing:
  rms(total) = 0.45254E+00    rms(broyden)= 0.45254E+00
  rms(prec ) = 0.49280E+00
  weight for this iteration     100.00

 Free energy of the ion-electron system (eV)
  ---------------------------------------------------
  alpha Z        PSCENC =         9.52803764
  Ewald energy   TEWEN  =      1156.75604983
  -Hartree energ DENC   =     -1758.69613106
  -exchange      EXHF   =         0.00000000
  -V(xc)+E(xc)   XCENC  =      -238.57027910
  PAW double counting   =       799.43158084     -524.17639913
  entropy T*S    EENTRO =        -0.00000000
  eigenvalues    EBANDS =      -163.49457150
  atomic energy  EATOM  =       702.42789710
  Solvation  Ediel_sol  =         0.00000000
  ---------------------------------------------------
  free energy    TOTEN  =       -16.79381538 eV

  energy without entropy =      -16.79381538  energy(sigma->0) =      -16.79381538


--------------------------------------------------------------------------------------------------------




--------------------------------------- Iteration      1(   6)  ---------------------------------------


    POTLOK:  cpu time    0.0405: real time    0.0406
    SETDIJ:  cpu time    0.0035: real time    0.0035
     EDDAV:  cpu time    3.0793: real time    3.0865
       DOS:  cpu time    0.0036: real time    0.0036
    CHARGE:  cpu time    0.2501: real time    0.2504
    MIXING:  cpu time    0.0019: real time    0.0021
    --------------------------------------------
      LOOP:  cpu time    3.3789: real time    3.3867

 eigenvalue-minimisations  :  3930
 total energy-change (2. order) : 0.4878459E+00  (-0.1237360E+00)
 number of electron      20.0000000 magnetization 
 augmentation part       -4.4911757 magnetization 

 Broyden mixing:
  rms(total) = 0.27780E+00    rms(broyden)= 0.27780E+00
  rms(prec ) = 0.28694E+00
  weight for this iteration     100.00

 eigenvalues of (default mixing * dielectric matrix)
  average eigenvalue GAMMA=   1.8096
  1.8096

 Free energy of the ion-electron system (eV)
  ---------------------------------------------------
  alpha Z        PSCENC =         9.52803764
  Ewald energy   TEWEN  =      1156.75604983
  -Hartree energ DENC   =     -1766.57032089
  -exchange      EXHF   =         0.00000000
  -V(xc)+E(xc)   XCENC  =      -238.08787861
  PAW double counting   =       924.84667448     -649.77480765
  entropy T*S    EENTRO =        -0.00000000
  eigenvalues    EBANDS =      -155.43162135
  atomic energy  EATOM  =       702.42789710
  Solvation  Ediel_sol  =         0.00000000
  ---------------------------------------------------
  free energy    TOTEN  =       -16.30596944 eV

  energy without entropy =      -16.30596944  energy(sigma->0) =      -16.30596944


--------------------------------------------------------------------------------------------------------




--------------------------------------- Iteration      1(   7)  ---------------------------------------


    POTLOK:  cpu time    0.0444: real time    0.0446
    SETDIJ:  cpu time    0.0040: real time    0.0040
     EDDAV:  cpu time    3.6228: real time    3.6306
       DOS:  cpu time    0.0036: real time    0.0036
    CHARGE:  cpu time    0.2546: real time    0.2550
    MIXING:  cpu time    0.0018: real time    0.0020
    --------------------------------------------
      LOOP:  cpu time    3.9313: real time    3.9398

 eigenvalue-minimisations  :  4204
 total energy-change (2. order) : 0.2797643E-01  (-0.3134299E-01)
 number of electron      20.0000000 magnetization 
 augmentation part       -4.4826905 magnetization 

 Broyden mixing:
  rms(total) = 0.10443E+00    rms(broyden)= 0.10443E+00
  rms(prec ) = 0.10985E+00
  weight for this iteration     100.00

 eigenvalues of (default mixing * dielectric matrix)
  average eigenvalue GAMMA=   1.7328
  1.3719  2.0937

 Free energy of the ion-electron system (eV)
  ---------------------------------------------------
  alpha Z        PSCENC =         9.52803764
  Ewald energy   TEWEN  =      1156.75604983
  -Hartree energ DENC   =     -1771.64113521
  -exchange      EXHF   =         0.00000000
  -V(xc)+E(xc)   XCENC  =      -237.76131803
  PAW double counting   =      1067.48473513     -792.55388167
  entropy T*S    EENTRO =        -0.00000000
  eigenvalues    EBANDS =      -150.51837781
  atomic energy  EATOM  =       702.42789710
  Solvation  Ediel_sol  =         0.00000000
  ---------------------------------------------------
  free energy    TOTEN  =       -16.27799301 eV

  energy without entropy =      -16.27799301  energy(sigma->0) =      -16.27799301


--------------------------------------------------------------------------------------------------------




--------------------------------------- Iteration      1(   8)  ---------------------------------------


    POTLOK:  cpu time    0.0448: real time    0.0449
    SETDIJ:  cpu time    0.0069: real time    0.0069
     EDDAV:  cpu time    3.7632: real time    3.7713
       DOS:  cpu time    0.0036: real time    0.0036
    CHARGE:  cpu time    0.2572: real time    0.2582
    MIXING:  cpu time    0.0018: real time    0.0018
    --------------------------------------------
      LOOP:  cpu time    4.0775: real time    4.0868

 eigenvalue-minimisations  :  4414
 total energy-change (2. order) : 0.9722840E-02  (-0.3851487E-02)
 number of electron      20.0000000 magnetization 
 augmentation part       -4.4868693 magnetization 

 Broyden mixing:
  rms(total) = 0.20411E-01    rms(broyden)= 0.20411E-01
  rms(prec ) = 0.27849E-01
  weight for this iteration     100.00

 eigenvalues of (default mixing * dielectric matrix)
  average eigenvalue GAMMA=   1.7123
  2.5357  1.3006  1.3006

 Free energy of the ion-electron system (eV)
  ---------------------------------------------------
  alpha Z        PSCENC =         9.52803764
  Ewald energy   TEWEN  =      1156.75604983
  -Hartree energ DENC   =     -1773.34348283
  -exchange      EXHF   =         0.00000000
  -V(xc)+E(xc)   XCENC  =      -237.68285230
  PAW double counting   =      1133.27645887     -858.38455409
  entropy T*S    EENTRO =        -0.00000000
  eigenvalues    EBANDS =      -148.84582439
  atomic energy  EATOM  =       702.42789710
  Solvation  Ediel_sol  =         0.00000000
  ---------------------------------------------------
  free energy    TOTEN  =       -16.26827018 eV

  energy without entropy =      -16.26827018  energy(sigma->0) =      -16.26827018


--------------------------------------------------------------------------------------------------------




--------------------------------------- Iteration      1(   9)  ---------------------------------------


    POTLOK:  cpu time    0.0489: real time    0.0490
    SETDIJ:  cpu time    0.0040: real time    0.0040
     EDDAV:  cpu time    3.6958: real time    3.7038
       DOS:  cpu time    0.0036: real time    0.0036
    CHARGE:  cpu time    0.2594: real time    0.2598
    MIXING:  cpu time    0.0021: real time    0.0021
    --------------------------------------------
      LOOP:  cpu time    4.0139: real time    4.0224

 eigenvalue-minimisations  :  4328
 total energy-change (2. order) : 0.3760805E-02  (-0.6640369E-03)
 number of electron      20.0000000 magnetization 
 augmentation part       -4.4849358 magnetization 

 Broyden mixing:
  rms(total) = 0.10114E-01    rms(broyden)= 0.10114E-01
  rms(prec ) = 0.15658E-01
  weight for this iteration     100.00

 eigenvalues of (default mixing * dielectric matrix)
  average eigenvalue GAMMA=   1.6969
  2.2028  2.2028  1.1911  1.1911

 Free energy of the ion-electron system (eV)
  ---------------------------------------------------
  alpha Z        PSCENC =         9.52803764
  Ewald energy   TEWEN  =      1156.75604983
  -Hartree energ DENC   =     -1775.34076510
  -exchange      EXHF   =         0.00000000
  -V(xc)+E(xc)   XCENC  =      -237.60913277
  PAW double counting   =      1151.60924309     -876.72946410
  entropy T*S    EENTRO =        -0.00000000
  eigenvalues    EBANDS =      -146.90637507
  atomic energy  EATOM  =       702.42789710
  Solvation  Ediel_sol  =         0.00000000
  ---------------------------------------------------
  free energy    TOTEN  =       -16.26450937 eV

  energy without entropy =      -16.26450937  energy(sigma->0) =      -16.26450937


--------------------------------------------------------------------------------------------------------




--------------------------------------- Iteration      1(  10)  ---------------------------------------


    POTLOK:  cpu time    0.0451: real time    0.0453
    SETDIJ:  cpu time    0.0041: real time    0.0041
     EDDAV:  cpu time    3.5663: real time    3.5742
       DOS:  cpu time    0.0036: real time    0.0036
    CHARGE:  cpu time    0.2518: real time    0.2522
    MIXING:  cpu time    0.0022: real time    0.0022
    --------------------------------------------
      LOOP:  cpu time    3.8731: real time    3.8815

 eigenvalue-minimisations  :  4346
 total energy-change (2. order) : 0.1232719E-02  (-0.1154021E-03)
 number of electron      20.0000000 magnetization 
 augmentation part       -4.4837005 magnetization 

 Broyden mixing:
  rms(total) = 0.51751E-02    rms(broyden)= 0.51751E-02
  rms(prec ) = 0.94814E-02
  weight for this iteration     100.00

 eigenvalues of (default mixing * dielectric matrix)
  average eigenvalue GAMMA=   1.8712
  3.3637  2.6007  1.2429  1.2429  0.9060

 Free energy of the ion-electron system (eV)
  ---------------------------------------------------
  alpha Z        PSCENC =         9.52803764
  Ewald energy   TEWEN  =      1156.75604983
  -Hartree energ DENC   =     -1776.57836385
  -exchange      EXHF   =         0.00000000
  -V(xc)+E(xc)   XCENC  =      -237.59872063
  PAW double counting   =      1141.04258410     -866.15262209
  entropy T*S    EENTRO =        -0.00000000
  eigenvalues    EBANDS =      -145.68813875
  atomic energy  EATOM  =       702.42789710
  Solvation  Ediel_sol  =         0.00000000
  ---------------------------------------------------
  free energy    TOTEN  =       -16.26327665 eV

  energy without entropy =      -16.26327665  energy(sigma->0) =      -16.26327665


--------------------------------------------------------------------------------------------------------




--------------------------------------- Iteration      1(  11)  ---------------------------------------


    POTLOK:  cpu time    0.0450: real time    0.0451
    SETDIJ:  cpu time    0.0040: real time    0.0040
     EDDAV:  cpu time    3.6850: real time    3.6926
       DOS:  cpu time    0.0037: real time    0.0037
    CHARGE:  cpu time    0.2536: real time    0.2540
    MIXING:  cpu time    0.0020: real time    0.0020
    --------------------------------------------
      LOOP:  cpu time    3.9933: real time    4.0014

 eigenvalue-minimisations  :  4310
 total energy-change (2. order) : 0.7579058E-03  (-0.1319710E-03)
 number of electron      20.0000000 magnetization 
 augmentation part       -4.4822848 magnetization 

 Broyden mixing:
  rms(total) = 0.33226E-02    rms(broyden)= 0.33226E-02
  rms(prec ) = 0.50226E-02
  weight for this iteration     100.00

 eigenvalues of (default mixing * dielectric matrix)
  average eigenvalue GAMMA=   1.8284
  3.3929  2.3180  1.9919  1.1946  1.1946  0.8782

 Free energy of the ion-electron system (eV)
  ---------------------------------------------------
  alpha Z        PSCENC =         9.52803764
  Ewald energy   TEWEN  =      1156.75604983
  -Hartree energ DENC   =     -1778.21835601
  -exchange      EXHF   =         0.00000000
  -V(xc)+E(xc)   XCENC  =      -237.56674606
  PAW double counting   =      1142.32806096     -867.43690613
  entropy T*S    EENTRO =        -0.00000000
  eigenvalues    EBANDS =      -144.08055609
  atomic energy  EATOM  =       702.42789710
  Solvation  Ediel_sol  =         0.00000000
  ---------------------------------------------------
  free energy    TOTEN  =       -16.26251874 eV

  energy without entropy =      -16.26251874  energy(sigma->0) =      -16.26251874


--------------------------------------------------------------------------------------------------------




--------------------------------------- Iteration      1(  12)  ---------------------------------------


    POTLOK:  cpu time    0.0453: real time    0.0454
    SETDIJ:  cpu time    0.0042: real time    0.0042
     EDDAV:  cpu time    3.2670: real time    3.2743
       DOS:  cpu time    0.0036: real time    0.0036
    CHARGE:  cpu time    0.2536: real time    0.2540
    MIXING:  cpu time    0.0021: real time    0.0020
    --------------------------------------------
      LOOP:  cpu time    3.5758: real time    3.5835

 eigenvalue-minimisations  :  3620
 total energy-change (2. order) :-0.8037796E-03  (-0.2911513E-04)
 number of electron      20.0000000 magnetization 
 augmentation part       -4.4816750 magnetization 

 Broyden mixing:
  rms(total) = 0.18596E-02    rms(broyden)= 0.18596E-02
  rms(prec ) = 0.28666E-02
  weight for this iteration     100.00

 eigenvalues of (default mixing * dielectric matrix)
  average eigenvalue GAMMA=   2.0688
  4.6084  3.0818  2.5016  1.2102  1.2102  1.0270  0.8426

 Free energy of the ion-electron system (eV)
  ---------------------------------------------------
  alpha Z        PSCENC =         9.52803764
  Ewald energy   TEWEN  =      1156.75604983
  -Hartree energ DENC   =     -1778.82889226
  -exchange      EXHF   =         0.00000000
  -V(xc)+E(xc)   XCENC  =      -237.55734726
  PAW double counting   =      1144.29478912     -869.40646127
  entropy T*S    EENTRO =        -0.00000000
  eigenvalues    EBANDS =      -143.47739543
  atomic energy  EATOM  =       702.42789710
  Solvation  Ediel_sol  =         0.00000000
  ---------------------------------------------------
  free energy    TOTEN  =       -16.26332252 eV

  energy without entropy =      -16.26332252  energy(sigma->0) =      -16.26332252


--------------------------------------------------------------------------------------------------------




--------------------------------------- Iteration      1(  13)  ---------------------------------------


    POTLOK:  cpu time    0.0456: real time    0.0458
    SETDIJ:  cpu time    0.0040: real time    0.0040
     EDDAV:  cpu time    3.3353: real time    3.3423
       DOS:  cpu time    0.0036: real time    0.0036
    CHARGE:  cpu time    0.2532: real time    0.2536
    MIXING:  cpu time    0.0022: real time    0.0022
    --------------------------------------------
      LOOP:  cpu time    3.6440: real time    3.6515

 eigenvalue-minimisations  :  3722
 total energy-change (2. order) :-0.4534755E-03  (-0.8389952E-05)
 number of electron      20.0000000 magnetization 
 augmentation part       -4.4814552 magnetization 

 Broyden mixing:
  rms(total) = 0.11643E-02    rms(broyden)= 0.11643E-02
  rms(prec ) = 0.15357E-02
  weight for this iteration     100.00

 eigenvalues of (default mixing * dielectric matrix)
  average eigenvalue GAMMA=   2.2232
  5.5481  3.3182  2.5083  2.1147  1.1613  1.1613  1.0660  0.9072

 Free energy of the ion-electron system (eV)
  ---------------------------------------------------
  alpha Z        PSCENC =         9.52803764
  Ewald energy   TEWEN  =      1156.75604983
  -Hartree energ DENC   =     -1779.26124125
  -exchange      EXHF   =         0.00000000
  -V(xc)+E(xc)   XCENC  =      -237.55589174
  PAW double counting   =      1143.08028374     -868.19073663
  entropy T*S    EENTRO =        -0.00000000
  eigenvalues    EBANDS =      -143.04817469
  atomic energy  EATOM  =       702.42789710
  Solvation  Ediel_sol  =         0.00000000
  ---------------------------------------------------
  free energy    TOTEN  =       -16.26377600 eV

  energy without entropy =      -16.26377600  energy(sigma->0) =      -16.26377600


--------------------------------------------------------------------------------------------------------




--------------------------------------- Iteration      1(  14)  ---------------------------------------


    POTLOK:  cpu time    0.0467: real time    0.0468
    SETDIJ:  cpu time    0.0041: real time    0.0041
     EDDAV:  cpu time    3.3467: real time    3.3542
       DOS:  cpu time    0.0036: real time    0.0036
    CHARGE:  cpu time    0.2558: real time    0.2562
    MIXING:  cpu time    0.0023: real time    0.0023
    --------------------------------------------
      LOOP:  cpu time    3.6592: real time    3.6672

 eigenvalue-minimisations  :  3938
 total energy-change (2. order) :-0.2636570E-03  (-0.4126762E-05)
 number of electron      20.0000000 magnetization 
 augmentation part       -4.4814254 magnetization 

 Broyden mixing:
  rms(total) = 0.39962E-03    rms(broyden)= 0.39962E-03
  rms(prec ) = 0.62045E-03
  weight for this iteration     100.00

 eigenvalues of (default mixing * dielectric matrix)
  average eigenvalue GAMMA=   2.2406
  6.7328  3.0752  2.5282  2.5282  1.1864  1.1864  1.0635  0.9324  0.9324

 Free energy of the ion-electron system (eV)
  ---------------------------------------------------
  alpha Z        PSCENC =         9.52803764
  Ewald energy   TEWEN  =      1156.75604983
  -Hartree energ DENC   =     -1779.46920831
  -exchange      EXHF   =         0.00000000
  -V(xc)+E(xc)   XCENC  =      -237.55572019
  PAW double counting   =      1143.37401898     -868.48394582
  entropy T*S    EENTRO =        -0.00000000
  eigenvalues    EBANDS =      -142.84116889
  atomic energy  EATOM  =       702.42789710
  Solvation  Ediel_sol  =         0.00000000
  ---------------------------------------------------
  free energy    TOTEN  =       -16.26403966 eV

  energy without entropy =      -16.26403966  energy(sigma->0) =      -16.26403966


--------------------------------------------------------------------------------------------------------




--------------------------------------- Iteration      1(  15)  ---------------------------------------


    POTLOK:  cpu time    0.0464: real time    0.0467
    SETDIJ:  cpu time    0.0039: real time    0.0039
     EDDAV:  cpu time    3.4058: real time    3.4134
       DOS:  cpu time    0.0036: real time    0.0036
    CHARGE:  cpu time    0.2569: real time    0.2578
    MIXING:  cpu time    0.0024: real time    0.0024
    --------------------------------------------
      LOOP:  cpu time    3.7189: real time    3.7279

 eigenvalue-minimisations  :  3800
 total energy-change (2. order) :-0.5624290E-04  (-0.1991405E-06)
 number of electron      20.0000000 magnetization 
 augmentation part       -4.4814436 magnetization 

 Broyden mixing:
  rms(total) = 0.33351E-03    rms(broyden)= 0.33351E-03
  rms(prec ) = 0.50732E-03
  weight for this iteration     100.00

 eigenvalues of (default mixing * dielectric matrix)
  average eigenvalue GAMMA=   2.3472
  6.5202  4.2306  2.6994  2.6994  1.9591  1.1443  1.1443  1.2049  0.9346  0.9346

 Free energy of the ion-electron system (eV)
  ---------------------------------------------------
  alpha Z        PSCENC =         9.52803764
  Ewald energy   TEWEN  =      1156.75604983
  -Hartree energ DENC   =     -1779.48519359
  -exchange      EXHF   =         0.00000000
  -V(xc)+E(xc)   XCENC  =      -237.55607364
  PAW double counting   =      1143.19232582     -868.30210939
  entropy T*S    EENTRO =        -0.00000000
  eigenvalues    EBANDS =      -142.82502968
  atomic energy  EATOM  =       702.42789710
  Solvation  Ediel_sol  =         0.00000000
  ---------------------------------------------------
  free energy    TOTEN  =       -16.26409590 eV

  energy without entropy =      -16.26409590  energy(sigma->0) =      -16.26409590


--------------------------------------------------------------------------------------------------------




--------------------------------------- Iteration      1(  16)  ---------------------------------------


    POTLOK:  cpu time    0.0472: real time    0.0473
    SETDIJ:  cpu time    0.0040: real time    0.0040
     EDDAV:  cpu time    3.1645: real time    3.1712
       DOS:  cpu time    0.0036: real time    0.0036
    CHARGE:  cpu time    0.2553: real time    0.2557
    MIXING:  cpu time    0.0024: real time    0.0024
    --------------------------------------------
      LOOP:  cpu time    3.4769: real time    3.4842

 eigenvalue-minimisations  :  3510
 total energy-change (2. order) :-0.4779320E-04  (-0.8334493E-06)
 number of electron      20.0000000 magnetization 
 augmentation part       -4.4814587 magnetization 

 Broyden mixing:
  rms(total) = 0.13318E-03    rms(broyden)= 0.13318E-03
  rms(prec ) = 0.23341E-03
  weight for this iteration     100.00

 eigenvalues of (default mixing * dielectric matrix)
  average eigenvalue GAMMA=   2.2791
  6.8051  4.4768  2.6527  2.6527  2.2523  1.1596  1.1596  1.1822  0.9296  0.9296
  0.8693

 Free energy of the ion-electron system (eV)
  ---------------------------------------------------
  alpha Z        PSCENC =         9.52803764
  Ewald energy   TEWEN  =      1156.75604983
  -Hartree energ DENC   =     -1779.53675273
  -exchange      EXHF   =         0.00000000
  -V(xc)+E(xc)   XCENC  =      -237.55621296
  PAW double counting   =      1143.01868781     -868.12844606
  entropy T*S    EENTRO =        -0.00000000
  eigenvalues    EBANDS =      -142.77340432
  atomic energy  EATOM  =       702.42789710
  Solvation  Ediel_sol  =         0.00000000
  ---------------------------------------------------
  free energy    TOTEN  =       -16.26414369 eV

  energy without entropy =      -16.26414369  energy(sigma->0) =      -16.26414369


--------------------------------------------------------------------------------------------------------




--------------------------------------- Iteration      1(  17)  ---------------------------------------


    POTLOK:  cpu time    0.0450: real time    0.0452
    SETDIJ:  cpu time    0.0041: real time    0.0041
     EDDAV:  cpu time    2.9664: real time    2.9730
       DOS:  cpu time    0.0036: real time    0.0036
    CHARGE:  cpu time    0.2523: real time    0.2527
    MIXING:  cpu time    0.0024: real time    0.0024
    --------------------------------------------
[...]
      3      -8.6472      2.00000
      4      -8.5008      2.00000
      5      -6.3944      2.00000
      6      -5.5138      2.00000
      7      -5.0722      2.00000
      8      -4.3498      2.00000
      9      -3.9608      2.00000
     10      -3.3735      2.00000
     11       0.5306      0.00000
     12       1.3399      0.00000
     13       1.5941      0.00000
     14       2.2460      0.00000

 k-point    95 :      -0.2667    0.4000    0.0000
  band No.  band energies     occupation 
      1     -14.5552      2.00000
      2     -14.3000      2.00000
      3      -8.8278      2.00000
      4      -8.6052      2.00000
      5      -6.0784      2.00000
      6      -5.1190      2.00000
      7      -4.8299      2.00000
      8      -4.0900      2.00000
      9      -3.8680      2.00000
     10      -3.0879      2.00000
     11       0.1298      0.00000
     12       1.0791      0.00000
     13       1.1763      0.00000
     14       1.5862      0.00000

 k-point    96 :      -0.2000    0.4000    0.0000
  band No.  band energies     occupation 
      1     -14.6249      2.00000
      2     -14.3227      2.00000
      3      -8.9922      2.00000
      4      -8.7077      2.00000
      5      -5.6412      2.00000
      6      -4.8297      2.00000
      7      -4.5618      2.00000
      8      -3.9554      2.00000
      9      -3.5010      2.00000
     10      -2.7100      2.00000
     11      -0.3463      0.00000
     12       0.5650      0.00000
     13       0.7105      0.00000
     14       1.2281      0.00000

 k-point    97 :      -0.1333    0.4000    0.0000
  band No.  band energies     occupation 
      1     -14.6806      2.00000
      2     -14.3454      2.00000
      3      -9.1196      2.00000
      4      -8.7921      2.00000
      5      -5.1234      2.00000
      6      -4.7674      2.00000
      7      -4.1499      2.00000
      8      -3.9115      2.00000
      9      -2.9352      2.00000
     10      -2.4781      2.00000
     11      -0.6299      0.00000
     12      -0.1671      0.00000
     13       0.4895      0.00000
     14       0.7943      0.00000

 k-point    98 :      -0.0667    0.4000    0.0000
  band No.  band energies     occupation 
      1     -14.7165      2.00000
      2     -14.3617      2.00000
      3      -9.1994      2.00000
      4      -8.8469      2.00000
      5      -4.7722      2.00000
      6      -4.5878      2.00000
      7      -3.9390      2.00000
      8      -3.7409      2.00000
      9      -2.6441      2.00000
     10      -2.3600      2.00000
     11      -0.7647      0.00000
     12      -0.3837      0.00000
     13       0.2311      0.00000
     14       0.3710      0.00000

 k-point    99 :       0.0000    0.4667    0.0000
  band No.  band energies     occupation 
      1     -14.5837      2.00000
      2     -14.4594      2.00000
      3      -9.2114      2.00000
      4      -9.0875      2.00000
      5      -4.5319      2.00000
      6      -4.3118      2.00000
      7      -3.8559      2.00000
      8      -3.6601      2.00000
      9      -2.5566      2.00000
     10      -2.2132      2.00000
     11      -0.9034      0.00000
     12      -0.4626      0.00000
     13      -0.0757      0.00000
     14       0.1241      0.00000

 k-point   100 :       0.0667    0.4667    0.0000
  band No.  band energies     occupation 
      1     -14.5735      2.00000
      2     -14.4515      2.00000
      3      -9.1836      2.00000
      4      -9.0624      2.00000
      5      -4.5459      2.00000
      6      -4.4268      2.00000
      7      -4.0048      2.00000
      8      -3.8704      2.00000
      9      -2.4724      2.00000
     10      -2.3722      2.00000
     11      -0.8083      0.00000
     12      -0.6986      0.00000
     13       0.2873      0.00000
     14       0.5913      0.00000

 k-point   101 :       0.1333    0.4667    0.0000
  band No.  band energies     occupation 
      1     -14.5442      2.00000
      2     -14.4290      2.00000
      3      -9.1011      2.00000
      4      -8.9886      2.00000
      5      -4.8431      2.00000
      6      -4.6565      2.00000
      7      -4.2414      2.00000
      8      -4.1182      2.00000
      9      -2.8443      2.00000
     10      -2.6347      2.00000
     11      -0.5544      0.00000
     12      -0.3188      0.00000
     13       0.7903      0.00000
     14       0.8896      0.00000

 k-point   102 :       0.2000    0.4667    0.0000
  band No.  band energies     occupation 
      1     -14.4996      2.00000
      2     -14.3958      2.00000
      3      -8.9678      2.00000
      4      -8.8703      2.00000
      5      -5.3588      2.00000
      6      -5.0331      2.00000
      7      -4.4309      2.00000
      8      -4.1943      2.00000
      9      -3.3614      2.00000
     10      -3.0614      2.00000
     11      -0.0241      0.00000
     12       0.3365      0.00000
     13       1.0148      0.00000
     14       1.2397      0.00000

 k-point   103 :       0.2667    0.4667    0.0000
  band No.  band energies     occupation 
      1     -14.4456      2.00000
      2     -14.3580      2.00000
      3      -8.7919      2.00000
      4      -8.7164      2.00000
      5      -5.8354      2.00000
      6      -5.4921      2.00000
      7      -4.6299      2.00000
      8      -4.3651      2.00000
      9      -3.7020      2.00000
     10      -3.4289      2.00000
     11       0.4927      0.00000
     12       0.8520      0.00000
     13       1.4209      0.00000
     14       1.6650      0.00000

 k-point   104 :       0.3333    0.4667    0.0000
  band No.  band energies     occupation 
      1     -14.3901      2.00000
      2     -14.3233      2.00000
      3      -8.5900      2.00000
      4      -8.5426      2.00000
      5      -6.2251      2.00000
      6      -5.9107      2.00000
      7      -4.9334      2.00000
      8      -4.6713      2.00000
      9      -3.8081      2.00000
     10      -3.6099      2.00000
     11       0.8406      0.00000
     12       1.1149      0.00000
     13       1.9839      0.00000
     14       2.2520      0.00000

 k-point   105 :       0.4000    0.4667    0.0000
  band No.  band energies     occupation 
      1     -14.3415      2.00000
      2     -14.2996      2.00000
      3      -8.3961      2.00000
      4      -8.3771      2.00000
      5      -6.4937      2.00000
      6      -6.2611      2.00000
      7      -5.1925      2.00000
      8      -4.9967      2.00000
      9      -3.8008      2.00000
     10      -3.6807      2.00000
     11       1.0779      0.00000
     12       1.2489      0.00000
     13       2.4814      0.00000
     14       2.7076      0.00000

 k-point   106 :       0.4667    0.4667    0.0000
  band No.  band energies     occupation 
      1     -14.3075      2.00000
      2     -14.2932      2.00000
      3      -8.2697      2.00000
      4      -8.2671      2.00000
      5      -6.5988      2.00000
      6      -6.5104      2.00000
      7      -5.2998      2.00000
      8      -5.2269      2.00000
      9      -3.7627      2.00000
     10      -3.7222      2.00000
     11       1.2323      0.00000
     12       1.2905      0.00000
     13       2.7014      0.00000
     14       2.8007      0.00000

 k-point   107 :      -0.4667    0.4667    0.0000
  band No.  band energies     occupation 
      1     -14.3075      2.00000
      2     -14.2932      2.00000
      3      -8.2697      2.00000
      4      -8.2671      2.00000
      5      -6.5988      2.00000
      6      -6.5104      2.00000
      7      -5.2998      2.00000
      8      -5.2269      2.00000
      9      -3.7627      2.00000
     10      -3.7222      2.00000
     11       1.2323      0.00000
     12       1.2905      0.00000
     13       2.7014      0.00000
     14       2.8007      0.00000

 k-point   108 :      -0.4000    0.4667    0.0000
  band No.  band energies     occupation 
      1     -14.3415      2.00000
      2     -14.2996      2.00000
      3      -8.3961      2.00000
      4      -8.3771      2.00000
      5      -6.4937      2.00000
      6      -6.2610      2.00000
      7      -5.1925      2.00000
      8      -4.9967      2.00000
      9      -3.8008      2.00000
     10      -3.6807      2.00000
     11       1.0779      0.00000
     12       1.2489      0.00000
     13       2.4814      0.00000
     14       2.7076      0.00000

 k-point   109 :      -0.3333    0.4667    0.0000
  band No.  band energies     occupation 
      1     -14.3901      2.00000
      2     -14.3233      2.00000
      3      -8.5900      2.00000
      4      -8.5426      2.00000
      5      -6.2251      2.00000
      6      -5.9107      2.00000
      7      -4.9334      2.00000
      8      -4.6713      2.00000
      9      -3.8081      2.00000
     10      -3.6099      2.00000
     11       0.8406      0.00000
     12       1.1149      0.00000
     13       1.9839      0.00000
     14       2.2520      0.00000

 k-point   110 :      -0.2667    0.4667    0.0000
  band No.  band energies     occupation 
      1     -14.4456      2.00000
      2     -14.3580      2.00000
      3      -8.7919      2.00000
      4      -8.7164      2.00000
      5      -5.8354      2.00000
      6      -5.4921      2.00000
      7      -4.6299      2.00000
      8      -4.3651      2.00000
      9      -3.7020      2.00000
     10      -3.4289      2.00000
     11       0.4927      0.00000
     12       0.8520      0.00000
     13       1.4209      0.00000
     14       1.6650      0.00000

 k-point   111 :      -0.2000    0.4667    0.0000
  band No.  band energies     occupation 
      1     -14.4996      2.00000
      2     -14.3958      2.00000
      3      -8.9678      2.00000
      4      -8.8703      2.00000
      5      -5.3588      2.00000
      6      -5.0331      2.00000
      7      -4.4309      2.00000
      8      -4.1943      2.00000
      9      -3.3614      2.00000
     10      -3.0614      2.00000
     11      -0.0241      0.00000
     12       0.3365      0.00000
     13       1.0148      0.00000
     14       1.2397      0.00000

 k-point   112 :      -0.1333    0.4667    0.0000
  band No.  band energies     occupation 
      1     -14.5442      2.00000
      2     -14.4290      2.00000
      3      -9.1011      2.00000
      4      -8.9886      2.00000
      5      -4.8431      2.00000
      6      -4.6565      2.00000
      7      -4.2414      2.00000
      8      -4.1182      2.00000
      9      -2.8443      2.00000
     10      -2.6347      2.00000
     11      -0.5544      0.00000
     12      -0.3188      0.00000
     13       0.7903      0.00000
     14       0.8896      0.00000

 k-point   113 :      -0.0667    0.4667    0.0000
  band No.  band energies     occupation 
      1     -14.5735      2.00000
      2     -14.4515      2.00000
      3      -9.1836      2.00000
      4      -9.0624      2.00000
      5      -4.5459      2.00000
      6      -4.4268      2.00000
      7      -4.0048      2.00000
      8      -3.8704      2.00000
      9      -2.4724      2.00000
     10      -2.3722      2.00000
     11      -0.8083      0.00000
     12      -0.6986      0.00000
     13       0.2873      0.00000
     14       0.5913      0.00000


--------------------------------------------------------------------------------------------------------


 soft charge-density along one line, spin component           1
         0         1         2         3         4         5         6         7         8         9
 total charge-density along one line
 
 pseudopotential strength for first ion, spin component:           1
 30.081 -23.433  -0.000  -0.089   0.034  -0.000  -0.141   0.054
-23.433  28.116   0.000   0.051  -0.019   0.000   0.082  -0.031
 -0.000   0.000   6.331  -0.000   0.000   9.794  -0.000   0.000
 -0.089   0.051  -0.000   6.329   0.002  -0.000   9.790   0.003
  0.034  -0.019   0.000   0.002   6.330   0.000   0.003   9.793
 -0.000   0.000   9.794  -0.000   0.000  15.223  -0.000   0.000
 -0.141   0.082  -0.000   9.790   0.003  -0.000  15.216   0.004
  0.054  -0.031   0.000   0.003   9.793   0.000   0.004  15.222
  0.000  -0.000   0.007  -0.000  -0.000   0.011  -0.000  -0.000
 -0.000   0.000  -0.020  -0.000  -0.000  -0.031  -0.000  -0.000
 -0.002   0.003   0.000  -0.023  -0.004   0.000  -0.035  -0.006
  0.003  -0.002  -0.000   0.008  -0.020  -0.000   0.013  -0.031
 -0.001   0.000   0.000  -0.000   0.008   0.000  -0.000   0.013
 total augmentation occupancy for first ion, spin component:           1
  2.025  -0.015   0.000   0.238  -0.086  -0.000  -0.043   0.015  -0.000  -0.000   0.023   0.002  -0.000
 -0.015   0.009  -0.000  -0.073   0.027   0.000   0.018  -0.006  -0.000  -0.000  -0.002   0.001  -0.000
  0.000  -0.000   1.512   0.000  -0.000  -0.407  -0.000   0.000   0.122  -0.043   0.000   0.000  -0.000
  0.238  -0.073   0.000   1.838  -0.001  -0.000  -0.486  -0.014   0.000   0.000  -0.267  -0.018  -0.001
 -0.086   0.027  -0.000  -0.001   1.499   0.000  -0.014  -0.398  -0.000   0.000  -0.078  -0.045  -0.006
 -0.000   0.000  -0.407  -0.000   0.000   0.118  -0.000  -0.000  -0.033   0.012  -0.000   0.000   0.000
 -0.043   0.018  -0.000  -0.486  -0.014  -0.000   0.140   0.007  -0.000  -0.000   0.074   0.005   0.000
  0.015  -0.006   0.000  -0.014  -0.398  -0.000   0.007   0.115   0.000  -0.000   0.021   0.012   0.002
 -0.000  -0.000   0.122   0.000  -0.000  -0.033  -0.000   0.000   0.077   0.000   0.000  -0.000  -0.000
 -0.000  -0.000  -0.043   0.000   0.000   0.012  -0.000  -0.000   0.000   0.021  -0.000  -0.000  -0.000
  0.023  -0.002   0.000  -0.267  -0.078  -0.000   0.074   0.021   0.000  -0.000   0.078   0.006   0.002
  0.002   0.001   0.000  -0.018  -0.045   0.000   0.005   0.012  -0.000  -0.000   0.006   0.022   0.001
 -0.000  -0.000  -0.000  -0.001  -0.006   0.000   0.000   0.002  -0.000  -0.000   0.002   0.001   0.017


------------------------ aborting loop because EDIFF is reached ----------------------------------------


    CHARGE:  cpu time    0.2495: real time    0.2498
    FORLOC:  cpu time    0.0024: real time    0.0024
    FORNL :  cpu time    0.4089: real time    0.4094
    STRESS:  cpu time    0.7874: real time    0.7883
    FORCOR:  cpu time    0.0467: real time    0.0467
    FORHAR:  cpu time    0.0121: real time    0.0121
    MIXING:  cpu time    0.0011: real time    0.0011
    OFIELD:  cpu time    0.0000: real time    0.0000

  FORCE on cell =-STRESS in cart. coord.  units (eV):
  Direction    XX          YY          ZZ          XY          YZ          ZX
  --------------------------------------------------------------------------------------
  Alpha Z     9.52804     9.52804     9.52804
  Ewald    1610.80497  1614.69840 -2069.05320    -0.00000     0.00000    -0.00003
  Hartree  1731.20208  1732.81313 -1684.68775    -0.00000    -0.00000    -0.00001
  E(xc)     -77.68174   -77.69834   -78.90074     0.00000    -0.00000     0.00000
  Local   -3594.75952 -3599.74554  3498.86317     0.00000    -0.00000     0.00004
  n-local   162.59376   162.75859   167.21005    -0.00000     0.00000    -0.00000
  augment   -31.87661   -31.82714   -32.79798     0.00000    -0.00000     0.00000
  Kinetic   190.23608   189.59767   189.83829     0.00000    -0.00000     0.00000
  Fock        0.00000     0.00000     0.00000     0.00000     0.00000     0.00000
  -------------------------------------------------------------------------------------
  Total       0.04705     0.12481    -0.00013    -0.00000    -0.00000    -0.00000
  in kB       0.20088     0.53285    -0.00054    -0.00000    -0.00000    -0.00001
  external pressure =        0.24 kB  Pullay stress =        0.00 kB


 VOLUME and BASIS-vectors are now :
 -----------------------------------------------------------------------------
  energy-cutoff  :      600.00
  volume of cell :      375.28
      direct lattice vectors                 reciprocal lattice vectors
     4.382356765  0.000000000  0.000000000     0.228187720  0.000000000  0.000000000
     0.000000000  4.281746663  0.000000000     0.000000000  0.233549549  0.000000000
     0.000000000  0.000000000 20.000000000     0.000000000  0.000000000  0.050000000

  length of vectors
     4.382356765  4.281746663 20.000000000     0.228187720  0.233549549  0.050000000


 FORCES acting on ions
    electron-ion (+dipol)            ewald-force                    non-local-force                 convergence-correction
 -----------------------------------------------------------------------------------------------
   0.420E+01 -.201E-05 -.145E+03   -.567E+01 0.255E-05 0.148E+03   0.147E+01 -.473E-06 -.381E+01   -.341E-03 -.264E-07 -.154E-02
   0.420E+01 -.824E-06 0.145E+03   -.567E+01 0.125E-05 -.148E+03   0.147E+01 -.393E-06 0.381E+01   -.341E-03 0.778E-09 0.154E-02
   -.524E+01 0.190E-05 -.207E+03   0.567E+01 -.237E-05 0.209E+03   -.436E+00 0.222E-06 -.203E+01   0.589E-02 0.175E-06 -.476E-02
   -.524E+01 0.126E-05 0.207E+03   0.567E+01 -.143E-05 -.209E+03   -.436E+00 0.161E-06 0.203E+01   0.589E-02 0.336E-07 0.475E-02
 -----------------------------------------------------------------------------------------------
   -.208E+01 0.319E-06 0.172E-04   0.000E+00 -.358E-15 0.284E-13   0.207E+01 -.483E-06 -.180E-05   0.111E-01 0.183E-06 -.159E-04
 
 
 POSITION                                       TOTAL-FORCE (eV/Angst)
 -----------------------------------------------------------------------------------
      2.54507      3.21131     11.37601         0.000124      0.000000     -0.000630
      0.35389      1.07044      8.62399         0.000124      0.000000      0.000612
      0.14615      1.07044     11.34127        -0.000124     -0.000000      0.000302
      2.33733      3.21131      8.65873        -0.000123      0.000000     -0.000283
 -----------------------------------------------------------------------------------
    total drift:                                0.000337      0.000000     -0.000000


--------------------------------------------------------------------------------------------------------



  FREE ENERGIE OF THE ION-ELECTRON SYSTEM (eV)
  ---------------------------------------------------
  free  energy   TOTEN  =       -16.26424007 eV

  energy  without entropy=      -16.26424007  energy(sigma->0) =      -16.26424007
 
 d Force = 0.7833075E-05[ 0.110E-05, 0.146E-04]  d Energy = 0.8433807E-05-0.601E-06
 d Force = 0.2142221E+00[ 0.214E+00, 0.214E+00]  d Ewald  = 0.2142221E+00-0.858E-08


--------------------------------------------------------------------------------------------------------


    POTLOK:  cpu time    0.0490: real time    0.0490


--------------------------------------------------------------------------------------------------------




--------------------------------------------------------------------------------------------------------


  
 reached required accuracy - stopping structural energy minimisation
 writing wavefunctions
     LOOP+:  cpu time   13.5971: real time   14.0939
    4ORBIT:  cpu time    0.0000: real time    0.0000

 total amount of memory used by VASP MPI-rank0    63368. kBytes
=======================================================================

   base      :      30000. kBytes
   nonl-proj :      12538. kBytes
   fftplans  :       2678. kBytes
   grid      :       4349. kBytes
   one-center:          8. kBytes
   wavefun   :      13795. kBytes
 
  
  
 General timing and accounting informations for this job:
 ========================================================
  
                  Total CPU time used (sec):      186.454
                            User time (sec):      185.691
                          System time (sec):        0.763
                         Elapsed time (sec):      214.518
  
                   Maximum memory used (kb):      212584.
                   Average memory used (kb):           0.
  
                          Minor page faults:       109629
                          Major page faults:          122
                 Voluntary context switches:        10778
