 vasp.5.4.4.18Apr17-6-g9f103f2a35 (build Sep 16 2021 13:51:27) complex          
  
 executed on             LinuxIFC date 2023.03.16  12:57:38
 running on   24 total cores
 distrk:  each k-point on   24 cores,    1 groups
 distr:  one band on NCORES_PER_BAND=  24 cores,    1 groups


--------------------------------------------------------------------------------------------------------


 INCAR:
 POTCAR:    PAW_PBE Sn 08Apr2002                  
 POTCAR:    PAW_PBE Se 06Sep2000                  

 ----------------------------------------------------------------------------- 
|                                                                             |
|           W    W    AA    RRRRR   N    N  II  N    N   GGGG   !!!           |
|           W    W   A  A   R    R  NN   N  II  NN   N  G    G  !!!           |
|           W    W  A    A  R    R  N N  N  II  N N  N  G       !!!           |
|           W WW W  AAAAAA  RRRRR   N  N N  II  N  N N  G  GGG   !            |
|           WW  WW  A    A  R   R   N   NN  II  N   NN  G    G                |
|           W    W  A    A  R    R  N    N  II  N    N   GGGG   !!!           |
|                                                                             |
|      For optimal performance we recommend to set                            |
|        NCORE= 4 - approx SQRT( number of cores)                             |
|      NCORE specifies how many cores store one orbital (NPAR=cpu/NCORE).     |
|      This setting can  greatly improve the performance of VASP for DFT.     |
|      The default,   NCORE=1            might be grossly inefficient         |
|      on modern multi-core architectures or massively parallel machines.     |
|      Do your own testing !!!!                                               |
|      Unfortunately you need to use the default for GW and RPA calculations. |
|      (for HF NCORE is supported but not extensively tested yet)             |
|                                                                             |
 ----------------------------------------------------------------------------- 

 POTCAR:    PAW_PBE Sn 08Apr2002                  
   VRHFIN =Sn: s2p2                                                             
   LEXCH  = PE                                                                  
   EATOM  =    94.0860 eV,    6.9151 Ry                                         
                                                                                
   TITEL  = PAW_PBE Sn 08Apr2002                                                
   LULTRA =        F    use ultrasoft PP ?                                      
   IUNSCR =        1    unscreen: 0-lin 1-nonlin 2-no                           
   RPACOR =    2.000    partial core radius                                     
   POMASS =  118.710; ZVAL   =    4.000    mass and valenz                      
   RCORE  =    3.000    outmost cutoff radius                                   
   RWIGS  =    2.960; RWIGS  =    1.566    wigner-seitz radius (au A)           
   ENMAX  =  103.236; ENMIN  =   77.427 eV                                      
   ICORE  =        3    local potential                                         
   LCOR   =        T    correct aug charges                                     
   LPAW   =        T    paw PP                                                  
   EAUG   =  263.585                                                            
   DEXC   =    0.000                                                            
   RMAX   =    3.078    core radius for proj-oper                               
   RAUG   =    1.300    factor for augmentation sphere                          
   RDEP   =    3.022    radius for radial grids                                 
   RDEPT  =    2.655    core radius for aug-charge                              
                                                                                
   Atomic configuration                                                         
   13 entries                                                                   
     n  l   j            E        occ.                                          
     1  0  0.50    -29007.2859   2.0000                                         
     2  0  0.50     -4378.8056   2.0000                                         
     2  1  1.50     -3930.4293   6.0000                                         
     3  0  0.50      -845.0264   2.0000                                         
     3  1  1.50      -698.5725   6.0000                                         
     3  2  2.50      -473.2839  10.0000                                         
     4  0  0.50      -133.9036   2.0000                                         
     4  1  1.50       -89.6752   6.0000                                         
     4  2  2.50       -25.8375  10.0000                                         
     5  0  0.50       -10.5484   2.0000                                         
     5  1  0.50        -3.6940   2.0000                                         
     5  2  1.50        -1.3606   0.0000                                         
     4  3  2.50        -4.0817   0.0000                                         
   Description                                                                  
     l       E           TYP  RCUT    TYP  RCUT                                 
     0    -10.5483727     23  3.000                                             
     0     27.2116520     23  3.000                                             
     1     -3.6939829     23  3.000                                             
     1      1.9821976     23  3.000                                             
     2     -1.3605826     23  3.000                                             
     3     -2.7211652     23  3.000                                             
  local pseudopotential read in
  partial core-charges read in
  partial kinetic energy density read in
  atomic valenz-charges read in
  non local Contribution for L=           0  read in
    real space projection operators read in
  non local Contribution for L=           0  read in
    real space projection operators read in
  non local Contribution for L=           1  read in
    real space projection operators read in
  non local Contribution for L=           1  read in
    real space projection operators read in
  non local Contribution for L=           2  read in
    real space projection operators read in
    PAW grid and wavefunctions read in
 
   number of l-projection  operators is LMAX  =           5
   number of lm-projection operators is LMMAX =          13
 
 POTCAR:    PAW_PBE Se 06Sep2000                  
   VRHFIN =Se: s2p4                                                             
   LEXCH  = PE                                                                  
   EATOM  =   257.1286 eV,   18.8984 Ry                                         
                                                                                
   TITEL  = PAW_PBE Se 06Sep2000                                                
   LULTRA =        F    use ultrasoft PP ?                                      
   IUNSCR =        1    unscreen: 0-lin 1-nonlin 2-no                           
   RPACOR =    1.900    partial core radius                                     
   POMASS =   78.960; ZVAL   =    6.000    mass and valenz                      
   RCORE  =    2.100    outmost cutoff radius                                   
   RWIGS  =    2.200; RWIGS  =    1.164    wigner-seitz radius (au A)           
   ENMAX  =  211.555; ENMIN  =  158.666 eV                                      
   ICORE  =        3    local potential                                         
   LCOR   =        T    correct aug charges                                     
   LPAW   =        T    paw PP                                                  
   EAUG   =  446.842                                                            
   DEXC   =    0.000                                                            
   RMAX   =    2.147    core radius for proj-oper                               
   RAUG   =    1.300    factor for augmentation sphere                          
   RDEP   =    2.177    radius for radial grids                                 
   RDEPT  =    1.928    core radius for aug-charge                              
                                                                                
   Atomic configuration                                                         
   10 entries                                                                   
     n  l   j            E        occ.                                          
     1  0  0.50    -12503.4787   2.0000                                         
     2  0  0.50     -1606.9547   2.0000                                         
     2  1  1.50     -1413.3140   6.0000                                         
     3  0  0.50      -213.4885   2.0000                                         
     3  1  1.50      -152.9538   6.0000                                         
     3  2  2.50       -53.1221  10.0000                                         
     4  0  0.50       -17.2865   2.0000                                         
     4  1  0.50        -6.5110   4.0000                                         
     4  2  2.50        -6.8029   0.0000                                         
     4  3  2.50        -6.8029   0.0000                                         
   Description                                                                  
     l       E           TYP  RCUT    TYP  RCUT                                 
     0    -17.2865377     23  2.100                                             
     0    -15.3094411     23  2.100                                             
     1     -6.5110275     23  2.100                                             
     1     -0.0695192     23  2.100                                             
     2     -6.8029130     23  2.100                                             
     3     -1.3605826      7  2.100                                             
  local pseudopotential read in
  partial core-charges read in
  partial kinetic energy density read in
  atomic valenz-charges read in
  non local Contribution for L=           0  read in
    real space projection operators read in
  non local Contribution for L=           0  read in
    real space projection operators read in
  non local Contribution for L=           1  read in
    real space projection operators read in
  non local Contribution for L=           1  read in
    real space projection operators read in
  non local Contribution for L=           2  read in
    real space projection operators read in
    PAW grid and wavefunctions read in
 
   number of l-projection  operators is LMAX  =           5
   number of lm-projection operators is LMMAX =          13
 
 WARNING: PSMAXN for non-local potential too small
          PSMAXN should be >   12.5490833729506       NTYP=           1
  PAW_PBE Sn 08Apr2002                  :
 energy of atom  1       EATOM=  -94.0860
 kinetic energy error for atom=    0.0000 (will be added to EATOM!!)
  PAW_PBE Se 06Sep2000                  :
 energy of atom  2       EATOM= -257.1286
 kinetic energy error for atom=    0.0006 (will be added to EATOM!!)
 
 
 POSCAR:  POSCAR with strain of -0.003           
  positions in direct lattice
  No initial velocities read in
 exchange correlation table for  LEXCH =        8
   RHO(1)=    0.500       N(1)  =     2000
   RHO(2)=  100.500       N(2)  =     4000
 


--------------------------------------------------------------------------------------------------------


 ion  position               nearest neighbor table
   1  0.581  0.750  0.569-   4 2.72   3 2.92   3 2.92   3 3.22   3 3.22
   2  0.081  0.250  0.431-   3 2.72   4 2.92   4 2.92   4 3.22   4 3.22
   3  0.033  0.250  0.567-   2 2.72   1 2.92   1 2.92   1 3.22   1 3.22
   4  0.533  0.750  0.433-   1 2.72   2 2.92   2 2.92   2 3.22   2 3.22
 

IMPORTANT INFORMATION: All symmetrisations will be switched off!
NOSYMM: (Re-)initialisation of all symmetry stuff for point group C_1.

 
 
 KPOINTS: KMesh Grid                              

Automatic generation of k-mesh.
Space group operators:
 irot       det(A)        alpha          n_x          n_y          n_z        tau_x        tau_y        tau_z
    1     1.000000     0.000000     1.000000     0.000000     0.000000     0.000000     0.000000     0.000000
 
 Subroutine IBZKPT returns following result:
 ===========================================
 
 Found    113 irreducible k-points:
 
 Following reciprocal coordinates:
            Coordinates               Weight
  0.000000  0.000000  0.000000      1.000000
  0.066667  0.000000  0.000000      2.000000
  0.133333  0.000000  0.000000      2.000000
  0.200000  0.000000  0.000000      2.000000
  0.266667  0.000000  0.000000      2.000000
  0.333333  0.000000  0.000000      2.000000
  0.400000  0.000000  0.000000      2.000000
  0.466667  0.000000  0.000000      2.000000
  0.000000  0.066667  0.000000      2.000000
  0.066667  0.066667  0.000000      2.000000
  0.133333  0.066667  0.000000      2.000000
  0.200000  0.066667  0.000000      2.000000
  0.266667  0.066667  0.000000      2.000000
  0.333333  0.066667  0.000000      2.000000
  0.400000  0.066667  0.000000      2.000000
  0.466667  0.066667  0.000000      2.000000
 -0.466667  0.066667  0.000000      2.000000
 -0.400000  0.066667  0.000000      2.000000
 -0.333333  0.066667  0.000000      2.000000
 -0.266667  0.066667  0.000000      2.000000
 -0.200000  0.066667  0.000000      2.000000
 -0.133333  0.066667  0.000000      2.000000
 -0.066667  0.066667  0.000000      2.000000
  0.000000  0.133333  0.000000      2.000000
  0.066667  0.133333  0.000000      2.000000
  0.133333  0.133333  0.000000      2.000000
  0.200000  0.133333  0.000000      2.000000
  0.266667  0.133333  0.000000      2.000000
  0.333333  0.133333  0.000000      2.000000
  0.400000  0.133333  0.000000      2.000000
  0.466667  0.133333  0.000000      2.000000
 -0.466667  0.133333  0.000000      2.000000
 -0.400000  0.133333  0.000000      2.000000
 -0.333333  0.133333  0.000000      2.000000
 -0.266667  0.133333  0.000000      2.000000
 -0.200000  0.133333  0.000000      2.000000
 -0.133333  0.133333  0.000000      2.000000
 -0.066667  0.133333  0.000000      2.000000
  0.000000  0.200000  0.000000      2.000000
  0.066667  0.200000  0.000000      2.000000
  0.133333  0.200000  0.000000      2.000000
  0.200000  0.200000  0.000000      2.000000
  0.266667  0.200000  0.000000      2.000000
  0.333333  0.200000  0.000000      2.000000
  0.400000  0.200000  0.000000      2.000000
  0.466667  0.200000  0.000000      2.000000
 -0.466667  0.200000  0.000000      2.000000
 -0.400000  0.200000  0.000000      2.000000
 -0.333333  0.200000  0.000000      2.000000
 -0.266667  0.200000  0.000000      2.000000
 -0.200000  0.200000  0.000000      2.000000
 -0.133333  0.200000  0.000000      2.000000
 -0.066667  0.200000  0.000000      2.000000
  0.000000  0.266667  0.000000      2.000000
  0.066667  0.266667  0.000000      2.000000
  0.133333  0.266667  0.000000      2.000000
  0.200000  0.266667  0.000000      2.000000
  0.266667  0.266667  0.000000      2.000000
  0.333333  0.266667  0.000000      2.000000
  0.400000  0.266667  0.000000      2.000000
  0.466667  0.266667  0.000000      2.000000
 -0.466667  0.266667  0.000000      2.000000
 -0.400000  0.266667  0.000000      2.000000
 -0.333333  0.266667  0.000000      2.000000
 -0.266667  0.266667  0.000000      2.000000
 -0.200000  0.266667  0.000000      2.000000
 -0.133333  0.266667  0.000000      2.000000
 -0.066667  0.266667  0.000000      2.000000
  0.000000  0.333333  0.000000      2.000000
  0.066667  0.333333  0.000000      2.000000
  0.133333  0.333333  0.000000      2.000000
  0.200000  0.333333  0.000000      2.000000
  0.266667  0.333333  0.000000      2.000000
  0.333333  0.333333  0.000000      2.000000
  0.400000  0.333333  0.000000      2.000000
  0.466667  0.333333  0.000000      2.000000
 -0.466667  0.333333  0.000000      2.000000
 -0.400000  0.333333  0.000000      2.000000
 -0.333333  0.333333  0.000000      2.000000
 -0.266667  0.333333  0.000000      2.000000
 -0.200000  0.333333  0.000000      2.000000
 -0.133333  0.333333  0.000000      2.000000
 -0.066667  0.333333  0.000000      2.000000
  0.000000  0.400000  0.000000      2.000000
  0.066667  0.400000  0.000000      2.000000
  0.133333  0.400000  0.000000      2.000000
  0.200000  0.400000  0.000000      2.000000
  0.266667  0.400000  0.000000      2.000000
  0.333333  0.400000  0.000000      2.000000
  0.400000  0.400000  0.000000      2.000000
  0.466667  0.400000  0.000000      2.000000
 -0.466667  0.400000  0.000000      2.000000
 -0.400000  0.400000  0.000000      2.000000
 -0.333333  0.400000  0.000000      2.000000
 -0.266667  0.400000  0.000000      2.000000
 -0.200000  0.400000  0.000000      2.000000
 -0.133333  0.400000  0.000000      2.000000
 -0.066667  0.400000  0.000000      2.000000
  0.000000  0.466667  0.000000      2.000000
  0.066667  0.466667  0.000000      2.000000
  0.133333  0.466667  0.000000      2.000000
  0.200000  0.466667  0.000000      2.000000
  0.266667  0.466667  0.000000      2.000000
  0.333333  0.466667  0.000000      2.000000
  0.400000  0.466667  0.000000      2.000000
  0.466667  0.466667  0.000000      2.000000
 -0.466667  0.466667  0.000000      2.000000
 -0.400000  0.466667  0.000000      2.000000
 -0.333333  0.466667  0.000000      2.000000
 -0.266667  0.466667  0.000000      2.000000
 -0.200000  0.466667  0.000000      2.000000
 -0.133333  0.466667  0.000000      2.000000
 -0.066667  0.466667  0.000000      2.000000
 
 Following cartesian coordinates:
            Coordinates               Weight
  0.000000  0.000000  0.000000      1.000000
  0.015251  0.000000  0.000000      2.000000
  0.030501  0.000000  0.000000      2.000000
  0.045752  0.000000  0.000000      2.000000
  0.061003  0.000000  0.000000      2.000000
  0.076253  0.000000  0.000000      2.000000
  0.091504  0.000000  0.000000      2.000000
  0.106754  0.000000  0.000000      2.000000
  0.000000  0.015531  0.000000      2.000000
  0.015251  0.015531  0.000000      2.000000
  0.030501  0.015531  0.000000      2.000000
  0.045752  0.015531  0.000000      2.000000
  0.061003  0.015531  0.000000      2.000000
  0.076253  0.015531  0.000000      2.000000
  0.091504  0.015531  0.000000      2.000000
  0.106754  0.015531  0.000000      2.000000
 -0.106754  0.015531  0.000000      2.000000
 -0.091504  0.015531  0.000000      2.000000
 -0.076253  0.015531  0.000000      2.000000
 -0.061003  0.015531  0.000000      2.000000
 -0.045752  0.015531  0.000000      2.000000
 -0.030501  0.015531  0.000000      2.000000
 -0.015251  0.015531  0.000000      2.000000
  0.000000  0.031062  0.000000      2.000000
  0.015251  0.031062  0.000000      2.000000
  0.030501  0.031062  0.000000      2.000000
  0.045752  0.031062  0.000000      2.000000
  0.061003  0.031062  0.000000      2.000000
  0.076253  0.031062  0.000000      2.000000
  0.091504  0.031062  0.000000      2.000000
  0.106754  0.031062  0.000000      2.000000
 -0.106754  0.031062  0.000000      2.000000
 -0.091504  0.031062  0.000000      2.000000
 -0.076253  0.031062  0.000000      2.000000
 -0.061003  0.031062  0.000000      2.000000
 -0.045752  0.031062  0.000000      2.000000
 -0.030501  0.031062  0.000000      2.000000
 -0.015251  0.031062  0.000000      2.000000
  0.000000  0.046593  0.000000      2.000000
  0.015251  0.046593  0.000000      2.000000
  0.030501  0.046593  0.000000      2.000000
  0.045752  0.046593  0.000000      2.000000
  0.061003  0.046593  0.000000      2.000000
  0.076253  0.046593  0.000000      2.000000
  0.091504  0.046593  0.000000      2.000000
  0.106754  0.046593  0.000000      2.000000
 -0.106754  0.046593  0.000000      2.000000
 -0.091504  0.046593  0.000000      2.000000
 -0.076253  0.046593  0.000000      2.000000
 -0.061003  0.046593  0.000000      2.000000
 -0.045752  0.046593  0.000000      2.000000
 -0.030501  0.046593  0.000000      2.000000
 -0.015251  0.046593  0.000000      2.000000
  0.000000  0.062124  0.000000      2.000000
  0.015251  0.062124  0.000000      2.000000
  0.030501  0.062124  0.000000      2.000000
  0.045752  0.062124  0.000000      2.000000
  0.061003  0.062124  0.000000      2.000000
  0.076253  0.062124  0.000000      2.000000
  0.091504  0.062124  0.000000      2.000000
  0.106754  0.062124  0.000000      2.000000
 -0.106754  0.062124  0.000000      2.000000
 -0.091504  0.062124  0.000000      2.000000
 -0.076253  0.062124  0.000000      2.000000
 -0.061003  0.062124  0.000000      2.000000
 -0.045752  0.062124  0.000000      2.000000
 -0.030501  0.062124  0.000000      2.000000
 -0.015251  0.062124  0.000000      2.000000
  0.000000  0.077655  0.000000      2.000000
  0.015251  0.077655  0.000000      2.000000
  0.030501  0.077655  0.000000      2.000000
  0.045752  0.077655  0.000000      2.000000
  0.061003  0.077655  0.000000      2.000000
  0.076253  0.077655  0.000000      2.000000
  0.091504  0.077655  0.000000      2.000000
  0.106754  0.077655  0.000000      2.000000
 -0.106754  0.077655  0.000000      2.000000
 -0.091504  0.077655  0.000000      2.000000
 -0.076253  0.077655  0.000000      2.000000
 -0.061003  0.077655  0.000000      2.000000
 -0.045752  0.077655  0.000000      2.000000
 -0.030501  0.077655  0.000000      2.000000
 -0.015251  0.077655  0.000000      2.000000
  0.000000  0.093186  0.000000      2.000000
  0.015251  0.093186  0.000000      2.000000
  0.030501  0.093186  0.000000      2.000000
  0.045752  0.093186  0.000000      2.000000
  0.061003  0.093186  0.000000      2.000000
  0.076253  0.093186  0.000000      2.000000
  0.091504  0.093186  0.000000      2.000000
  0.106754  0.093186  0.000000      2.000000
 -0.106754  0.093186  0.000000      2.000000
 -0.091504  0.093186  0.000000      2.000000
 -0.076253  0.093186  0.000000      2.000000
 -0.061003  0.093186  0.000000      2.000000
 -0.045752  0.093186  0.000000      2.000000
 -0.030501  0.093186  0.000000      2.000000
 -0.015251  0.093186  0.000000      2.000000
  0.000000  0.108717  0.000000      2.000000
  0.015251  0.108717  0.000000      2.000000
  0.030501  0.108717  0.000000      2.000000
  0.045752  0.108717  0.000000      2.000000
  0.061003  0.108717  0.000000      2.000000
  0.076253  0.108717  0.000000      2.000000
  0.091504  0.108717  0.000000      2.000000
  0.106754  0.108717  0.000000      2.000000
 -0.106754  0.108717  0.000000      2.000000
 -0.091504  0.108717  0.000000      2.000000
 -0.076253  0.108717  0.000000      2.000000
 -0.061003  0.108717  0.000000      2.000000
 -0.045752  0.108717  0.000000      2.000000
 -0.030501  0.108717  0.000000      2.000000
 -0.015251  0.108717  0.000000      2.000000
 


--------------------------------------------------------------------------------------------------------




 Dimension of arrays:
   k-points           NKPTS =    113   k-points in BZ     NKDIM =    113   number of bands    NBANDS=     14
   number of dos      NEDOS =    301   number of ions     NIONS =      4
   non local maximal  LDIM  =      5   non local SUM 2l+1 LMDIM =     13
   total plane-waves  NPLWV = 207360
   max r-space proj   IRMAX =      1   max aug-charges    IRDMAX=  53380
   dimension x,y,z NGX =    36 NGY =   36 NGZ =  160
   dimension x,y,z NGXF=    72 NGYF=   72 NGZF=  320
   support grid    NGXF=    72 NGYF=   72 NGZF=  320
   ions per type =               2   2
   NGX,Y,Z   is equivalent  to a cutoff of  13.69, 13.94, 13.30 a.u.
   NGXF,Y,Z  is equivalent  to a cutoff of  27.38, 27.89, 26.60 a.u.

 SYSTEM =  SnSe                                    
 POSCAR =   POSCAR with strain of -0.003           

 Startparameter for this run:
   NWRITE =      2    write-flag & timer
   PREC   = accura    normal or accurate (medium, high low for compatibility)
   ISTART =      0    job   : 0-new  1-cont  2-samecut
   ICHARG =      2    charge: 1-file 2-atom 10-const
   ISPIN  =      1    spin polarized calculation?
   LNONCOLLINEAR =      F non collinear calculations
   LSORBIT =      F    spin-orbit coupling
   INIWAV =      1    electr: 0-lowe 1-rand  2-diag
   LASPH  =      F    aspherical Exc in radial PAW
   METAGGA=      F    non-selfconsistent MetaGGA calc.

 Electronic Relaxation 1
   ENCUT  =  600.0 eV  44.10 Ry    6.64 a.u.   8.73  8.57 39.94*2*pi/ulx,y,z
   ENINI  =  600.0     initial cutoff
   ENAUG  =  446.8 eV  augmentation charge cutoff
   NELM   =     60;   NELMIN=  2; NELMDL= -5     # of ELM steps 
   EDIFF  = 0.1E-05   stopping-criterion for ELM
   LREAL  =      F    real-space projection
   NLSPLINE    = F    spline interpolate recip. space projectors
   LCOMPAT=      F    compatible to vasp.4.4
   GGA_COMPAT  = T    GGA compatible to vasp.4.4-vasp.4.6
   LMAXPAW     = -100 max onsite density
   LMAXMIX     =    2 max onsite mixed and CHGCAR
   VOSKOWN=      0    Vosko Wilk Nusair interpolation
   ROPT   =    0.00000   0.00000
 Ionic relaxation
   EDIFFG = -.1E-02   stopping-criterion for IOM
   NSW    =    100    number of steps for IOM
   NBLOCK =      1;   KBLOCK =    100    inner block; outer block 
   IBRION =      2    ionic relax: 0-MD 1-quasi-New 2-CG
   NFREE  =      1    steps in history (QN), initial steepest desc. (CG)
   ISIF   =      2    stress and relaxation
   IWAVPR =     11    prediction:  0-non 1-charg 2-wave 3-comb
   ISYM   =      0    0-nonsym 1-usesym 2-fastsym
   LCORR  =      T    Harris-Foulkes like correction to forces

   POTIM  = 0.5000    time-step for ionic-motion
   TEIN   =    0.0    initial temperature
   TEBEG  =    0.0;   TEEND  =   0.0 temperature during run
   SMASS  =  -3.00    Nose mass-parameter (am)
   estimated Nose-frequenzy (Omega)   =  0.10E-29 period in steps =****** mass=  -0.437E-27a.u.
   SCALEE = 1.0000    scale energy and forces
   NPACO  =    256;   APACO  = 16.0  distance and # of slots for P.C.
   PSTRESS=    0.0 pullay stress

  Mass of Ions in am
   POMASS = 118.71 78.96
  Ionic Valenz
   ZVAL   =   4.00  6.00
  Atomic Wigner-Seitz radii
   RWIGS  =  -1.00 -1.00
  virtual crystal weights 
   VCA    =   1.00  1.00
   NELECT =      20.0000    total number of electrons
   NUPDOWN=      -1.0000    fix difference up-down

 DOS related values:
   EMIN   =  10.00;   EMAX   =-10.00  energy-range for DOS
   EFERMI =   0.00
   ISMEAR =     0;   SIGMA  =   0.10  broadening in eV -4-tet -1-fermi 0-gaus

 Electronic relaxation 2 (details)
   IALGO  =     38    algorithm
   LDIAG  =      T    sub-space diagonalisation (order eigenvalues)
   LSUBROT=      F    optimize rotation matrix (better conditioning)
   TURBO    =      0    0=normal 1=particle mesh
   IRESTART =      0    0=no restart 2=restart with 2 vectors
   NREBOOT  =      0    no. of reboots
   NMIN     =      0    reboot dimension
   EREF     =   0.00    reference energy to select bands
   IMIX   =      4    mixing-type and parameters
     AMIX     =   0.40;   BMIX     =  1.00
     AMIX_MAG =   1.60;   BMIX_MAG =  1.00
     AMIN     =   0.10
     WC   =   100.;   INIMIX=   1;  MIXPRE=   1;  MAXMIX= -45

 Intra band minimization:
   WEIMIN = 0.0010     energy-eigenvalue tresh-hold
   EBREAK =  0.18E-07  absolut break condition
   DEPER  =   0.30     relativ break condition  

   TIME   =   0.40     timestep for ELM

  volume/ion in A,a.u.               =      93.82       633.13
  Fermi-wavevector in a.u.,A,eV,Ry     =   0.616073  1.164209  5.164030  0.379546
  Thomas-Fermi vector in A             =   1.673670
 
 Write flags
   LWAVE        =      T    write WAVECAR
   LDOWNSAMPLE  =      F    k-point downsampling of WAVECAR
   LCHARG       =      T    write CHGCAR
   LVTOT        =      F    write LOCPOT, total local potential
   LVHAR        =      F    write LOCPOT, Hartree potential only
   LELF         =      F    write electronic localiz. function (ELF)
   LORBIT       =      0    0 simple, 1 ext, 2 COOP (PROOUT), +10 PAW based schemes


 Dipole corrections
   LMONO  =      F    monopole corrections only (constant potential shift)
   LDIPOL =      F    correct potential (dipole corrections)
   IDIPOL =      0    1-x, 2-y, 3-z, 4-all directions 
   EPSILON=  1.0000000 bulk dielectric constant

 Exchange correlation treatment:
   GGA     =    PE    GGA type
   LEXCH   =     8    internal setting for exchange type
   VOSKOWN=      0    Vosko Wilk Nusair interpolation
   LHFCALC =     F    Hartree Fock is set to
   LHFONE  =     F    Hartree Fock one center treatment
   AEXX    =    0.0000 exact exchange contribution

 Linear response parameters
   LEPSILON=     F    determine dielectric tensor
   LRPA    =     F    only Hartree local field effects (RPA)
   LNABLA  =     F    use nabla operator in PAW spheres
   LVEL    =     F    velocity operator in full k-point grid
   LINTERFAST=   F  fast interpolation
   KINTER  =     0    interpolate to denser k-point grid
   CSHIFT  =0.1000    complex shift for real part using Kramers Kronig
   OMEGAMAX=  -1.0    maximum frequency
   DEG_THRESHOLD= 0.2000000E-02 threshold for treating states as degnerate
   RTIME   =   -0.100 relaxation time in fs
  (WPLASMAI=    0.000 imaginary part of plasma frequency in eV, 0.658/RTIME)
   DFIELD  = 0.0000000 0.0000000 0.0000000 field for delta impulse in time
 
 Orbital magnetization related:
   ORBITALMAG=     F  switch on orbital magnetization
   LCHIMAG   =     F  perturbation theory with respect to B field
   DQ        =  0.001000  dq finite difference perturbation B field
   LLRAUG    =     F  two centre corrections for induced B field



--------------------------------------------------------------------------------------------------------


 conjugate gradient relaxation of ions
 charge density and potential will be updated during run
 non-spin polarized calculation
 Variant of blocked Davidson
 Davidson routine will perform the subspace rotation
 perform sub-space diagonalisation
    after iterative eigenvector-optimisation
 modified Broyden-mixing scheme, WC =      100.0
 initial mixing is a Kerker type mixing with AMIX =  0.4000 and BMIX =      1.0000
 Hartree-type preconditioning will be used
 using additional bands            4
 reciprocal scheme for non local part
 use partial core corrections
 calculate Harris-corrections to forces 
   (improved forces if not selfconsistent)
 use gradient corrections 
 use of overlap-Matrix (Vanderbilt PP)
 Gauss-broadening in eV      SIGMA  =   0.10


--------------------------------------------------------------------------------------------------------


  energy-cutoff  :      600.00
  volume of cell :      375.28
      direct lattice vectors                 reciprocal lattice vectors
     4.371400873  0.000000000  0.000000000     0.228759619  0.000000000  0.000000000
     0.000000000  4.292477857  0.000000000     0.000000000  0.232965675  0.000000000
     0.000000000  0.000000000 20.000000000     0.000000000  0.000000000  0.050000000

  length of vectors
     4.371400873  4.292477857 20.000000000     0.228759619  0.232965675  0.050000000


 
 k-points in units of 2pi/SCALE and weight: KMesh Grid                              
   0.00000000  0.00000000  0.00000000       0.004
   0.01525064  0.00000000  0.00000000       0.009
   0.03050128  0.00000000  0.00000000       0.009
   0.04575192  0.00000000  0.00000000       0.009
   0.06100257  0.00000000  0.00000000       0.009
   0.07625321  0.00000000  0.00000000       0.009
   0.09150385  0.00000000  0.00000000       0.009
   0.10675449  0.00000000  0.00000000       0.009
   0.00000000  0.01553104  0.00000000       0.009
   0.01525064  0.01553104  0.00000000       0.009
   0.03050128  0.01553104  0.00000000       0.009
   0.04575192  0.01553104  0.00000000       0.009
   0.06100257  0.01553104  0.00000000       0.009
   0.07625321  0.01553104  0.00000000       0.009
   0.09150385  0.01553104  0.00000000       0.009
   0.10675449  0.01553104  0.00000000       0.009
  -0.10675449  0.01553104  0.00000000       0.009
  -0.09150385  0.01553104  0.00000000       0.009
  -0.07625321  0.01553104  0.00000000       0.009
  -0.06100257  0.01553104  0.00000000       0.009
  -0.04575192  0.01553104  0.00000000       0.009
  -0.03050128  0.01553104  0.00000000       0.009
  -0.01525064  0.01553104  0.00000000       0.009
   0.00000000  0.03106209  0.00000000       0.009
   0.01525064  0.03106209  0.00000000       0.009
   0.03050128  0.03106209  0.00000000       0.009
   0.04575192  0.03106209  0.00000000       0.009
   0.06100257  0.03106209  0.00000000       0.009
   0.07625321  0.03106209  0.00000000       0.009
   0.09150385  0.03106209  0.00000000       0.009
   0.10675449  0.03106209  0.00000000       0.009
  -0.10675449  0.03106209  0.00000000       0.009
  -0.09150385  0.03106209  0.00000000       0.009
  -0.07625321  0.03106209  0.00000000       0.009
  -0.06100257  0.03106209  0.00000000       0.009
  -0.04575192  0.03106209  0.00000000       0.009
  -0.03050128  0.03106209  0.00000000       0.009
  -0.01525064  0.03106209  0.00000000       0.009
   0.00000000  0.04659313  0.00000000       0.009
   0.01525064  0.04659313  0.00000000       0.009
   0.03050128  0.04659313  0.00000000       0.009
   0.04575192  0.04659313  0.00000000       0.009
   0.06100257  0.04659313  0.00000000       0.009
   0.07625321  0.04659313  0.00000000       0.009
   0.09150385  0.04659313  0.00000000       0.009
   0.10675449  0.04659313  0.00000000       0.009
  -0.10675449  0.04659313  0.00000000       0.009
  -0.09150385  0.04659313  0.00000000       0.009
  -0.07625321  0.04659313  0.00000000       0.009
  -0.06100257  0.04659313  0.00000000       0.009
  -0.04575192  0.04659313  0.00000000       0.009
  -0.03050128  0.04659313  0.00000000       0.009
  -0.01525064  0.04659313  0.00000000       0.009
   0.00000000  0.06212418  0.00000000       0.009
   0.01525064  0.06212418  0.00000000       0.009
   0.03050128  0.06212418  0.00000000       0.009
   0.04575192  0.06212418  0.00000000       0.009
   0.06100257  0.06212418  0.00000000       0.009
   0.07625321  0.06212418  0.00000000       0.009
   0.09150385  0.06212418  0.00000000       0.009
   0.10675449  0.06212418  0.00000000       0.009
  -0.10675449  0.06212418  0.00000000       0.009
  -0.09150385  0.06212418  0.00000000       0.009
  -0.07625321  0.06212418  0.00000000       0.009
  -0.06100257  0.06212418  0.00000000       0.009
  -0.04575192  0.06212418  0.00000000       0.009
  -0.03050128  0.06212418  0.00000000       0.009
  -0.01525064  0.06212418  0.00000000       0.009
   0.00000000  0.07765522  0.00000000       0.009
   0.01525064  0.07765522  0.00000000       0.009
   0.03050128  0.07765522  0.00000000       0.009
   0.04575192  0.07765522  0.00000000       0.009
   0.06100257  0.07765522  0.00000000       0.009
   0.07625321  0.07765522  0.00000000       0.009
   0.09150385  0.07765522  0.00000000       0.009
   0.10675449  0.07765522  0.00000000       0.009
  -0.10675449  0.07765522  0.00000000       0.009
  -0.09150385  0.07765522  0.00000000       0.009
  -0.07625321  0.07765522  0.00000000       0.009
  -0.06100257  0.07765522  0.00000000       0.009
  -0.04575192  0.07765522  0.00000000       0.009
  -0.03050128  0.07765522  0.00000000       0.009
  -0.01525064  0.07765522  0.00000000       0.009
   0.00000000  0.09318627  0.00000000       0.009
   0.01525064  0.09318627  0.00000000       0.009
   0.03050128  0.09318627  0.00000000       0.009
   0.04575192  0.09318627  0.00000000       0.009
   0.06100257  0.09318627  0.00000000       0.009
   0.07625321  0.09318627  0.00000000       0.009
   0.09150385  0.09318627  0.00000000       0.009
   0.10675449  0.09318627  0.00000000       0.009
  -0.10675449  0.09318627  0.00000000       0.009
  -0.09150385  0.09318627  0.00000000       0.009
  -0.07625321  0.09318627  0.00000000       0.009
  -0.06100257  0.09318627  0.00000000       0.009
  -0.04575192  0.09318627  0.00000000       0.009
  -0.03050128  0.09318627  0.00000000       0.009
  -0.01525064  0.09318627  0.00000000       0.009
   0.00000000  0.10871731  0.00000000       0.009
   0.01525064  0.10871731  0.00000000       0.009
   0.03050128  0.10871731  0.00000000       0.009
   0.04575192  0.10871731  0.00000000       0.009
   0.06100257  0.10871731  0.00000000       0.009
   0.07625321  0.10871731  0.00000000       0.009
   0.09150385  0.10871731  0.00000000       0.009
   0.10675449  0.10871731  0.00000000       0.009
  -0.10675449  0.10871731  0.00000000       0.009
  -0.09150385  0.10871731  0.00000000       0.009
  -0.07625321  0.10871731  0.00000000       0.009
  -0.06100257  0.10871731  0.00000000       0.009
  -0.04575192  0.10871731  0.00000000       0.009
  -0.03050128  0.10871731  0.00000000       0.009
  -0.01525064  0.10871731  0.00000000       0.009
 
 k-points in reciprocal lattice and weights: KMesh Grid                              
   0.00000000  0.00000000  0.00000000       0.004
   0.06666667  0.00000000  0.00000000       0.009
   0.13333333  0.00000000  0.00000000       0.009
   0.20000000  0.00000000  0.00000000       0.009
   0.26666667  0.00000000  0.00000000       0.009
   0.33333333  0.00000000  0.00000000       0.009
   0.40000000  0.00000000  0.00000000       0.009
   0.46666667  0.00000000  0.00000000       0.009
   0.00000000  0.06666667  0.00000000       0.009
   0.06666667  0.06666667  0.00000000       0.009
   0.13333333  0.06666667  0.00000000       0.009
   0.20000000  0.06666667  0.00000000       0.009
   0.26666667  0.06666667  0.00000000       0.009
   0.33333333  0.06666667  0.00000000       0.009
   0.40000000  0.06666667  0.00000000       0.009
   0.46666667  0.06666667  0.00000000       0.009
  -0.46666667  0.06666667  0.00000000       0.009
  -0.40000000  0.06666667  0.00000000       0.009
  -0.33333333  0.06666667  0.00000000       0.009
  -0.26666667  0.06666667  0.00000000       0.009
  -0.20000000  0.06666667  0.00000000       0.009
  -0.13333333  0.06666667  0.00000000       0.009
  -0.06666667  0.06666667  0.00000000       0.009
   0.00000000  0.13333333  0.00000000       0.009
   0.06666667  0.13333333  0.00000000       0.009
   0.13333333  0.13333333  0.00000000       0.009
   0.20000000  0.13333333  0.00000000       0.009
   0.26666667  0.13333333  0.00000000       0.009
   0.33333333  0.13333333  0.00000000       0.009
   0.40000000  0.13333333  0.00000000       0.009
   0.46666667  0.13333333  0.00000000       0.009
  -0.46666667  0.13333333  0.00000000       0.009
  -0.40000000  0.13333333  0.00000000       0.009
  -0.33333333  0.13333333  0.00000000       0.009
  -0.26666667  0.13333333  0.00000000       0.009
  -0.20000000  0.13333333  0.00000000       0.009
  -0.13333333  0.13333333  0.00000000       0.009
  -0.06666667  0.13333333  0.00000000       0.009
   0.00000000  0.20000000  0.00000000       0.009
   0.06666667  0.20000000  0.00000000       0.009
   0.13333333  0.20000000  0.00000000       0.009
   0.20000000  0.20000000  0.00000000       0.009
   0.26666667  0.20000000  0.00000000       0.009
   0.33333333  0.20000000  0.00000000       0.009
   0.40000000  0.20000000  0.00000000       0.009
   0.46666667  0.20000000  0.00000000       0.009
  -0.46666667  0.20000000  0.00000000       0.009
  -0.40000000  0.20000000  0.00000000       0.009
  -0.33333333  0.20000000  0.00000000       0.009
  -0.26666667  0.20000000  0.00000000       0.009
  -0.20000000  0.20000000  0.00000000       0.009
  -0.13333333  0.20000000  0.00000000       0.009
  -0.06666667  0.20000000  0.00000000       0.009
   0.00000000  0.26666667  0.00000000       0.009
   0.06666667  0.26666667  0.00000000       0.009
   0.13333333  0.26666667  0.00000000       0.009
   0.20000000  0.26666667  0.00000000       0.009
   0.26666667  0.26666667  0.00000000       0.009
   0.33333333  0.26666667  0.00000000       0.009
   0.40000000  0.26666667  0.00000000       0.009
   0.46666667  0.26666667  0.00000000       0.009
  -0.46666667  0.26666667  0.00000000       0.009
  -0.40000000  0.26666667  0.00000000       0.009
  -0.33333333  0.26666667  0.00000000       0.009
  -0.26666667  0.26666667  0.00000000       0.009
  -0.20000000  0.26666667  0.00000000       0.009
  -0.13333333  0.26666667  0.00000000       0.009
  -0.06666667  0.26666667  0.00000000       0.009
   0.00000000  0.33333333  0.00000000       0.009
   0.06666667  0.33333333  0.00000000       0.009
   0.13333333  0.33333333  0.00000000       0.009
   0.20000000  0.33333333  0.00000000       0.009
   0.26666667  0.33333333  0.00000000       0.009
   0.33333333  0.33333333  0.00000000       0.009
   0.40000000  0.33333333  0.00000000       0.009
   0.46666667  0.33333333  0.00000000       0.009
  -0.46666667  0.33333333  0.00000000       0.009
  -0.40000000  0.33333333  0.00000000       0.009
  -0.33333333  0.33333333  0.00000000       0.009
  -0.26666667  0.33333333  0.00000000       0.009
  -0.20000000  0.33333333  0.00000000       0.009
  -0.13333333  0.33333333  0.00000000       0.009
  -0.06666667  0.33333333  0.00000000       0.009
   0.00000000  0.40000000  0.00000000       0.009
   0.06666667  0.40000000  0.00000000       0.009
   0.13333333  0.40000000  0.00000000       0.009
   0.20000000  0.40000000  0.00000000       0.009
   0.26666667  0.40000000  0.00000000       0.009
   0.33333333  0.40000000  0.00000000       0.009
   0.40000000  0.40000000  0.00000000       0.009
   0.46666667  0.40000000  0.00000000       0.009
  -0.46666667  0.40000000  0.00000000       0.009
  -0.40000000  0.40000000  0.00000000       0.009
  -0.33333333  0.40000000  0.00000000       0.009
  -0.26666667  0.40000000  0.00000000       0.009
  -0.20000000  0.40000000  0.00000000       0.009
  -0.13333333  0.40000000  0.00000000       0.009
  -0.06666667  0.40000000  0.00000000       0.009
   0.00000000  0.46666667  0.00000000       0.009
   0.06666667  0.46666667  0.00000000       0.009
   0.13333333  0.46666667  0.00000000       0.009
   0.20000000  0.46666667  0.00000000       0.009
   0.26666667  0.46666667  0.00000000       0.009
   0.33333333  0.46666667  0.00000000       0.009
   0.40000000  0.46666667  0.00000000       0.009
   0.46666667  0.46666667  0.00000000       0.009
  -0.46666667  0.46666667  0.00000000       0.009
  -0.40000000  0.46666667  0.00000000       0.009
  -0.33333333  0.46666667  0.00000000       0.009
  -0.26666667  0.46666667  0.00000000       0.009
  -0.20000000  0.46666667  0.00000000       0.009
  -0.13333333  0.46666667  0.00000000       0.009
  -0.06666667  0.46666667  0.00000000       0.009
 
 position of ions in fractional coordinates (direct lattice) 
   0.58124336  0.75000000  0.56874314
   0.08124336  0.25000000  0.43125686
   0.03286064  0.25000000  0.56707387
   0.53286061  0.75000000  0.43292613
 
 position of ions in cartesian coordinates  (Angst):
   2.54084772  3.21935839 11.37486283
   0.35514729  1.07311946  8.62513717
   0.14364704  1.07311946 11.34147733
   2.32934736  3.21935839  8.65852267
 


--------------------------------------------------------------------------------------------------------


 k-point  1 :   0.0000 0.0000 0.0000  plane waves:   12607
 k-point  2 :   0.0667 0.0000 0.0000  plane waves:   12575
 k-point  3 :   0.1333 0.0000 0.0000  plane waves:   12549
 k-point  4 :   0.2000 0.0000 0.0000  plane waves:   12523
 k-point  5 :   0.2667 0.0000 0.0000  plane waves:   12495
 k-point  6 :   0.3333 0.0000 0.0000  plane waves:   12542
 k-point  7 :   0.4000 0.0000 0.0000  plane waves:   12570
 k-point  8 :   0.4667 0.0000 0.0000  plane waves:   12556
 k-point  9 :   0.0000 0.0667 0.0000  plane waves:   12561
 k-point 10 :   0.0667 0.0667 0.0000  plane waves:   12548
 k-point 11 :   0.1333 0.0667 0.0000  plane waves:   12528
 k-point 12 :   0.2000 0.0667 0.0000  plane waves:   12534
 k-point 13 :   0.2667 0.0667 0.0000  plane waves:   12524
 k-point 14 :   0.3333 0.0667 0.0000  plane waves:   12537
 k-point 15 :   0.4000 0.0667 0.0000  plane waves:   12568
 k-point 16 :   0.4667 0.0667 0.0000  plane waves:   12558
 k-point 17 :  -0.4667 0.0667 0.0000  plane waves:   12558
 k-point 18 :  -0.4000 0.0667 0.0000  plane waves:   12568
 k-point 19 :  -0.3333 0.0667 0.0000  plane waves:   12537
 k-point 20 :  -0.2667 0.0667 0.0000  plane waves:   12524
 k-point 21 :  -0.2000 0.0667 0.0000  plane waves:   12534
 k-point 22 :  -0.1333 0.0667 0.0000  plane waves:   12528
 k-point 23 :  -0.0667 0.0667 0.0000  plane waves:   12548
 k-point 24 :   0.0000 0.1333 0.0000  plane waves:   12537
 k-point 25 :   0.0667 0.1333 0.0000  plane waves:   12548
 k-point 26 :   0.1333 0.1333 0.0000  plane waves:   12516
 k-point 27 :   0.2000 0.1333 0.0000  plane waves:   12512
 k-point 28 :   0.2667 0.1333 0.0000  plane waves:   12524
 k-point 29 :   0.3333 0.1333 0.0000  plane waves:   12548
 k-point 30 :   0.4000 0.1333 0.0000  plane waves:   12539
 k-point 31 :   0.4667 0.1333 0.0000  plane waves:   12540
 k-point 32 :  -0.4667 0.1333 0.0000  plane waves:   12540
 k-point 33 :  -0.4000 0.1333 0.0000  plane waves:   12539
 k-point 34 :  -0.3333 0.1333 0.0000  plane waves:   12548
 k-point 35 :  -0.2667 0.1333 0.0000  plane waves:   12524
 k-point 36 :  -0.2000 0.1333 0.0000  plane waves:   12512
 k-point 37 :  -0.1333 0.1333 0.0000  plane waves:   12516
 k-point 38 :  -0.0667 0.1333 0.0000  plane waves:   12548
 k-point 39 :   0.0000 0.2000 0.0000  plane waves:   12541
 k-point 40 :   0.0667 0.2000 0.0000  plane waves:   12535
 k-point 41 :   0.1333 0.2000 0.0000  plane waves:   12540
 k-point 42 :   0.2000 0.2000 0.0000  plane waves:   12531
 k-point 43 :   0.2667 0.2000 0.0000  plane waves:   12522
 k-point 44 :   0.3333 0.2000 0.0000  plane waves:   12519
 k-point 45 :   0.4000 0.2000 0.0000  plane waves:   12526
 k-point 46 :   0.4667 0.2000 0.0000  plane waves:   12540
 k-point 47 :  -0.4667 0.2000 0.0000  plane waves:   12540
 k-point 48 :  -0.4000 0.2000 0.0000  plane waves:   12526
 k-point 49 :  -0.3333 0.2000 0.0000  plane waves:   12519
 k-point 50 :  -0.2667 0.2000 0.0000  plane waves:   12522
 k-point 51 :  -0.2000 0.2000 0.0000  plane waves:   12531
 k-point 52 :  -0.1333 0.2000 0.0000  plane waves:   12540
 k-point 53 :  -0.0667 0.2000 0.0000  plane waves:   12535
 k-point 54 :   0.0000 0.2667 0.0000  plane waves:   12525
 k-point 55 :   0.0667 0.2667 0.0000  plane waves:   12516
 k-point 56 :   0.1333 0.2667 0.0000  plane waves:   12526
 k-point 57 :   0.2000 0.2667 0.0000  plane waves:   12523
 k-point 58 :   0.2667 0.2667 0.0000  plane waves:   12520
 k-point 59 :   0.3333 0.2667 0.0000  plane waves:   12515
 k-point 60 :   0.4000 0.2667 0.0000  plane waves:   12513
 k-point 61 :   0.4667 0.2667 0.0000  plane waves:   12527
 k-point 62 :  -0.4667 0.2667 0.0000  plane waves:   12527
 k-point 63 :  -0.4000 0.2667 0.0000  plane waves:   12513
 k-point 64 :  -0.3333 0.2667 0.0000  plane waves:   12515
 k-point 65 :  -0.2667 0.2667 0.0000  plane waves:   12520
 k-point 66 :  -0.2000 0.2667 0.0000  plane waves:   12523
 k-point 67 :  -0.1333 0.2667 0.0000  plane waves:   12526
 k-point 68 :  -0.0667 0.2667 0.0000  plane waves:   12516
 k-point 69 :   0.0000 0.3333 0.0000  plane waves:   12499
 k-point 70 :   0.0667 0.3333 0.0000  plane waves:   12509
 k-point 71 :   0.1333 0.3333 0.0000  plane waves:   12524
 k-point 72 :   0.2000 0.3333 0.0000  plane waves:   12525
 k-point 73 :   0.2667 0.3333 0.0000  plane waves:   12509
 k-point 74 :   0.3333 0.3333 0.0000  plane waves:   12509
 k-point 75 :   0.4000 0.3333 0.0000  plane waves:   12512
 k-point 76 :   0.4667 0.3333 0.0000  plane waves:   12514
 k-point 77 :  -0.4667 0.3333 0.0000  plane waves:   12514
 k-point 78 :  -0.4000 0.3333 0.0000  plane waves:   12512
 k-point 79 :  -0.3333 0.3333 0.0000  plane waves:   12509
 k-point 80 :  -0.2667 0.3333 0.0000  plane waves:   12509
 k-point 81 :  -0.2000 0.3333 0.0000  plane waves:   12525
 k-point 82 :  -0.1333 0.3333 0.0000  plane waves:   12524
 k-point 83 :  -0.0667 0.3333 0.0000  plane waves:   12509
 k-point 84 :   0.0000 0.4000 0.0000  plane waves:   12477
 k-point 85 :   0.0667 0.4000 0.0000  plane waves:   12511
 k-point 86 :   0.1333 0.4000 0.0000  plane waves:   12522
 k-point 87 :   0.2000 0.4000 0.0000  plane waves:   12511
 k-point 88 :   0.2667 0.4000 0.0000  plane waves:   12519
 k-point 89 :   0.3333 0.4000 0.0000  plane waves:   12504
 k-point 90 :   0.4000 0.4000 0.0000  plane waves:   12504
 k-point 91 :   0.4667 0.4000 0.0000  plane waves:   12511
 k-point 92 :  -0.4667 0.4000 0.0000  plane waves:   12511
 k-point 93 :  -0.4000 0.4000 0.0000  plane waves:   12504
 k-point 94 :  -0.3333 0.4000 0.0000  plane waves:   12504
 k-point 95 :  -0.2667 0.4000 0.0000  plane waves:   12519
 k-point 96 :  -0.2000 0.4000 0.0000  plane waves:   12511
 k-point 97 :  -0.1333 0.4000 0.0000  plane waves:   12522
 k-point 98 :  -0.0667 0.4000 0.0000  plane waves:   12511
 k-point 99 :   0.0000 0.4667 0.0000  plane waves:   12498
 k-point ** :   0.0667 0.4667 0.0000  plane waves:   12514
 k-point ** :   0.1333 0.4667 0.0000  plane waves:   12504
 k-point ** :   0.2000 0.4667 0.0000  plane waves:   12510
 k-point ** :   0.2667 0.4667 0.0000  plane waves:   12492
 k-point ** :   0.3333 0.4667 0.0000  plane waves:   12490
 k-point ** :   0.4000 0.4667 0.0000  plane waves:   12489
 k-point ** :   0.4667 0.4667 0.0000  plane waves:   12504
 k-point ** :  -0.4667 0.4667 0.0000  plane waves:   12504
 k-point ** :  -0.4000 0.4667 0.0000  plane waves:   12489
 k-point ** :  -0.3333 0.4667 0.0000  plane waves:   12490
 k-point ** :  -0.2667 0.4667 0.0000  plane waves:   12492
 k-point ** :  -0.2000 0.4667 0.0000  plane waves:   12510
 k-point ** :  -0.1333 0.4667 0.0000  plane waves:   12504
 k-point ** :  -0.0667 0.4667 0.0000  plane waves:   12514

 maximum and minimum number of plane-waves per node :       544      504

 maximum number of plane-waves:     12607
 maximum index in each direction: 
   IXMAX=    9   IYMAX=    8   IZMAX=   39
   IXMIN=   -9   IYMIN=   -9   IZMIN=  -39


 parallel 3D FFT for wavefunctions:
    minimum data exchange during FFTs selected (reduces bandwidth)
 parallel 3D FFT for charge:
    minimum data exchange during FFTs selected (reduces bandwidth)


 total amount of memory used by VASP MPI-rank0    63416. kBytes
=======================================================================

   base      :      30000. kBytes
   nonl-proj :      12561. kBytes
   fftplans  :       2678. kBytes
   grid      :       4349. kBytes
   one-center:          8. kBytes
   wavefun   :      13820. kBytes
 
     INWAV:  cpu time    0.0000: real time    0.0000
 Broyden mixing: mesh for mixing (old mesh)
   NGX = 17   NGY = 17   NGZ = 79
  (NGX  = 72   NGY  = 72   NGZ  =320)
  gives a total of  22831 points

 initial charge density was supplied:
 charge density of overlapping atoms calculated
 number of electron      20.0000000 magnetization 
 keeping initial charge density in first step


--------------------------------------------------------------------------------------------------------


 Maximum index for augmentation-charges         2234 (set IRDMAX)


--------------------------------------------------------------------------------------------------------


 First call to EWALD:  gamma=   0.246
 Maximum number of real-space cells 4x 4x 1
 Maximum number of reciprocal cells 2x 2x 7

    FEWALD:  cpu time    0.0014: real time    0.0021


--------------------------------------- Iteration      1(   1)  ---------------------------------------


    POTLOK:  cpu time    0.0460: real time    0.1555
    SETDIJ:  cpu time    0.0047: real time    0.0056
     EDDAV:  cpu time    2.3236: real time    2.3343
       DOS:  cpu time    0.0043: real time    0.0045
    --------------------------------------------
      LOOP:  cpu time    2.3786: real time    2.5000

 eigenvalue-minimisations  :  3164
 total energy-change (2. order) : 0.1430951E+03  (-0.6270801E+03)
 number of electron      20.0000000 magnetization 
 augmentation part       20.0000000 magnetization 

 Free energy of the ion-electron system (eV)
  ---------------------------------------------------
  alpha Z        PSCENC =         9.52803764
  Ewald energy   TEWEN  =      1156.74486696
  -Hartree energ DENC   =     -1758.68783241
  -exchange      EXHF   =         0.00000000
  -V(xc)+E(xc)   XCENC  =      -238.57042686
  PAW double counting   =       799.43158084     -524.17639913
  entropy T*S    EENTRO =        -0.01234540
  eigenvalues    EBANDS =        -3.59023238
  atomic energy  EATOM  =       702.42789710
  Solvation  Ediel_sol  =         0.00000000
  ---------------------------------------------------
  free energy    TOTEN  =       143.09514637 eV

  energy without entropy =      143.10749177  energy(sigma->0) =      143.10131907


--------------------------------------------------------------------------------------------------------




--------------------------------------- Iteration      1(   2)  ---------------------------------------


     EDDAV:  cpu time    3.3814: real time    3.3917
       DOS:  cpu time    0.0044: real time    0.0044
    --------------------------------------------
      LOOP:  cpu time    3.3857: real time    3.3961

 eigenvalue-minimisations  :  5270
 total energy-change (2. order) :-0.1386442E+03  (-0.1344486E+03)
 number of electron      20.0000000 magnetization 
 augmentation part       20.0000000 magnetization 

 Free energy of the ion-electron system (eV)
  ---------------------------------------------------
  alpha Z        PSCENC =         9.52803764
  Ewald energy   TEWEN  =      1156.74486696
  -Hartree energ DENC   =     -1758.68783241
  -exchange      EXHF   =         0.00000000
  -V(xc)+E(xc)   XCENC  =      -238.57042686
  PAW double counting   =       799.43158084     -524.17639913
  entropy T*S    EENTRO =        -0.00153907
  eigenvalues    EBANDS =      -142.24519460
  atomic energy  EATOM  =       702.42789710
  Solvation  Ediel_sol  =         0.00000000
  ---------------------------------------------------
  free energy    TOTEN  =         4.45099048 eV

  energy without entropy =        4.45252955  energy(sigma->0) =        4.45176001


--------------------------------------------------------------------------------------------------------




--------------------------------------- Iteration      1(   3)  ---------------------------------------


     EDDAV:  cpu time    2.7230: real time    2.7321
       DOS:  cpu time    0.0030: real time    0.0030
    --------------------------------------------
      LOOP:  cpu time    2.7260: real time    2.7351

 eigenvalue-minimisations  :  3992
 total energy-change (2. order) :-0.2043534E+02  (-0.2026378E+02)
 number of electron      20.0000000 magnetization 
 augmentation part       20.0000000 magnetization 

 Free energy of the ion-electron system (eV)
  ---------------------------------------------------
  alpha Z        PSCENC =         9.52803764
  Ewald energy   TEWEN  =      1156.74486696
  -Hartree energ DENC   =     -1758.68783241
  -exchange      EXHF   =         0.00000000
  -V(xc)+E(xc)   XCENC  =      -238.57042686
  PAW double counting   =       799.43158084     -524.17639913
  entropy T*S    EENTRO =        -0.00000000
  eigenvalues    EBANDS =      -162.68207134
  atomic energy  EATOM  =       702.42789710
  Solvation  Ediel_sol  =         0.00000000
  ---------------------------------------------------
  free energy    TOTEN  =       -15.98434719 eV

  energy without entropy =      -15.98434719  energy(sigma->0) =      -15.98434719


--------------------------------------------------------------------------------------------------------




--------------------------------------- Iteration      1(   4)  ---------------------------------------


     EDDAV:  cpu time    2.9059: real time    2.9144
       DOS:  cpu time    0.0030: real time    0.0030
    --------------------------------------------
      LOOP:  cpu time    2.9089: real time    2.9174

 eigenvalue-minimisations  :  4388
 total energy-change (2. order) :-0.7907919E+00  (-0.7885514E+00)
 number of electron      20.0000000 magnetization 
 augmentation part       20.0000000 magnetization 

 Free energy of the ion-electron system (eV)
  ---------------------------------------------------
  alpha Z        PSCENC =         9.52803764
  Ewald energy   TEWEN  =      1156.74486696
  -Hartree energ DENC   =     -1758.68783241
  -exchange      EXHF   =         0.00000000
  -V(xc)+E(xc)   XCENC  =      -238.57042686
  PAW double counting   =       799.43158084     -524.17639913
  entropy T*S    EENTRO =        -0.00000000
  eigenvalues    EBANDS =      -163.47286329
  atomic energy  EATOM  =       702.42789710
  Solvation  Ediel_sol  =         0.00000000
  ---------------------------------------------------
  free energy    TOTEN  =       -16.77513914 eV

  energy without entropy =      -16.77513914  energy(sigma->0) =      -16.77513914


--------------------------------------------------------------------------------------------------------




--------------------------------------- Iteration      1(   5)  ---------------------------------------


     EDDAV:  cpu time    2.8289: real time    2.8372
       DOS:  cpu time    0.0030: real time    0.0030
    CHARGE:  cpu time    0.1861: real time    0.1869
    MIXING:  cpu time    0.0031: real time    0.0035
    --------------------------------------------
      LOOP:  cpu time    3.0211: real time    3.0306

 eigenvalue-minimisations  :  4260
 total energy-change (2. order) :-0.1884072E-01  (-0.1882480E-01)
 number of electron      20.0000000 magnetization 
 augmentation part       -4.5236945 magnetization 

 Broyden mixing:
  rms(total) = 0.45241E+00    rms(broyden)= 0.45241E+00
  rms(prec ) = 0.49268E+00
  weight for this iteration     100.00

 Free energy of the ion-electron system (eV)
  ---------------------------------------------------
  alpha Z        PSCENC =         9.52803764
  Ewald energy   TEWEN  =      1156.74486696
  -Hartree energ DENC   =     -1758.68783241
  -exchange      EXHF   =         0.00000000
  -V(xc)+E(xc)   XCENC  =      -238.57042686
  PAW double counting   =       799.43158084     -524.17639913
  entropy T*S    EENTRO =        -0.00000000
  eigenvalues    EBANDS =      -163.49170401
  atomic energy  EATOM  =       702.42789710
  Solvation  Ediel_sol  =         0.00000000
  ---------------------------------------------------
  free energy    TOTEN  =       -16.79397986 eV

  energy without entropy =      -16.79397986  energy(sigma->0) =      -16.79397986


--------------------------------------------------------------------------------------------------------




--------------------------------------- Iteration      1(   6)  ---------------------------------------


    POTLOK:  cpu time    0.0448: real time    0.0449
    SETDIJ:  cpu time    0.0038: real time    0.0038
     EDDAV:  cpu time    2.6620: real time    2.6701
       DOS:  cpu time    0.0031: real time    0.0031
    CHARGE:  cpu time    0.1754: real time    0.1758
    MIXING:  cpu time    0.0016: real time    0.0018
    --------------------------------------------
      LOOP:  cpu time    2.8907: real time    2.8995

 eigenvalue-minimisations  :  3954
 total energy-change (2. order) : 0.4879498E+00  (-0.1239479E+00)
 number of electron      20.0000000 magnetization 
 augmentation part       -4.4910942 magnetization 

 Broyden mixing:
  rms(total) = 0.27782E+00    rms(broyden)= 0.27782E+00
  rms(prec ) = 0.28696E+00
  weight for this iteration     100.00

 eigenvalues of (default mixing * dielectric matrix)
  average eigenvalue GAMMA=   1.8095
  1.8095

 Free energy of the ion-electron system (eV)
  ---------------------------------------------------
  alpha Z        PSCENC =         9.52803764
  Ewald energy   TEWEN  =      1156.74486696
  -Hartree energ DENC   =     -1766.56271266
  -exchange      EXHF   =         0.00000000
  -V(xc)+E(xc)   XCENC  =      -238.08809531
  PAW double counting   =       924.80383532     -649.73185107
  entropy T*S    EENTRO =        -0.00000000
  eigenvalues    EBANDS =      -155.42800800
  atomic energy  EATOM  =       702.42789710
  Solvation  Ediel_sol  =         0.00000000
  ---------------------------------------------------
  free energy    TOTEN  =       -16.30603001 eV

  energy without entropy =      -16.30603001  energy(sigma->0) =      -16.30603001


--------------------------------------------------------------------------------------------------------




--------------------------------------- Iteration      1(   7)  ---------------------------------------


    POTLOK:  cpu time    0.0447: real time    0.0448
    SETDIJ:  cpu time    0.0037: real time    0.0037
     EDDAV:  cpu time    2.8210: real time    2.8291
       DOS:  cpu time    0.0031: real time    0.0031
    CHARGE:  cpu time    0.1725: real time    0.1729
    MIXING:  cpu time    0.0016: real time    0.0018
    --------------------------------------------
      LOOP:  cpu time    3.0466: real time    3.0554

 eigenvalue-minimisations  :  4212
 total energy-change (2. order) : 0.2800851E-01  (-0.3138141E-01)
 number of electron      20.0000000 magnetization 
 augmentation part       -4.4826729 magnetization 

 Broyden mixing:
  rms(total) = 0.10450E+00    rms(broyden)= 0.10450E+00
  rms(prec ) = 0.10993E+00
  weight for this iteration     100.00

 eigenvalues of (default mixing * dielectric matrix)
  average eigenvalue GAMMA=   1.7328
  1.3727  2.0928

 Free energy of the ion-electron system (eV)
  ---------------------------------------------------
  alpha Z        PSCENC =         9.52803764
  Ewald energy   TEWEN  =      1156.74486696
  -Hartree energ DENC   =     -1771.63209140
  -exchange      EXHF   =         0.00000000
  -V(xc)+E(xc)   XCENC  =      -237.76167184
  PAW double counting   =      1067.44063540     -792.50941031
  entropy T*S    EENTRO =        -0.00000000
  eigenvalues    EBANDS =      -150.51628505
  atomic energy  EATOM  =       702.42789710
  Solvation  Ediel_sol  =         0.00000000
  ---------------------------------------------------
  free energy    TOTEN  =       -16.27802150 eV

  energy without entropy =      -16.27802150  energy(sigma->0) =      -16.27802150


--------------------------------------------------------------------------------------------------------




--------------------------------------- Iteration      1(   8)  ---------------------------------------


    POTLOK:  cpu time    0.0464: real time    0.0466
    SETDIJ:  cpu time    0.0037: real time    0.0038
     EDDAV:  cpu time    2.9665: real time    2.9767
       DOS:  cpu time    0.0031: real time    0.0031
    CHARGE:  cpu time    0.1776: real time    0.1779
    MIXING:  cpu time    0.0016: real time    0.0016
    --------------------------------------------
      LOOP:  cpu time    3.1989: real time    3.2097

 eigenvalue-minimisations  :  4462
 total energy-change (2. order) : 0.9732751E-02  (-0.3851509E-02)
 number of electron      20.0000000 magnetization 
 augmentation part       -4.4868585 magnetization 

 Broyden mixing:
  rms(total) = 0.20326E-01    rms(broyden)= 0.20326E-01
  rms(prec ) = 0.27788E-01
  weight for this iteration     100.00

 eigenvalues of (default mixing * dielectric matrix)
  average eigenvalue GAMMA=   1.7085
  2.5298  1.2978  1.2978

 Free energy of the ion-electron system (eV)
  ---------------------------------------------------
  alpha Z        PSCENC =         9.52803764
  Ewald energy   TEWEN  =      1156.74486696
  -Hartree energ DENC   =     -1773.33683803
  -exchange      EXHF   =         0.00000000
  -V(xc)+E(xc)   XCENC  =      -237.68316612
  PAW double counting   =      1133.27439835     -858.38218205
  entropy T*S    EENTRO =        -0.00000000
  eigenvalues    EBANDS =      -148.84130260
  atomic energy  EATOM  =       702.42789710
  Solvation  Ediel_sol  =         0.00000000
  ---------------------------------------------------
  free energy    TOTEN  =       -16.26828875 eV

  energy without entropy =      -16.26828875  energy(sigma->0) =      -16.26828875


--------------------------------------------------------------------------------------------------------




--------------------------------------- Iteration      1(   9)  ---------------------------------------


    POTLOK:  cpu time    0.0470: real time    0.0471
    SETDIJ:  cpu time    0.0038: real time    0.0043
     EDDAV:  cpu time    2.8641: real time    2.8720
       DOS:  cpu time    0.0031: real time    0.0031
    CHARGE:  cpu time    0.1771: real time    0.1774
    MIXING:  cpu time    0.0017: real time    0.0016
    --------------------------------------------
      LOOP:  cpu time    3.0968: real time    3.1056

 eigenvalue-minimisations  :  4328
 total energy-change (2. order) : 0.3744887E-02  (-0.6617878E-03)
 number of electron      20.0000000 magnetization 
 augmentation part       -4.4849393 magnetization 

 Broyden mixing:
  rms(total) = 0.10071E-01    rms(broyden)= 0.10071E-01
  rms(prec ) = 0.15659E-01
  weight for this iteration     100.00

 eigenvalues of (default mixing * dielectric matrix)
  average eigenvalue GAMMA=   1.7109
  2.2286  2.2286  1.1932  1.1932

 Free energy of the ion-electron system (eV)
  ---------------------------------------------------
  alpha Z        PSCENC =         9.52803764
  Ewald energy   TEWEN  =      1156.74486696
  -Hartree energ DENC   =     -1775.32247185
  -exchange      EXHF   =         0.00000000
  -V(xc)+E(xc)   XCENC  =      -237.60985290
  PAW double counting   =      1151.39939702     -876.51925312
  entropy T*S    EENTRO =        -0.00000000
  eigenvalues    EBANDS =      -146.91316471
  atomic energy  EATOM  =       702.42789710
  Solvation  Ediel_sol  =         0.00000000
  ---------------------------------------------------
  free energy    TOTEN  =       -16.26454387 eV

  energy without entropy =      -16.26454387  energy(sigma->0) =      -16.26454387


--------------------------------------------------------------------------------------------------------




--------------------------------------- Iteration      1(  10)  ---------------------------------------


    POTLOK:  cpu time    0.0449: real time    0.0451
    SETDIJ:  cpu time    0.0050: real time    0.0050
     EDDAV:  cpu time    2.8689: real time    2.8774
       DOS:  cpu time    0.0031: real time    0.0031
    CHARGE:  cpu time    0.1757: real time    0.1761
    MIXING:  cpu time    0.0018: real time    0.0018
    --------------------------------------------
      LOOP:  cpu time    3.0993: real time    3.1085

 eigenvalue-minimisations  :  4364
 total energy-change (2. order) : 0.1287378E-02  (-0.1229084E-03)
 number of electron      20.0000000 magnetization 
 augmentation part       -4.4836649 magnetization 

 Broyden mixing:
  rms(total) = 0.51953E-02    rms(broyden)= 0.51953E-02
  rms(prec ) = 0.94064E-02
  weight for this iteration     100.00

 eigenvalues of (default mixing * dielectric matrix)
  average eigenvalue GAMMA=   1.8669
  3.3497  2.5967  1.2402  1.2402  0.9075

 Free energy of the ion-electron system (eV)
  ---------------------------------------------------
  alpha Z        PSCENC =         9.52803764
  Ewald energy   TEWEN  =      1156.74486696
  -Hartree energ DENC   =     -1776.60778818
  -exchange      EXHF   =         0.00000000
  -V(xc)+E(xc)   XCENC  =      -237.59859496
  PAW double counting   =      1140.76318615     -865.87271682
  entropy T*S    EENTRO =        -0.00000000
  eigenvalues    EBANDS =      -145.64814438
  atomic energy  EATOM  =       702.42789710
  Solvation  Ediel_sol  =         0.00000000
  ---------------------------------------------------
  free energy    TOTEN  =       -16.26325649 eV

  energy without entropy =      -16.26325649  energy(sigma->0) =      -16.26325649


--------------------------------------------------------------------------------------------------------




--------------------------------------- Iteration      1(  11)  ---------------------------------------


    POTLOK:  cpu time    0.0431: real time    0.0433
    SETDIJ:  cpu time    0.0038: real time    0.0038
     EDDAV:  cpu time    2.8618: real time    2.8704
       DOS:  cpu time    0.0032: real time    0.0032
    CHARGE:  cpu time    0.1758: real time    0.1761
    MIXING:  cpu time    0.0018: real time    0.0019
    --------------------------------------------
      LOOP:  cpu time    3.0895: real time    3.0987

 eigenvalue-minimisations  :  4268
 total energy-change (2. order) : 0.7261099E-03  (-0.1250755E-03)
 number of electron      20.0000000 magnetization 
 augmentation part       -4.4822833 magnetization 

 Broyden mixing:
  rms(total) = 0.32679E-02    rms(broyden)= 0.32679E-02
  rms(prec ) = 0.49939E-02
  weight for this iteration     100.00

 eigenvalues of (default mixing * dielectric matrix)
  average eigenvalue GAMMA=   1.8387
  3.4034  2.3124  2.0431  1.1937  1.1937  0.8859

 Free energy of the ion-electron system (eV)
  ---------------------------------------------------
  alpha Z        PSCENC =         9.52803764
  Ewald energy   TEWEN  =      1156.74486696
  -Hartree energ DENC   =     -1778.20803582
  -exchange      EXHF   =         0.00000000
  -V(xc)+E(xc)   XCENC  =      -237.56697071
  PAW double counting   =      1142.33177063     -867.44043524
  entropy T*S    EENTRO =        -0.00000000
  eigenvalues    EBANDS =      -144.07966095
  atomic energy  EATOM  =       702.42789710
  Solvation  Ediel_sol  =         0.00000000
  ---------------------------------------------------
  free energy    TOTEN  =       -16.26253038 eV

  energy without entropy =      -16.26253038  energy(sigma->0) =      -16.26253038


--------------------------------------------------------------------------------------------------------




--------------------------------------- Iteration      1(  12)  ---------------------------------------


    POTLOK:  cpu time    0.0447: real time    0.0448
    SETDIJ:  cpu time    0.0038: real time    0.0038
     EDDAV:  cpu time    2.5454: real time    2.5531
       DOS:  cpu time    0.0031: real time    0.0031
    CHARGE:  cpu time    0.1709: real time    0.1712
    MIXING:  cpu time    0.0018: real time    0.0018
    --------------------------------------------
      LOOP:  cpu time    2.7696: real time    2.7778

 eigenvalue-minimisations  :  3566
 total energy-change (2. order) :-0.8286799E-03  (-0.2927033E-04)
 number of electron      20.0000000 magnetization 
 augmentation part       -4.4816503 magnetization 

 Broyden mixing:
  rms(total) = 0.18079E-02    rms(broyden)= 0.18079E-02
  rms(prec ) = 0.27903E-02
  weight for this iteration     100.00

 eigenvalues of (default mixing * dielectric matrix)
  average eigenvalue GAMMA=   2.0688
  4.6118  3.0809  2.5019  1.2087  1.2087  1.0250  0.8442

 Free energy of the ion-electron system (eV)
  ---------------------------------------------------
  alpha Z        PSCENC =         9.52803764
  Ewald energy   TEWEN  =      1156.74486696
  -Hartree energ DENC   =     -1778.84614169
  -exchange      EXHF   =         0.00000000
  -V(xc)+E(xc)   XCENC  =      -237.55753083
  PAW double counting   =      1144.12592544     -869.23725133
  entropy T*S    EENTRO =        -0.00000000
  eigenvalues    EBANDS =      -143.44916235
  atomic energy  EATOM  =       702.42789710
  Solvation  Ediel_sol  =         0.00000000
  ---------------------------------------------------
  free energy    TOTEN  =       -16.26335906 eV

  energy without entropy =      -16.26335906  energy(sigma->0) =      -16.26335906


--------------------------------------------------------------------------------------------------------




--------------------------------------- Iteration      1(  13)  ---------------------------------------


    POTLOK:  cpu time    0.0434: real time    0.0436
    SETDIJ:  cpu time    0.0038: real time    0.0038
     EDDAV:  cpu time    2.6209: real time    2.6282
       DOS:  cpu time    0.0032: real time    0.0032
    CHARGE:  cpu time    0.1745: real time    0.1749
    MIXING:  cpu time    0.0018: real time    0.0018
    --------------------------------------------
      LOOP:  cpu time    2.8475: real time    2.8555

 eigenvalue-minimisations  :  3722
 total energy-change (2. order) :-0.4299471E-03  (-0.7904347E-05)
 number of electron      20.0000000 magnetization 
 augmentation part       -4.4814458 magnetization 

 Broyden mixing:
  rms(total) = 0.11542E-02    rms(broyden)= 0.11542E-02
  rms(prec ) = 0.15278E-02
  weight for this iteration     100.00

 eigenvalues of (default mixing * dielectric matrix)
  average eigenvalue GAMMA=   2.2333
  5.6219  3.2944  2.4869  2.1672  1.1626  1.1626  1.0586  0.9125

 Free energy of the ion-electron system (eV)
  ---------------------------------------------------
  alpha Z        PSCENC =         9.52803764
  Ewald energy   TEWEN  =      1156.74486696
  -Hartree energ DENC   =     -1779.25727188
  -exchange      EXHF   =         0.00000000
  -V(xc)+E(xc)   XCENC  =      -237.55616975
  PAW double counting   =      1143.01696486     -868.12712883
  entropy T*S    EENTRO =        -0.00000000
  eigenvalues    EBANDS =      -143.04098510
  atomic energy  EATOM  =       702.42789710
  Solvation  Ediel_sol  =         0.00000000
  ---------------------------------------------------
  free energy    TOTEN  =       -16.26378901 eV

  energy without entropy =      -16.26378901  energy(sigma->0) =      -16.26378901


--------------------------------------------------------------------------------------------------------




--------------------------------------- Iteration      1(  14)  ---------------------------------------


    POTLOK:  cpu time    0.0442: real time    0.0444
    SETDIJ:  cpu time    0.0038: real time    0.0039
     EDDAV:  cpu time    2.7090: real time    2.7168
       DOS:  cpu time    0.0032: real time    0.0032
    CHARGE:  cpu time    0.1848: real time    0.1852
    MIXING:  cpu time    0.0020: real time    0.0019
    --------------------------------------------
      LOOP:  cpu time    2.9470: real time    2.9555

 eigenvalue-minimisations  :  3926
 total energy-change (2. order) :-0.2655385E-03  (-0.4174943E-05)
 number of electron      20.0000000 magnetization 
 augmentation part       -4.4814227 magnetization 

 Broyden mixing:
  rms(total) = 0.40133E-03    rms(broyden)= 0.40132E-03
  rms(prec ) = 0.62212E-03
  weight for this iteration     100.00

 eigenvalues of (default mixing * dielectric matrix)
  average eigenvalue GAMMA=   2.2433
  6.7332  3.0756  2.5317  2.5317  1.1876  1.1876  1.0379  0.9522  0.9522

 Free energy of the ion-electron system (eV)
  ---------------------------------------------------
  alpha Z        PSCENC =         9.52803764
  Ewald energy   TEWEN  =      1156.74486696
  -Hartree energ DENC   =     -1779.46433253
  -exchange      EXHF   =         0.00000000
  -V(xc)+E(xc)   XCENC  =      -237.55607792
  PAW double counting   =      1143.26436821     -868.37396356
  entropy T*S    EENTRO =        -0.00000000
  eigenvalues    EBANDS =      -142.83485045
  atomic energy  EATOM  =       702.42789710
  Solvation  Ediel_sol  =         0.00000000
  ---------------------------------------------------
  free energy    TOTEN  =       -16.26405454 eV

  energy without entropy =      -16.26405454  energy(sigma->0) =      -16.26405454


--------------------------------------------------------------------------------------------------------




--------------------------------------- Iteration      1(  15)  ---------------------------------------


    POTLOK:  cpu time    0.0444: real time    0.0446
    SETDIJ:  cpu time    0.0039: real time    0.0039
     EDDAV:  cpu time    2.6232: real time    2.6310
       DOS:  cpu time    0.0031: real time    0.0031
    CHARGE:  cpu time    0.1775: real time    0.1779
    MIXING:  cpu time    0.0020: real time    0.0020
    --------------------------------------------
      LOOP:  cpu time    2.8542: real time    2.8625

 eigenvalue-minimisations  :  3818
 total energy-change (2. order) :-0.5745800E-04  (-0.2043612E-06)
 number of electron      20.0000000 magnetization 
 augmentation part       -4.4814398 magnetization 

 Broyden mixing:
  rms(total) = 0.33435E-03    rms(broyden)= 0.33435E-03
  rms(prec ) = 0.50630E-03
  weight for this iteration     100.00

 eigenvalues of (default mixing * dielectric matrix)
  average eigenvalue GAMMA=   2.3534
  6.5256  4.2663  2.7005  2.7005  1.9671  1.1435  1.1435  1.2123  0.9373  0.9373

 Free energy of the ion-electron system (eV)
  ---------------------------------------------------
  alpha Z        PSCENC =         9.52803764
  Ewald energy   TEWEN  =      1156.74486696
  -Hartree energ DENC   =     -1779.47998628
  -exchange      EXHF   =         0.00000000
  -V(xc)+E(xc)   XCENC  =      -237.55641901
  PAW double counting   =      1143.08477715     -868.19424455
  entropy T*S    EENTRO =        -0.00000000
  eigenvalues    EBANDS =      -142.81904102
  atomic energy  EATOM  =       702.42789710
  Solvation  Ediel_sol  =         0.00000000
  ---------------------------------------------------
  free energy    TOTEN  =       -16.26411200 eV

  energy without entropy =      -16.26411200  energy(sigma->0) =      -16.26411200


--------------------------------------------------------------------------------------------------------




--------------------------------------- Iteration      1(  16)  ---------------------------------------


    POTLOK:  cpu time    0.0477: real time    0.0479
    SETDIJ:  cpu time    0.0038: real time    0.0038
     EDDAV:  cpu time    2.4796: real time    2.4868
       DOS:  cpu time    0.0032: real time    0.0032
    CHARGE:  cpu time    0.1714: real time    0.1717
    MIXING:  cpu time    0.0019: real time    0.0019
    --------------------------------------------
      LOOP:  cpu time    2.7076: real time    2.7154

 eigenvalue-minimisations  :  3528
 total energy-change (2. order) :-0.4557391E-04  (-0.8334985E-06)
 number of electron      20.0000000 magnetization 
 augmentation part       -4.4814516 magnetization 

 Broyden mixing:
  rms(total) = 0.12567E-03    rms(broyden)= 0.12567E-03
  rms(prec ) = 0.22729E-03
  weight for this iteration     100.00

 eigenvalues of (default mixing * dielectric matrix)
  average eigenvalue GAMMA=   2.2798
  6.8041  4.4853  2.6506  2.6506  2.2488  1.1573  1.1573  1.1934  0.9356  0.9356
  0.8597

 Free energy of the ion-electron system (eV)
  ---------------------------------------------------
  alpha Z        PSCENC =         9.52803764
  Ewald energy   TEWEN  =      1156.74486696
  -Hartree energ DENC   =     -1779.53250693
  -exchange      EXHF   =         0.00000000
  -V(xc)+E(xc)   XCENC  =      -237.55650120
  PAW double counting   =      1142.93748465     -868.04695816
  entropy T*S    EENTRO =        -0.00000000
  eigenvalues    EBANDS =      -142.76647764
  atomic energy  EATOM  =       702.42789710
  Solvation  Ediel_sol  =         0.00000000
  ---------------------------------------------------
  free energy    TOTEN  =       -16.26415758 eV

  energy without entropy =      -16.26415758  energy(sigma->0) =      -16.26415758


--------------------------------------------------------------------------------------------------------




--------------------------------------- Iteration      1(  17)  ---------------------------------------


    POTLOK:  cpu time    0.0431: real time    0.0433
    SETDIJ:  cpu time    0.0038: real time    0.0038
     EDDAV:  cpu time    2.3392: real time    2.3464
       DOS:  cpu time    0.0031: real time    0.0031
    CHARGE:  cpu time    0.1821: real time    0.1824
    MIXING:  cpu time    0.0021: real time    0.0021
    --------------------------------------------
[...]
  band No.  band energies     occupation 
      1     -14.5540      2.00000
      2     -14.2990      2.00000
      3      -8.8276      2.00000
      4      -8.6067      2.00000
      5      -6.0753      2.00000
      6      -5.1171      2.00000
      7      -4.8217      2.00000
      8      -4.0872      2.00000
      9      -3.8715      2.00000
     10      -3.0889      2.00000
     11       0.1375      0.00000
     12       1.0839      0.00000
     13       1.1832      0.00000
     14       1.5955      0.00000

 k-point    96 :      -0.2000    0.4000    0.0000
  band No.  band energies     occupation 
      1     -14.6243      2.00000
      2     -14.3225      2.00000
      3      -8.9942      2.00000
      4      -8.7114      2.00000
      5      -5.6340      2.00000
      6      -4.8254      2.00000
      7      -4.5559      2.00000
      8      -3.9545      2.00000
      9      -3.4973      2.00000
     10      -2.7045      2.00000
     11      -0.3373      0.00000
     12       0.5805      0.00000
     13       0.7119      0.00000
     14       1.2278      0.00000

 k-point    97 :      -0.1333    0.4000    0.0000
  band No.  band energies     occupation 
      1     -14.6805      2.00000
      2     -14.3457      2.00000
      3      -9.1231      2.00000
      4      -8.7973      2.00000
      5      -5.1125      2.00000
      6      -4.7657      2.00000
      7      -4.1401      2.00000
      8      -3.9112      2.00000
      9      -2.9243      2.00000
     10      -2.4660      2.00000
     11      -0.6231      0.00000
     12      -0.1530      0.00000
     13       0.4884      0.00000
     14       0.7985      0.00000

 k-point    98 :      -0.0667    0.4000    0.0000
  band No.  band energies     occupation 
      1     -14.7167      2.00000
      2     -14.3624      2.00000
      3      -9.2037      2.00000
      4      -8.8531      2.00000
      5      -4.7722      2.00000
      6      -4.5742      2.00000
      7      -3.9361      2.00000
      8      -3.7263      2.00000
      9      -2.6322      2.00000
     10      -2.3432      2.00000
     11      -0.7536      0.00000
     12      -0.3764      0.00000
     13       0.2363      0.00000
     14       0.3688      0.00000

 k-point    99 :       0.0000    0.4667    0.0000
  band No.  band energies     occupation 
      1     -14.5845      2.00000
      2     -14.4605      2.00000
      3      -9.2164      2.00000
      4      -9.0931      2.00000
      5      -4.5323      2.00000
      6      -4.3100      2.00000
      7      -3.8398      2.00000
      8      -3.6430      2.00000
      9      -2.5416      2.00000
     10      -2.1940      2.00000
     11      -0.8918      0.00000
     12      -0.4489      0.00000
     13      -0.0719      0.00000
     14       0.1276      0.00000

 k-point   100 :       0.0667    0.4667    0.0000
  band No.  band energies     occupation 
      1     -14.5742      2.00000
      2     -14.4524      2.00000
      3      -9.1883      2.00000
      4      -9.0677      2.00000
      5      -4.5452      2.00000
      6      -4.4195      2.00000
      7      -3.9973      2.00000
      8      -3.8567      2.00000
      9      -2.4561      2.00000
     10      -2.3547      2.00000
     11      -0.7970      0.00000
     12      -0.6893      0.00000
     13       0.2937      0.00000
     14       0.5972      0.00000

 k-point   101 :       0.1333    0.4667    0.0000
  band No.  band energies     occupation 
      1     -14.5446      2.00000
      2     -14.4296      2.00000
      3      -9.1050      2.00000
      4      -8.9931      2.00000
      5      -4.8326      2.00000
      6      -4.6510      2.00000
      7      -4.2356      2.00000
      8      -4.1175      2.00000
      9      -2.8330      2.00000
     10      -2.6227      2.00000
     11      -0.5430      0.00000
     12      -0.3042      0.00000
     13       0.7887      0.00000
     14       0.8938      0.00000

 k-point   102 :       0.2000    0.4667    0.0000
  band No.  band energies     occupation 
      1     -14.4995      2.00000
      2     -14.3958      2.00000
      3      -8.9703      2.00000
      4      -8.8734      2.00000
      5      -5.3515      2.00000
      6      -5.0266      2.00000
      7      -4.4272      2.00000
      8      -4.1923      2.00000
      9      -3.3575      2.00000
     10      -3.0568      2.00000
     11      -0.0117      0.00000
     12       0.3508      0.00000
     13       1.0174      0.00000
     14       1.2435      0.00000

 k-point   103 :       0.2667    0.4667    0.0000
  band No.  band energies     occupation 
      1     -14.4449      2.00000
      2     -14.3574      2.00000
      3      -8.7923      2.00000
      4      -8.7174      2.00000
      5      -5.8321      2.00000
      6      -5.4894      2.00000
      7      -4.6228      2.00000
      8      -4.3600      2.00000
      9      -3.7051      2.00000
     10      -3.4312      2.00000
     11       0.5008      0.00000
     12       0.8589      0.00000
     13       1.4308      0.00000
     14       1.6798      0.00000

 k-point   104 :       0.3333    0.4667    0.0000
  band No.  band energies     occupation 
      1     -14.3888      2.00000
      2     -14.3221      2.00000
      3      -8.5876      2.00000
      4      -8.5408      2.00000
      5      -6.2260      2.00000
      6      -5.9120      2.00000
      7      -4.9266      2.00000
      8      -4.6659      2.00000
      9      -3.8135      2.00000
     10      -3.6151      2.00000
     11       0.8461      0.00000
     12       1.1191      0.00000
     13       1.9970      0.00000
     14       2.2712      0.00000

 k-point   105 :       0.4000    0.4667    0.0000
  band No.  band energies     occupation 
      1     -14.3397      2.00000
      2     -14.2978      2.00000
      3      -8.3903      2.00000
      4      -8.3720      2.00000
      5      -6.4988      2.00000
      6      -6.2662      2.00000
      7      -5.1880      2.00000
      8      -4.9930      2.00000
      9      -3.8061      2.00000
     10      -3.6859      2.00000
     11       1.0845      0.00000
     12       1.2549      0.00000
     13       2.4911      0.00000
     14       2.7206      0.00000

 k-point   106 :       0.4667    0.4667    0.0000
  band No.  band energies     occupation 
      1     -14.3054      2.00000
      2     -14.2911      2.00000
      3      -8.2613      2.00000
      4      -8.2591      2.00000
      5      -6.6070      2.00000
      6      -6.5184      2.00000
      7      -5.2969      2.00000
      8      -5.2242      2.00000
      9      -3.7676      2.00000
     10      -3.7271      2.00000
     11       1.2406      0.00000
     12       1.2986      0.00000
     13       2.6983      0.00000
     14       2.7922      0.00000

 k-point   107 :      -0.4667    0.4667    0.0000
  band No.  band energies     occupation 
      1     -14.3054      2.00000
      2     -14.2911      2.00000
      3      -8.2613      2.00000
      4      -8.2591      2.00000
      5      -6.6070      2.00000
      6      -6.5184      2.00000
      7      -5.2969      2.00000
      8      -5.2242      2.00000
      9      -3.7676      2.00000
     10      -3.7271      2.00000
     11       1.2406      0.00000
     12       1.2986      0.00000
     13       2.6983      0.00000
     14       2.7922      0.00000

 k-point   108 :      -0.4000    0.4667    0.0000
  band No.  band energies     occupation 
      1     -14.3397      2.00000
      2     -14.2978      2.00000
      3      -8.3903      2.00000
      4      -8.3720      2.00000
      5      -6.4988      2.00000
      6      -6.2662      2.00000
      7      -5.1880      2.00000
      8      -4.9930      2.00000
      9      -3.8061      2.00000
     10      -3.6859      2.00000
     11       1.0845      0.00000
     12       1.2549      0.00000
     13       2.4911      0.00000
     14       2.7206      0.00000

 k-point   109 :      -0.3333    0.4667    0.0000
  band No.  band energies     occupation 
      1     -14.3888      2.00000
      2     -14.3221      2.00000
      3      -8.5876      2.00000
      4      -8.5408      2.00000
      5      -6.2260      2.00000
      6      -5.9120      2.00000
      7      -4.9266      2.00000
      8      -4.6659      2.00000
      9      -3.8135      2.00000
     10      -3.6151      2.00000
     11       0.8461      0.00000
     12       1.1191      0.00000
     13       1.9970      0.00000
     14       2.2712      0.00000

 k-point   110 :      -0.2667    0.4667    0.0000
  band No.  band energies     occupation 
      1     -14.4449      2.00000
      2     -14.3574      2.00000
      3      -8.7923      2.00000
      4      -8.7174      2.00000
      5      -5.8321      2.00000
      6      -5.4894      2.00000
      7      -4.6228      2.00000
      8      -4.3600      2.00000
      9      -3.7051      2.00000
     10      -3.4312      2.00000
     11       0.5008      0.00000
     12       0.8589      0.00000
     13       1.4308      0.00000
     14       1.6798      0.00000

 k-point   111 :      -0.2000    0.4667    0.0000
  band No.  band energies     occupation 
      1     -14.4995      2.00000
      2     -14.3958      2.00000
      3      -8.9703      2.00000
      4      -8.8734      2.00000
      5      -5.3515      2.00000
      6      -5.0266      2.00000
      7      -4.4272      2.00000
      8      -4.1923      2.00000
      9      -3.3575      2.00000
     10      -3.0568      2.00000
     11      -0.0117      0.00000
     12       0.3508      0.00000
     13       1.0174      0.00000
     14       1.2435      0.00000

 k-point   112 :      -0.1333    0.4667    0.0000
  band No.  band energies     occupation 
      1     -14.5446      2.00000
      2     -14.4296      2.00000
      3      -9.1050      2.00000
      4      -8.9931      2.00000
      5      -4.8326      2.00000
      6      -4.6510      2.00000
      7      -4.2356      2.00000
      8      -4.1175      2.00000
      9      -2.8330      2.00000
     10      -2.6227      2.00000
     11      -0.5430      0.00000
     12      -0.3042      0.00000
     13       0.7887      0.00000
     14       0.8938      0.00000

 k-point   113 :      -0.0667    0.4667    0.0000
  band No.  band energies     occupation 
      1     -14.5742      2.00000
      2     -14.4524      2.00000
      3      -9.1883      2.00000
      4      -9.0677      2.00000
      5      -4.5452      2.00000
      6      -4.4195      2.00000
      7      -3.9973      2.00000
      8      -3.8567      2.00000
      9      -2.4561      2.00000
     10      -2.3547      2.00000
     11      -0.7970      0.00000
     12      -0.6893      0.00000
     13       0.2937      0.00000
     14       0.5972      0.00000


--------------------------------------------------------------------------------------------------------


 soft charge-density along one line, spin component           1
         0         1         2         3         4         5         6         7         8         9
 total charge-density along one line
 
 pseudopotential strength for first ion, spin component:           1
 30.081 -23.433   0.000  -0.089   0.033   0.000  -0.141   0.052
-23.433  28.115  -0.000   0.050  -0.018  -0.000   0.082  -0.030
  0.000  -0.000   6.331   0.000  -0.000   9.794   0.000  -0.000
 -0.089   0.050   0.000   6.328   0.002   0.000   9.790   0.002
  0.033  -0.018  -0.000   0.002   6.330  -0.000   0.002   9.794
  0.000  -0.000   9.794   0.000  -0.000  15.223   0.000  -0.000
 -0.141   0.082   0.000   9.790   0.002   0.000  15.216   0.004
  0.052  -0.030  -0.000   0.002   9.794  -0.000   0.004  15.222
 -0.000   0.000   0.007   0.000   0.000   0.011   0.000   0.000
  0.000  -0.000  -0.020   0.000   0.000  -0.031   0.000   0.000
 -0.002   0.003  -0.000  -0.023  -0.004  -0.000  -0.035  -0.006
  0.003  -0.002   0.000   0.008  -0.020   0.000   0.012  -0.031
 -0.000   0.000  -0.000  -0.000   0.008  -0.000  -0.000   0.012
 total augmentation occupancy for first ion, spin component:           1
  2.025  -0.015  -0.000   0.237  -0.083   0.000  -0.042   0.015  -0.000   0.000   0.023   0.002   0.000
 -0.015   0.009   0.000  -0.073   0.026  -0.000   0.018  -0.006   0.000  -0.000  -0.002   0.001  -0.000
 -0.000   0.000   1.507  -0.000   0.000  -0.405   0.000  -0.000   0.117  -0.043  -0.000   0.000   0.000
  0.237  -0.073  -0.000   1.840   0.000   0.000  -0.486  -0.013  -0.000   0.000  -0.268  -0.017  -0.000
 -0.083   0.026   0.000   0.000   1.492  -0.000  -0.014  -0.396   0.000   0.000  -0.075  -0.045  -0.006
  0.000  -0.000  -0.405   0.000  -0.000   0.118  -0.000   0.000  -0.031   0.012  -0.000  -0.000  -0.000
 -0.042   0.018   0.000  -0.486  -0.014  -0.000   0.140   0.007   0.000  -0.000   0.074   0.005   0.000
  0.015  -0.006  -0.000  -0.013  -0.396   0.000   0.007   0.114  -0.000  -0.000   0.020   0.012   0.002
 -0.000   0.000   0.117  -0.000   0.000  -0.031   0.000  -0.000   0.077   0.000   0.000   0.000   0.000
  0.000  -0.000  -0.043   0.000   0.000   0.012  -0.000  -0.000   0.000   0.021  -0.000   0.000   0.000
  0.023  -0.002  -0.000  -0.268  -0.075  -0.000   0.074   0.020   0.000  -0.000   0.078   0.006   0.002
  0.002   0.001   0.000  -0.017  -0.045  -0.000   0.005   0.012   0.000   0.000   0.006   0.022   0.001
  0.000  -0.000   0.000  -0.000  -0.006  -0.000   0.000   0.002   0.000   0.000   0.002   0.001   0.017


------------------------ aborting loop because EDIFF is reached ----------------------------------------


    CHARGE:  cpu time    0.1776: real time    0.1780
    FORLOC:  cpu time    0.0017: real time    0.0017
    FORNL :  cpu time    0.3216: real time    0.3221
    STRESS:  cpu time    0.7923: real time    0.7944
    FORCOR:  cpu time    0.0449: real time    0.0450
    FORHAR:  cpu time    0.0119: real time    0.0120
    MIXING:  cpu time    0.0012: real time    0.0012
    OFIELD:  cpu time    0.0000: real time    0.0000

  FORCE on cell =-STRESS in cart. coord.  units (eV):
  Direction    XX          YY          ZZ          XY          YZ          ZX
  --------------------------------------------------------------------------------------
  Alpha Z     9.52804     9.52804     9.52804
  Ewald    1610.49098  1614.51697 -2068.75072    -0.00000    -0.00000    -0.00017
  Hartree  1731.11318  1732.58133 -1684.53851    -0.00000     0.00000    -0.00003
  E(xc)     -77.67139   -77.68280   -78.89995     0.00000     0.00000     0.00000
  Local   -3594.34139 -3599.31879  3498.44769     0.00000    -0.00000     0.00017
  n-local   162.53450   162.70339   167.23294    -0.00000    -0.00000    -0.00001
  augment   -31.87589   -31.82311   -32.80386     0.00000     0.00000    -0.00000
  Kinetic   190.27857   189.54677   189.78494    -0.00000     0.00000     0.00003
  Fock        0.00000     0.00000     0.00000     0.00000     0.00000     0.00000
  -------------------------------------------------------------------------------------
  Total       0.05660     0.05179     0.00058     0.00000     0.00000    -0.00001
  in kB       0.24164     0.22111     0.00247     0.00000     0.00000    -0.00003
  external pressure =        0.16 kB  Pullay stress =        0.00 kB


 VOLUME and BASIS-vectors are now :
 -----------------------------------------------------------------------------
  energy-cutoff  :      600.00
  volume of cell :      375.28
      direct lattice vectors                 reciprocal lattice vectors
     4.371400873  0.000000000  0.000000000     0.228759619  0.000000000  0.000000000
     0.000000000  4.292477857  0.000000000     0.000000000  0.232965675  0.000000000
     0.000000000  0.000000000 20.000000000     0.000000000  0.000000000  0.050000000

  length of vectors
     4.371400873  4.292477857 20.000000000     0.228759619  0.232965675  0.050000000


 FORCES acting on ions
    electron-ion (+dipol)            ewald-force                    non-local-force                 convergence-correction
 -----------------------------------------------------------------------------------------------
   0.399E+01 0.929E-07 -.144E+03   -.541E+01 -.129E-06 0.148E+03   0.142E+01 0.337E-07 -.380E+01   0.493E-04 0.314E-08 -.570E-03
   0.399E+01 -.148E-06 0.144E+03   -.541E+01 0.171E-06 -.148E+03   0.142E+01 -.167E-07 0.380E+01   0.509E-04 -.238E-08 0.737E-03
   -.499E+01 -.994E-07 -.207E+03   0.541E+01 0.121E-06 0.209E+03   -.422E+00 -.807E-08 -.204E+01   -.493E-03 -.115E-07 -.116E-02
   -.499E+01 0.141E-06 0.207E+03   0.541E+01 -.163E-06 -.209E+03   -.422E+00 0.159E-08 0.204E+01   -.468E-03 0.797E-08 0.149E-02
 -----------------------------------------------------------------------------------------------
   -.199E+01 -.137E-07 -.562E-03   -.178E-14 -.618E-15 0.000E+00   0.199E+01 0.106E-07 0.910E-04   -.861E-03 -.279E-08 0.497E-03
 
 
 POSITION                                       TOTAL-FORCE (eV/Angst)
 -----------------------------------------------------------------------------------
      2.53515      3.21936     11.37433         0.000409      0.000000      0.000140
      0.34945      1.07312      8.62568         0.000411      0.000000     -0.000209
      0.14934      1.07312     11.34272        -0.000405      0.000000      0.000281
      2.33504      3.21936      8.65727        -0.000415     -0.000000     -0.000211
 -----------------------------------------------------------------------------------
    total drift:                               -0.000227     -0.000000      0.000026


--------------------------------------------------------------------------------------------------------



  FREE ENERGIE OF THE ION-ELECTRON SYSTEM (eV)
  ---------------------------------------------------
  free  energy   TOTEN  =       -16.26432677 eV

  energy  without entropy=      -16.26432677  energy(sigma->0) =      -16.26432677
 
 d Force = 0.3711510E-06[-0.178E-06, 0.920E-06]  d Energy = 0.5762987E-06-0.205E-06
 d Force =-0.7214123E-01[-0.721E-01,-0.722E-01]  d Ewald  =-0.7214123E-01 0.175E-09


--------------------------------------------------------------------------------------------------------


    POTLOK:  cpu time    0.0508: real time    0.0510


--------------------------------------------------------------------------------------------------------


 Conjugate gradient step on ions:
 trial-energy change:   -0.000001  1 .order   -0.000000   -0.000001    0.000000
  (g-gl).g = 0.426E-06      g.g   = 0.367E-06  gl.gl    = 0.395E-06
 g(Force)  = 0.367E-06   g(Stress)= 0.000E+00 ortho     =-0.532E-07
 gamma     =   1.07790
 trial     =   2.97716
 opt step  =   2.49431  (harmonic =   2.49431) maximal distance =0.00033250
 next E    =   -16.264327   (d E  =  -0.00000)


--------------------------------------------------------------------------------------------------------


  
 reached required accuracy - stopping structural energy minimisation
 writing wavefunctions
     LOOP+:  cpu time    8.1453: real time    8.7109
    4ORBIT:  cpu time    0.0000: real time    0.0000

 total amount of memory used by VASP MPI-rank0    63416. kBytes
=======================================================================

   base      :      30000. kBytes
   nonl-proj :      12561. kBytes
   fftplans  :       2678. kBytes
   grid      :       4349. kBytes
   one-center:          8. kBytes
   wavefun   :      13820. kBytes
 
  
  
 General timing and accounting informations for this job:
 ========================================================
  
                  Total CPU time used (sec):      200.335
                            User time (sec):      198.111
                          System time (sec):        2.224
                         Elapsed time (sec):      212.884
  
                   Maximum memory used (kb):      211036.
                   Average memory used (kb):           0.
  
                          Minor page faults:      1239739
                          Major page faults:          139
                 Voluntary context switches:        12880
