# LAMMPS data file written by OVITO Pro 3.9.1

5600 atoms
5500 bonds
10800 angles
15300 dihedrals
7200 impropers
3 atom types
4 bond types
7 angle types
7 dihedral types
6 improper types

8.5831585804 51.4168414196 xlo xhi
15.1025846637 64.8974153363 ylo yhi
0.1588453454 39.8411546546 zlo zhi

Masses

1 12.0112  # C
2 12.0112  # C
3 1.00797  # H

Atoms  # full

1 0 1 -0.159 10.7613 19.0228 23.6042 0 0 0
2 0 2 -0.106 11.5643 18.5927 22.4159 0 0 0
3 0 2 -0.106 10.864 19.0742 21.0948 0 0 0
4 0 2 -0.106 11.5677 18.6866 19.8449 0 0 0
5 0 2 -0.106 10.6815 19.0724 18.6938 0 0 0
6 0 2 -0.106 11.2618 18.7792 17.3492 0 0 0
7 0 2 -0.106 10.4499 19.3847 16.2123 0 0 0
8 0 2 -0.106 10.9869 18.8905 14.872 0 0 0
9 0 2 -0.106 10.1991 19.5685 13.7498 0 0 0
10 0 2 -0.106 10.9168 19.1194 12.4704 0 0 0
11 0 2 -0.106 10.075 19.3772 11.2247 0 0 0
12 0 2 -0.106 10.4062 18.4658 10.0156 0 0 0
13 0 2 -0.106 10.1671 19.1315 8.67019 0 0 0
14 0 2 -0.106 10.2028 18.2903 7.46904 0 0 0
15 0 2 -0.106 10.0841 19.1962 6.20464 0 0 0
16 0 2 -0.106 9.58804 18.5021 4.91463 0 0 0
17 0 2 -0.106 9.79723 19.1318 3.51606 0 0 0
18 0 1 -0.159 8.80171 18.7385 2.51588 0 0 0
19 0 3 0.053 10.4225 20.0893 23.5421 0 0 0
20 0 3 0.053 11.3658 19.0371 24.5171 0 0 0
21 0 3 0.053 9.89748 18.352 23.8934 0 0 0
22 0 3 0.053 11.8309 17.561 22.4557 0 0 0
23 0 3 0.053 12.6275 19.0754 22.4605 0 0 0
24 0 3 0.053 10.8913 20.2169 21.1082 0 0 0
25 0 3 0.053 9.82223 18.8051 21.1309 0 0 0
26 0 3 0.053 11.7112 17.6025 19.8318 0 0 0
27 0 3 0.053 12.5522 19.1335 19.8475 0 0 0
28 0 3 0.053 10.5817 20.1991 18.8834 0 0 0
29 0 3 0.053 9.72439 18.5949 18.7133 0 0 0
30 0 3 0.053 11.3182 17.6988 17.3394 0 0 0
31 0 3 0.053 12.2786 19.1614 17.2786 0 0 0
32 0 3 0.053 10.5527 20.4793 16.2495 0 0 0
33 0 3 0.053 9.41724 19.0626 16.2097 0 0 0
34 0 3 0.053 10.9433 17.8199 14.9417 0 0 0
35 0 3 0.053 12.0974 19.1583 14.7738 0 0 0
36 0 3 0.053 10.1252 20.7365 13.8204 0 0 0
37 0 3 0.053 9.1263 19.2195 13.7359 0 0 0
38 0 3 0.053 11.0494 18.0148 12.5931 0 0 0
39 0 3 0.053 11.9505 19.5845 12.4772 0 0 0
40 0 3 0.053 10.1389 20.3772 10.9486 0 0 0
41 0 3 0.053 9.00451 19.1236 11.5027 0 0 0
42 0 3 0.053 9.86753 17.4829 10.1292 0 0 0
43 0 3 0.053 11.437 18.146 9.99966 0 0 0
44 0 3 0.053 10.8875 19.9635 8.37162 0 0 0
45 0 3 0.053 9.15569 19.6132 8.63118 0 0 0
46 0 3 0.053 9.45419 17.5377 7.32296 0 0 0
47 0 3 0.053 11.1612 17.6834 7.48009 0 0 0
48 0 3 0.053 11.0317 19.6175 5.99075 0 0 0
49 0 3 0.053 9.51024 20.1508 6.48775 0 0 0
50 0 3 0.053 8.52277 18.2767 5.0227 0 0 0
51 0 3 0.053 10.1665 17.5173 4.85748 0 0 0
52 0 3 0.053 10.7831 18.8924 3.20615 0 0 0
53 0 3 0.053 9.7655 20.2291 3.61763 0 0 0
54 0 3 0.053 9.12059 19.1375 1.54623 0 0 0
55 0 3 0.053 7.86343 19.3342 2.65265 0 0 0
56 0 3 0.053 8.54521 17.6715 2.52567 0 0 0
57 0 1 -0.159 14.8135 16.4287 23.2247 0 0 0
58 0 2 -0.106 15.0824 17.0632 21.7984 0 0 0
59 0 2 -0.106 14.5222 16.3125 20.5285 0 0 0
60 0 2 -0.106 14.9784 16.8955 19.2097 0 0 0
61 0 2 -0.106 14.2696 16.3325 17.9558 0 0 0
62 0 2 -0.106 15.0394 16.5601 16.6396 0 0 0
63 0 2 -0.106 14.1994 16.3629 15.3995 0 0 0
64 0 2 -0.106 14.9921 16.4369 14.1038 0 0 0
65 0 2 -0.106 14.1964 16.357 12.7929 0 0 0
66 0 2 -0.106 15.1957 16.5335 11.6622 0 0 0
67 0 2 -0.106 14.5623 16.4174 10.2605 0 0 0
68 0 2 -0.106 15.5547 16.5044 9.05972 0 0 0
69 0 2 -0.106 14.8353 17.0395 7.84506 0 0 0
70 0 2 -0.106 15.5129 16.5662 6.58672 0 0 0
71 0 2 -0.106 14.8809 17.1602 5.38354 0 0 0
72 0 2 -0.106 15.7045 16.6908 4.21786 0 0 0
73 0 2 -0.106 15.3261 17.316 2.94402 0 0 0
74 0 1 -0.159 13.7972 17.162 2.51588 0 0 0
75 0 3 0.053 13.7094 16.3105 23.3456 0 0 0
76 0 3 0.053 14.9747 17.1052 24.0271 0 0 0
77 0 3 0.053 15.4144 15.5224 23.525 0 0 0
78 0 3 0.053 16.1165 17.283 21.6751 0 0 0
79 0 3 0.053 14.7482 18.0801 21.7898 0 0 0
80 0 3 0.053 13.4495 16.27 20.4699 0 0 0
81 0 3 0.053 15.0141 15.3571 20.5566 0 0 0
82 0 3 0.053 16.0881 16.5793 19.1528 0 0 0
83 0 3 0.053 14.9475 18.0135 19.1027 0 0 0
84 0 3 0.053 13.3432 16.8719 17.8817 0 0 0
85 0 3 0.053 14.0545 15.3006 18.1263 0 0 0
86 0 3 0.053 15.8952 15.9087 16.5894 0 0 0
87 0 3 0.053 15.2858 17.5812 16.7396 0 0 0
88 0 3 0.053 13.4038 17.1614 15.4817 0 0 0
89 0 3 0.053 13.6792 15.352 15.5644 0 0 0
90 0 3 0.053 15.6334 15.525 14.1087 0 0 0
91 0 3 0.053 15.547 17.4264 14.1229 0 0 0
92 0 3 0.053 13.47 17.1644 12.7729 0 0 0
93 0 3 0.053 13.7761 15.4045 12.7517 0 0 0
94 0 3 0.053 16.0326 15.8583 11.9068 0 0 0
95 0 3 0.053 15.6621 17.5351 11.7136 0 0 0
96 0 3 0.053 13.8469 17.2845 10.2054 0 0 0
97 0 3 0.053 13.9139 15.5566 10.1698 0 0 0
98 0 3 0.053 16.2234 15.6456 8.90527 0 0 0
99 0 3 0.053 16.3841 17.211 9.39818 0 0 0
100 0 3 0.053 14.8605 18.1791 7.80993 0 0 0
101 0 3 0.053 13.7566 16.7159 7.97119 0 0 0
102 0 3 0.053 15.5535 15.5067 6.62578 0 0 0
103 0 3 0.053 16.5694 16.8937 6.61311 0 0 0
104 0 3 0.053 14.862 18.2678 5.42533 0 0 0
105 0 3 0.053 13.8459 16.7983 5.34109 0 0 0
106 0 3 0.053 15.6511 15.5552 4.23147 0 0 0
107 0 3 0.053 16.8276 16.8228 4.42139 0 0 0
108 0 3 0.053 15.9929 16.9432 2.20964 0 0 0
109 0 3 0.053 15.4924 18.3848 2.94322 0 0 0
110 0 3 0.053 13.2001 18.0373 2.86202 0 0 0
111 0 3 0.053 13.388 16.2943 2.92714 0 0 0
112 0 3 0.053 13.6702 16.9635 1.45752 0 0 0
113 0 1 -0.159 18.2311 12.9363 24.0941 0 0 0
114 0 2 -0.106 18.6393 12.7345 22.6081 0 0 0
115 0 2 -0.106 18.2904 13.7512 21.5219 0 0 0
116 0 2 -0.106 19.2369 13.4498 20.3253 0 0 0
117 0 2 -0.106 18.8049 14.3474 19.0996 0 0 0
118 0 2 -0.106 19.2268 13.7381 17.7528 0 0 0
119 0 2 -0.106 19.013 14.5041 16.4545 0 0 0
120 0 2 -0.106 19.2943 13.6177 15.23 0 0 0
121 0 2 -0.106 19.1279 14.339 13.8951 0 0 0
122 0 2 -0.106 19.2494 13.5342 12.5775 0 0 0
123 0 2 -0.106 19.2967 14.379 11.3524 0 0 0
124 0 2 -0.106 19.0664 13.6797 10.0745 0 0 0
125 0 2 -0.106 19.3715 14.6078 8.82444 0 0 0
126 0 2 -0.106 19.1437 13.8238 7.54004 0 0 0
127 0 2 -0.106 19.6117 14.6106 6.30192 0 0 0
128 0 2 -0.106 19.4465 13.8714 4.98879 0 0 0
129 0 2 -0.106 19.71 14.7866 3.7909 0 0 0
130 0 1 -0.159 20.1908 14.0337 2.51588 0 0 0
131 0 3 0.053 17.1457 13.0728 24.1611 0 0 0
132 0 3 0.053 18.674 13.7703 24.5986 0 0 0
133 0 3 0.053 18.3751 12.0335 24.6859 0 0 0
134 0 3 0.053 18.3553 11.7099 22.2387 0 0 0
135 0 3 0.053 19.7362 12.6672 22.6177 0 0 0
136 0 3 0.053 18.4155 14.7337 21.8686 0 0 0
137 0 3 0.053 17.2541 13.6989 21.2268 0 0 0
138 0 3 0.053 19.116 12.4369 19.9595 0 0 0
139 0 3 0.053 20.2502 13.595 20.632 0 0 0
140 0 3 0.053 19.1792 15.4044 19.1893 0 0 0
141 0 3 0.053 17.7064 14.3035 19.1496 0 0 0
142 0 3 0.053 18.6297 12.762 17.7267 0 0 0
143 0 3 0.053 20.3512 13.495 17.8218 0 0 0
144 0 3 0.053 19.6007 15.3988 16.5414 0 0 0
145 0 3 0.053 17.9225 14.8218 16.4175 0 0 0
146 0 3 0.053 18.4117 12.9059 15.1997 0 0 0
147 0 3 0.053 20.2671 12.9986 15.3446 0 0 0
148 0 3 0.053 19.8366 15.2182 13.8671 0 0 0
149 0 3 0.053 18.0367 14.842 13.9282 0 0 0
150 0 3 0.053 18.3449 12.8065 12.6048 0 0 0
151 0 3 0.053 20.1508 12.9263 12.708 0 0 0
152 0 3 0.053 20.2457 14.9509 11.2979 0 0 0
153 0 3 0.053 18.5198 15.1583 11.4414 0 0 0
154 0 3 0.053 17.9965 13.3246 10.0356 0 0 0
155 0 3 0.053 19.7409 12.7659 9.99914 0 0 0
156 0 3 0.053 20.3996 15.025 8.81601 0 0 0
157 0 3 0.053 18.6735 15.445 8.88107 0 0 0
158 0 3 0.053 17.9973 13.6129 7.46602 0 0 0
159 0 3 0.053 19.7933 12.8347 7.63621 0 0 0
160 0 3 0.053 20.666 14.9046 6.41172 0 0 0
161 0 3 0.053 19.0022 15.5395 6.21809 0 0 0
162 0 3 0.053 18.4248 13.4472 4.8701 0 0 0
163 0 3 0.053 20.1066 13.0032 4.93414 0 0 0
164 0 3 0.053 20.5314 15.3768 4.16862 0 0 0
165 0 3 0.053 18.8572 15.3765 3.49582 0 0 0
166 0 3 0.053 20.9723 13.3323 2.81881 0 0 0
167 0 3 0.053 20.5749 14.7927 1.86312 0 0 0
168 0 3 0.053 19.3336 13.5796 2.03346 0 0 0
169 0 1 -0.159 23.6524 16.1758 23.9194 0 0 0
170 0 2 -0.106 23.8455 17.0607 22.6995 0 0 0
171 0 2 -0.106 23.3796 16.2778 21.3872 0 0 0
172 0 2 -0.106 23.4201 17.0596 20.1149 0 0 0
173 0 2 -0.106 23.162 16.1351 18.9051 0 0 0
174 0 2 -0.106 23.533 16.8353 17.5858 0 0 0
175 0 2 -0.106 23.2734 15.9326 16.4163 0 0 0
176 0 2 -0.106 23.59 16.6801 15.1034 0 0 0
177 0 2 -0.106 23.5071 15.6976 13.9315 0 0 0
178 0 2 -0.106 23.4343 16.4625 12.6367 0 0 0
179 0 2 -0.106 23.4754 15.5331 11.3566 0 0 0
180 0 2 -0.106 23.6861 16.2165 9.98368 0 0 0
181 0 2 -0.106 23.7463 15.3028 8.7522 0 0 0
182 0 2 -0.106 23.4035 16.1826 7.56037 0 0 0
183 0 2 -0.106 23.7396 15.4562 6.21444 0 0 0
184 0 2 -0.106 23.4878 16.326 4.96006 0 0 0
185 0 2 -0.106 24.1728 15.5848 3.77648 0 0 0
186 0 1 -0.159 24.0838 16.4176 2.51588 0 0 0
187 0 3 0.053 24.1168 16.4645 24.9029 0 0 0
188 0 3 0.053 24.016 15.1625 23.6927 0 0 0
189 0 3 0.053 22.5684 16.0567 24.1496 0 0 0
190 0 3 0.053 24.8872 17.4337 22.6039 0 0 0
191 0 3 0.053 23.2705 18.0283 22.7841 0 0 0
192 0 3 0.053 22.2927 16.1195 21.5133 0 0 0
193 0 3 0.053 23.875 15.367 21.2114 0 0 0
194 0 3 0.053 24.4276 17.5254 19.8586 0 0 0
195 0 3 0.053 22.6688 17.8286 20.1479 0 0 0
196 0 3 0.053 22.1014 15.8131 18.7571 0 0 0
197 0 3 0.053 23.6973 15.1862 18.9827 0 0 0
198 0 3 0.053 24.5253 17.2677 17.4852 0 0 0
199 0 3 0.053 22.9007 17.618 17.2963 0 0 0
200 0 3 0.053 22.181 15.6405 16.5458 0 0 0
201 0 3 0.053 23.9957 15.0627 16.6101 0 0 0
202 0 3 0.053 24.4605 17.2592 15.0671 0 0 0
203 0 3 0.053 22.7616 17.3846 14.9539 0 0 0
204 0 3 0.053 22.5597 15.1092 14.037 0 0 0
205 0 3 0.053 24.4237 15.041 14.0197 0 0 0
206 0 3 0.053 24.2929 17.1069 12.5843 0 0 0
207 0 3 0.053 22.618 17.2483 12.5897 0 0 0
208 0 3 0.053 22.6073 14.8042 11.3704 0 0 0
209 0 3 0.053 24.3657 15.0001 11.5451 0 0 0
210 0 3 0.053 24.5711 16.7603 9.98051 0 0 0
211 0 3 0.053 22.9302 17.045 9.87811 0 0 0
212 0 3 0.053 23.0258 14.4899 8.88448 0 0 0
213 0 3 0.053 24.6959 14.7921 8.6175 0 0 0
214 0 3 0.053 24.0538 17.1217 7.47927 0 0 0
215 0 3 0.053 22.3864 16.5357 7.57524 0 0 0
216 0 3 0.053 23.1449 14.5774 6.09754 0 0 0
217 0 3 0.053 24.8465 15.1518 6.24879 0 0 0
218 0 3 0.053 23.9161 17.3296 5.0943 0 0 0
219 0 3 0.053 22.421 16.3474 4.80216 0 0 0
220 0 3 0.053 23.6344 14.6451 3.66414 0 0 0
221 0 3 0.053 25.2242 15.3773 4.01422 0 0 0
222 0 3 0.053 24.7283 17.28 2.44569 0 0 0
223 0 3 0.053 23.0887 16.8442 2.49535 0 0 0
224 0 3 0.053 24.0879 15.896 1.54699 0 0 0
225 0 1 -0.159 28.1135 18.1328 23.9389 0 0 0
226 0 2 -0.106 28.1879 18.9484 22.6245 0 0 0
227 0 2 -0.106 27.4671 18.5447 21.3994 0 0 0
228 0 2 -0.106 28.0738 18.8257 20.0821 0 0 0
229 0 2 -0.106 27.2584 18.3589 18.8931 0 0 0
230 0 2 -0.106 27.9637 18.8521 17.6068 0 0 0
231 0 2 -0.106 27.3248 18.379 16.2967 0 0 0
232 0 2 -0.106 28.0238 18.7656 15.0134 0 0 0
233 0 2 -0.106 27.2527 18.244 13.7753 0 0 0
234 0 2 -0.106 27.8943 18.8347 12.5054 0 0 0
235 0 2 -0.106 27.1953 18.3279 11.2396 0 0 0
236 0 2 -0.106 27.8098 18.9495 10.0254 0 0 0
237 0 2 -0.106 27.0506 18.496 8.74404 0 0 0
238 0 2 -0.106 27.8035 18.7723 7.51251 0 0 0
239 0 2 -0.106 27.1956 18.0938 6.31619 0 0 0
240 0 2 -0.106 27.6735 18.8155 5.02465 0 0 0
241 0 2 -0.106 26.9487 18.0164 3.95085 0 0 0
242 0 1 -0.159 27.1564 18.4857 2.51588 0 0 0
243 0 3 0.053 28.7347 18.4935 24.8029 0 0 0
244 0 3 0.053 28.5337 17.1191 23.7892 0 0 0
245 0 3 0.053 27.0934 17.9888 24.2155 0 0 0
246 0 3 0.053 29.2311 18.9448 22.3665 0 0 0
247 0 3 0.053 28.0203 20.0354 22.909 0 0 0
248 0 3 0.053 26.4035 18.8762 21.4522 0 0 0
249 0 3 0.053 27.4011 17.435 21.4909 0 0 0
250 0 3 0.053 29.0093 18.3737 19.8434 0 0 0
251 0 3 0.053 28.1674 19.8881 19.8478 0 0 0
252 0 3 0.053 26.1965 18.749 18.9715 0 0 0
253 0 3 0.053 27.109 17.2593 18.8664 0 0 0
254 0 3 0.053 28.9927 18.6293 17.5703 0 0 0
255 0 3 0.053 27.8846 19.9783 17.6255 0 0 0
256 0 3 0.053 26.2641 18.7212 16.3037 0 0 0
257 0 3 0.053 27.2566 17.3004 16.3116 0 0 0
258 0 3 0.053 28.9769 18.1886 15.0028 0 0 0
259 0 3 0.053 28.2673 19.8245 14.8561 0 0 0
260 0 3 0.053 26.1614 18.5332 13.6622 0 0 0
261 0 3 0.053 27.3336 17.0789 13.8328 0 0 0
262 0 3 0.053 28.934 18.4253 12.5722 0 0 0
263 0 3 0.053 27.7717 19.8546 12.6138 0 0 0
264 0 3 0.053 26.1688 18.6084 11.3024 0 0 0
265 0 3 0.053 27.1876 17.2172 11.171 0 0 0
266 0 3 0.053 28.856 18.7232 9.929 0 0 0
267 0 3 0.053 27.6993 20.0561 10.069 0 0 0
268 0 3 0.053 26.0354 18.8936 8.72221 0 0 0
269 0 3 0.053 26.9313 17.3835 8.84991 0 0 0
270 0 3 0.053 28.8735 18.3639 7.58564 0 0 0
271 0 3 0.053 28.0028 19.8548 7.27828 0 0 0
272 0 3 0.053 26.1502 18.0327 6.47828 0 0 0
273 0 3 0.053 27.5537 17.0367 6.30287 0 0 0
274 0 3 0.053 28.7596 18.7291 4.92171 0 0 0
275 0 3 0.053 27.3472 19.8411 4.90516 0 0 0
276 0 3 0.053 25.8506 18.1599 4.11518 0 0 0
277 0 3 0.053 27.234 16.9612 4.15358 0 0 0
278 0 3 0.053 27.1155 17.6474 1.75432 0 0 0
279 0 3 0.053 28.2077 18.92 2.32517 0 0 0
280 0 3 0.053 26.3565 19.2012 2.2623 0 0 0
281 0 1 -0.159 32.1864 16.9824 24.1557 0 0 0
282 0 2 -0.106 32.0976 16.1818 22.8243 0 0 0
283 0 2 -0.106 31.6821 17.0516 21.6523 0 0 0
284 0 2 -0.106 31.9199 16.2902 20.3573 0 0 0
285 0 2 -0.106 31.5099 17.1085 19.0537 0 0 0
286 0 2 -0.106 31.9861 16.3405 17.8763 0 0 0
287 0 2 -0.106 31.4836 16.9076 16.4546 0 0 0
288 0 2 -0.106 32.291 16.4944 15.255 0 0 0
289 0 2 -0.106 31.5167 17.0278 14.117 0 0 0
290 0 2 -0.106 32.2276 16.6336 12.7799 0 0 0
291 0 2 -0.106 31.4245 16.9473 11.5128 0 0 0
292 0 2 -0.106 31.9861 16.2594 10.2921 0 0 0
293 0 2 -0.106 31.3692 16.8417 9.0097 0 0 0
294 0 2 -0.106 31.9622 16.313 7.63052 0 0 0
295 0 2 -0.106 31.3916 16.9013 6.35905 0 0 0
296 0 2 -0.106 32.0456 16.3635 5.09383 0 0 0
297 0 2 -0.106 31.3885 16.8973 3.8055 0 0 0
298 0 1 -0.159 32.1417 16.358 2.51588 0 0 0
299 0 3 0.053 33.0997 17.5754 24.1706 0 0 0
300 0 3 0.053 32.1918 16.2743 24.9655 0 0 0
301 0 3 0.053 31.2712 17.6154 24.1852 0 0 0
302 0 3 0.053 31.4414 15.2514 22.7662 0 0 0
303 0 3 0.053 33.1739 15.8404 22.8084 0 0 0
304 0 3 0.053 32.2107 18.0465 21.8291 0 0 0
305 0 3 0.053 30.6039 17.1914 21.7687 0 0 0
306 0 3 0.053 31.3829 15.3011 20.4507 0 0 0
307 0 3 0.053 32.9951 16.0134 20.3522 0 0 0
308 0 3 0.053 31.8703 18.0704 19.1308 0 0 0
309 0 3 0.053 30.4376 17.2261 18.9986 0 0 0
310 0 3 0.053 31.7247 15.3238 17.8995 0 0 0
311 0 3 0.053 33.1059 16.3702 17.9156 0 0 0
312 0 3 0.053 31.4067 17.9939 16.5395 0 0 0
313 0 3 0.053 30.4791 16.548 16.2133 0 0 0
314 0 3 0.053 32.3949 15.3871 15.208 0 0 0
315 0 3 0.053 33.341 16.8274 15.3494 0 0 0
316 0 3 0.053 31.4023 18.1273 14.1873 0 0 0
317 0 3 0.053 30.4654 16.5197 14.1132 0 0 0
318 0 3 0.053 32.4469 15.5344 12.7616 0 0 0
319 0 3 0.053 33.1804 17.1641 12.6446 0 0 0
320 0 3 0.053 31.2683 17.9809 11.3299 0 0 0
321 0 3 0.053 30.4437 16.4486 11.6347 0 0 0
322 0 3 0.053 31.7977 15.1273 10.3344 0 0 0
323 0 3 0.053 33.0823 16.4303 10.214 0 0 0
324 0 3 0.053 31.6091 17.9076 9.1397 0 0 0
325 0 3 0.053 30.2337 16.6673 9.15622 0 0 0
326 0 3 0.053 31.9567 15.2464 7.68716 0 0 0
327 0 3 0.053 33.0507 16.6338 7.7457 0 0 0
328 0 3 0.053 31.6147 17.9564 6.43048 0 0 0
329 0 3 0.053 30.3223 16.8121 6.24369 0 0 0
330 0 3 0.053 31.9999 15.2802 5.03725 0 0 0
331 0 3 0.053 33.0815 16.624 5.05452 0 0 0
332 0 3 0.053 31.3314 18.034 3.75085 0 0 0
333 0 3 0.053 30.3533 16.4761 3.84468 0 0 0
334 0 3 0.053 33.2122 16.6298 2.62295 0 0 0
335 0 3 0.053 31.7272 16.8639 1.53738 0 0 0
336 0 3 0.053 32.035 15.2252 2.31668 0 0 0
337 0 1 -0.159 36.0408 20.2033 22.7302 0 0 0
338 0 2 -0.106 36.3502 19.1757 21.6943 0 0 0
339 0 2 -0.106 35.6412 19.4994 20.2862 0 0 0
340 0 2 -0.106 35.9617 18.5244 19.1539 0 0 0
341 0 2 -0.106 35.4985 19.0693 17.7919 0 0 0
342 0 2 -0.106 35.8744 18.2617 16.5549 0 0 0
343 0 2 -0.106 35.5916 19.0891 15.2759 0 0 0
344 0 2 -0.106 36.1212 18.5572 14.0193 0 0 0
345 0 2 -0.106 35.5727 19.2289 12.7467 0 0 0
346 0 2 -0.106 36.2704 18.9239 11.4205 0 0 0
347 0 2 -0.106 35.3858 19.0531 10.2562 0 0 0
348 0 2 -0.106 36.0378 18.8335 8.91272 0 0 0
349 0 2 -0.106 35.3339 19.2109 7.61712 0 0 0
350 0 2 -0.106 36.3776 19.0388 6.48597 0 0 0
351 0 2 -0.106 36.0897 19.2026 4.9819 0 0 0
352 0 2 -0.106 35.9696 20.7123 4.60068 0 0 0
353 0 2 -0.106 35.7604 20.8807 3.09568 0 0 0
354 0 1 -0.159 34.6725 19.9733 2.51588 0 0 0
355 0 3 0.053 35.0437 20.1252 23.2174 0 0 0
356 0 3 0.053 36.1214 21.2179 22.2234 0 0 0
357 0 3 0.053 36.8153 20.1983 23.4618 0 0 0
358 0 3 0.053 36.277 18.1325 21.9911 0 0 0
359 0 3 0.053 37.4881 19.1803 21.5742 0 0 0
360 0 3 0.053 35.8911 20.5851 20.1141 0 0 0
361 0 3 0.053 34.5469 19.4018 20.4307 0 0 0
362 0 3 0.053 35.5096 17.5197 19.2534 0 0 0
363 0 3 0.053 37.0002 18.3898 19.0259 0 0 0
364 0 3 0.053 36.0357 19.9952 17.6935 0 0 0
365 0 3 0.053 34.4308 19.2154 17.7253 0 0 0
366 0 3 0.053 35.5139 17.22 16.548 0 0 0
367 0 3 0.053 36.9602 18.287 16.6051 0 0 0
368 0 3 0.053 36.093 20.0634 15.5541 0 0 0
369 0 3 0.053 34.5123 19.2153 15.2396 0 0 0
370 0 3 0.053 35.7565 17.5345 13.8898 0 0 0
371 0 3 0.053 37.2038 18.4899 14.04 0 0 0
372 0 3 0.053 35.4909 20.3108 12.8703 0 0 0
373 0 3 0.053 34.5691 18.8918 12.6129 0 0 0
374 0 3 0.053 36.6622 17.8682 11.5817 0 0 0
375 0 3 0.053 37.1533 19.5895 11.3594 0 0 0
376 0 3 0.053 34.9126 20.0276 10.1575 0 0 0
377 0 3 0.053 34.5781 18.2862 10.3306 0 0 0
378 0 3 0.053 36.1792 17.7331 8.95622 0 0 0
379 0 3 0.053 37.086 19.2725 8.83131 0 0 0
380 0 3 0.053 35.0781 20.325 7.70678 0 0 0
381 0 3 0.053 34.398 18.6292 7.3631 0 0 0
382 0 3 0.053 36.9462 18.178 6.64561 0 0 0
383 0 3 0.053 37.0745 19.8947 6.64018 0 0 0
384 0 3 0.053 35.1452 18.6566 4.74503 0 0 0
385 0 3 0.053 36.914 18.6191 4.53603 0 0 0
386 0 3 0.053 36.9163 21.155 4.79162 0 0 0
387 0 3 0.053 35.3871 21.1595 5.36796 0 0 0
388 0 3 0.053 36.7142 20.703 2.50844 0 0 0
389 0 3 0.053 35.4522 21.9033 2.88581 0 0 0
390 0 3 0.053 34.994 18.9101 2.42583 0 0 0
391 0 3 0.053 34.3274 20.3191 1.54745 0 0 0
392 0 3 0.053 33.8009 19.8757 3.19721 0 0 0
393 0 1 -0.159 42.5612 15.3963 22.3615 0 0 0
394 0 2 -0.106 41.3481 16.2313 21.8904 0 0 0
395 0 2 -0.106 41.6865 17.071 20.634 0 0 0
396 0 2 -0.106 40.707 16.8493 19.4831 0 0 0
397 0 2 -0.106 41.3683 17.0806 18.0782 0 0 0
398 0 2 -0.106 40.5507 16.4553 16.9501 0 0 0
399 0 2 -0.106 40.8054 17.097 15.6024 0 0 0
400 0 2 -0.106 40.1422 16.3537 14.4414 0 0 0
401 0 2 -0.106 40.5124 16.916 13.0385 0 0 0
402 0 2 -0.106 39.9291 16.1639 11.8052 0 0 0
403 0 2 -0.106 40.1599 16.7777 10.4241 0 0 0
404 0 2 -0.106 39.333 16.2182 9.27554 0 0 0
405 0 2 -0.106 39.9519 16.6889 7.89569 0 0 0
406 0 2 -0.106 39.4879 16.0099 6.62532 0 0 0
407 0 2 -0.106 40.3356 16.3458 5.36752 0 0 0
408 0 2 -0.106 39.7691 15.7388 4.12655 0 0 0
409 0 2 -0.106 40.0047 16.4778 2.79206 0 0 0
410 0 1 -0.159 38.9598 17.548 2.51588 0 0 0
411 0 3 0.053 42.1886 14.6388 23.0615 0 0 0
412 0 3 0.053 43.2573 16.1602 22.8072 0 0 0
413 0 3 0.053 42.8937 14.9115 21.4367 0 0 0
414 0 3 0.053 40.9993 16.7859 22.7526 0 0 0
415 0 3 0.053 40.4802 15.586 21.6156 0 0 0
416 0 3 0.053 42.6503 16.697 20.3265 0 0 0
417 0 3 0.053 41.7908 18.1099 20.7747 0 0 0
418 0 3 0.053 39.8506 17.5531 19.832 0 0 0
419 0 3 0.053 40.1878 15.8885 19.5042 0 0 0
420 0 3 0.053 42.3886 16.6082 18.1002 0 0 0
421 0 3 0.053 41.4522 18.1524 17.7694 0 0 0
422 0 3 0.053 39.4541 16.6628 17.224 0 0 0
423 0 3 0.053 40.6817 15.3537 16.8486 0 0 0
424 0 3 0.053 41.9069 17.1349 15.4061 0 0 0
425 0 3 0.053 40.6482 18.2005 15.633 0 0 0
426 0 3 0.053 38.9821 16.5299 14.5779 0 0 0
427 0 3 0.053 40.3449 15.2567 14.2646 0 0 0
428 0 3 0.053 41.6003 17.137 12.9494 0 0 0
429 0 3 0.053 40.0886 17.9349 13.0998 0 0 0
430 0 3 0.053 38.8093 15.981 12.0289 0 0 0
431 0 3 0.053 40.4213 15.1667 11.7419 0 0 0
432 0 3 0.053 41.2247 16.7309 10.3611 0 0 0
433 0 3 0.053 39.8067 17.7931 10.5093 0 0 0
434 0 3 0.053 38.2611 16.4624 9.4293 0 0 0
435 0 3 0.053 39.3847 15.1041 9.30382 0 0 0
436 0 3 0.053 40.9972 16.3421 8.1203 0 0 0
437 0 3 0.053 39.8359 17.7961 7.7749 0 0 0
438 0 3 0.053 38.3847 16.1141 6.36554 0 0 0
439 0 3 0.053 39.6043 14.9485 6.82858 0 0 0
440 0 3 0.053 41.2899 15.8863 5.52415 0 0 0
441 0 3 0.053 40.3993 17.428 5.30669 0 0 0
442 0 3 0.053 38.6626 15.6032 4.17854 0 0 0
443 0 3 0.053 40.2435 14.7765 3.98002 0 0 0
444 0 3 0.053 39.9795 15.7381 1.97214 0 0 0
445 0 3 0.053 40.9532 16.8824 2.6558 0 0 0
446 0 3 0.053 37.9219 17.108 2.32742 0 0 0
447 0 3 0.053 39.2084 18.2292 1.69932 0 0 0
448 0 3 0.053 38.7914 18.2606 3.3494 0 0 0
449 0 1 -0.159 43.7003 19.2741 23.6104 0 0 0
450 0 2 -0.106 44.951 19.5033 22.7223 0 0 0
451 0 2 -0.106 44.3714 19.2673 21.3462 0 0 0
452 0 2 -0.106 45.3104 19.389 20.1481 0 0 0
453 0 2 -0.106 44.4786 19.3354 18.9296 0 0 0
454 0 2 -0.106 45.272 19.3127 17.6455 0 0 0
455 0 2 -0.106 44.4783 19.177 16.422 0 0 0
456 0 2 -0.106 45.2509 19.3417 15.207 0 0 0
457 0 2 -0.106 44.5225 19.2592 13.8699 0 0 0
458 0 2 -0.106 45.4996 19.5915 12.7147 0 0 0
459 0 2 -0.106 44.6775 19.3192 11.4045 0 0 0
460 0 2 -0.106 45.4738 19.3478 10.1288 0 0 0
461 0 2 -0.106 44.6161 19.061 8.86693 0 0 0
462 0 2 -0.106 45.3941 18.9909 7.60621 0 0 0
463 0 2 -0.106 44.5607 18.751 6.35284 0 0 0
464 0 2 -0.106 45.0371 18.5417 4.89315 0 0 0
465 0 2 -0.106 43.9074 18.2115 3.96664 0 0 0
466 0 1 -0.159 44.3514 18.0969 2.51588 0 0 0
467 0 3 0.053 42.9382 18.6012 23.1237 0 0 0
468 0 3 0.053 43.2161 20.2702 23.6939 0 0 0
469 0 3 0.053 43.8132 18.8943 24.6957 0 0 0
470 0 3 0.053 45.7575 18.7933 22.8136 0 0 0
471 0 3 0.053 45.2192 20.5359 22.9132 0 0 0
472 0 3 0.053 43.4798 19.9193 21.1249 0 0 0
473 0 3 0.053 44.0208 18.2482 21.2676 0 0 0
474 0 3 0.053 45.9736 18.5248 20.159 0 0 0
475 0 3 0.053 45.9101 20.2841 20.1859 0 0 0
476 0 3 0.053 43.9969 20.3159 18.8443 0 0 0
477 0 3 0.053 43.7498 18.4653 18.9999 0 0 0
478 0 3 0.053 46.1155 18.6296 17.6924 0 0 0
479 0 3 0.053 45.6635 20.3507 17.5746 0 0 0
480 0 3 0.053 43.7493 19.8965 16.5859 0 0 0
481 0 3 0.053 43.9585 18.2058 16.3468 0 0 0
482 0 3 0.053 46.0443 18.6228 15.1718 0 0 0
483 0 3 0.053 45.6697 20.3809 15.1613 0 0 0
484 0 3 0.053 43.8027 20.1154 13.902 0 0 0
485 0 3 0.053 43.9035 18.3144 13.6059 0 0 0
486 0 3 0.053 46.4455 19.0627 12.749 0 0 0
487 0 3 0.053 45.7052 20.6582 12.8207 0 0 0
488 0 3 0.053 43.8761 20.0398 11.2341 0 0 0
489 0 3 0.053 44.2101 18.3421 11.5361 0 0 0
490 0 3 0.053 46.2219 18.5767 10.2757 0 0 0
491 0 3 0.053 45.9521 20.3132 9.97459 0 0 0
492 0 3 0.053 43.8441 19.8324 8.81061 0 0 0
493 0 3 0.053 44.2247 18.0508 9.08273 0 0 0
494 0 3 0.053 46.0622 18.1419 7.57336 0 0 0
495 0 3 0.053 45.9453 19.9052 7.46276 0 0 0
496 0 3 0.053 43.876 19.566 6.25618 0 0 0
497 0 3 0.053 43.8255 17.9264 6.57286 0 0 0
498 0 3 0.053 45.8132 17.7115 4.77382 0 0 0
499 0 3 0.053 45.5461 19.4821 4.57475 0 0 0
500 0 3 0.053 43.0297 18.9422 4.07018 0 0 0
501 0 3 0.053 43.5262 17.2202 4.28199 0 0 0
502 0 3 0.053 45.2175 17.397 2.46846 0 0 0
503 0 3 0.053 44.617 19.061 2.2506 0 0 0
504 0 3 0.053 43.5319 17.7387 1.93758 0 0 0
505 0 1 -0.159 49.9058 16.0803 22.9775 0 0 0
506 0 2 -0.106 50.6666 16.6216 21.7921 0 0 0
507 0 2 -0.106 49.6713 16.6136 20.6444 0 0 0
508 0 2 -0.106 50.3295 17.0827 19.3526 0 0 0
509 0 2 -0.106 49.2583 17.1971 18.2802 0 0 0
510 0 2 -0.106 49.8736 17.0426 16.8612 0 0 0
511 0 2 -0.106 48.7216 16.9241 15.9175 0 0 0
512 0 2 -0.106 49.2653 16.734 14.5023 0 0 0
513 0 2 -0.106 48.167 16.3634 13.4569 0 0 0
514 0 2 -0.106 48.9374 16.173 12.1927 0 0 0
515 0 2 -0.106 49.2635 17.4668 11.3972 0 0 0
516 0 2 -0.106 49.7912 17.0446 9.93613 0 0 0
517 0 2 -0.106 48.682 16.5222 8.95405 0 0 0
518 0 2 -0.106 49.2862 15.9046 7.68004 0 0 0
519 0 2 -0.106 48.6252 16.4249 6.3124 0 0 0
520 0 2 -0.106 49.2749 15.8628 5.04383 0 0 0
521 0 2 -0.106 48.7528 16.4882 3.74506 0 0 0
522 0 1 -0.159 49.0547 15.5931 2.51588 0 0 0
523 0 3 0.053 50.5178 16.0783 23.8796 0 0 0
524 0 3 0.053 49.555 15.0885 22.6763 0 0 0
525 0 3 0.053 49.1034 16.7837 23.1497 0 0 0
526 0 3 0.053 51.4876 15.97 21.4773 0 0 0
527 0 3 0.053 51.0084 17.6588 21.8834 0 0 0
528 0 3 0.053 48.8591 17.2223 20.9059 0 0 0
529 0 3 0.053 49.2754 15.6708 20.5106 0 0 0
530 0 3 0.053 51.1337 16.4208 19.1217 0 0 0
531 0 3 0.053 50.708 18.0701 19.4652 0 0 0
532 0 3 0.053 48.7064 18.1146 18.5524 0 0 0
533 0 3 0.053 48.517 16.3547 18.348 0 0 0
534 0 3 0.053 50.5781 16.1743 16.7771 0 0 0
535 0 3 0.053 50.615 17.8208 16.4844 0 0 0
536 0 3 0.053 48.1258 17.8619 15.8922 0 0 0
537 0 3 0.053 48.1436 16.0138 16.1486 0 0 0
538 0 3 0.053 50.0331 15.9038 14.5023 0 0 0
539 0 3 0.053 49.8163 17.6311 14.2556 0 0 0
540 0 3 0.053 47.2587 17.0411 13.4652 0 0 0
541 0 3 0.053 47.7109 15.3108 13.7832 0 0 0
542 0 3 0.053 48.2875 15.5954 11.4605 0 0 0
543 0 3 0.053 49.9207 15.5831 12.3405 0 0 0
544 0 3 0.053 49.9861 17.9649 11.9897 0 0 0
545 0 3 0.053 48.3248 18.1081 11.2414 0 0 0
546 0 3 0.053 50.5473 16.3199 10.1829 0 0 0
547 0 3 0.053 50.24 17.9761 9.43971 0 0 0
548 0 3 0.053 47.901 17.2856 8.76755 0 0 0
549 0 3 0.053 48.1103 15.752 9.42342 0 0 0
550 0 3 0.053 49.4319 14.8722 7.68437 0 0 0
551 0 3 0.053 50.315 16.3326 7.64529 0 0 0
552 0 3 0.053 48.7291 17.5406 6.2459 0 0 0
553 0 3 0.053 47.5213 16.1932 6.20996 0 0 0
554 0 3 0.053 49.119 14.7711 4.98188 0 0 0
555 0 3 0.053 50.3852 16.0046 4.97522 0 0 0
556 0 3 0.053 49.1591 17.5496 3.77015 0 0 0
557 0 3 0.053 47.6967 16.6051 3.87724 0 0 0
558 0 3 0.053 48.7411 14.5881 2.67921 0 0 0
559 0 3 0.053 50.2203 15.6615 2.30956 0 0 0
560 0 3 0.053 48.5723 15.9052 1.53092 0 0 0
561 0 1 -0.159 10.429 23.3242 23.8091 0 0 0
562 0 2 -0.106 11.0055 23.3599 22.4646 0 0 0
563 0 2 -0.106 10.0789 24.0523 21.4213 0 0 0
564 0 2 -0.106 10.7137 23.785 20.0392 0 0 0
565 0 2 -0.106 9.81418 23.917 18.8101 0 0 0
566 0 2 -0.106 10.6756 23.8494 17.5599 0 0 0
567 0 2 -0.106 9.91675 24.0081 16.2734 0 0 0
568 0 2 -0.106 10.7236 23.9022 15.0134 0 0 0
569 0 2 -0.106 9.93613 24.4707 13.7762 0 0 0
570 0 2 -0.106 10.6149 23.9532 12.4918 0 0 0
571 0 2 -0.106 9.93638 24.2845 11.1672 0 0 0
572 0 2 -0.106 10.7695 23.6053 10.0946 0 0 0
573 0 2 -0.106 10.2294 23.7654 8.66119 0 0 0
574 0 2 -0.106 11.0871 22.995 7.58178 0 0 0
575 0 2 -0.106 10.5351 23.2244 6.18787 0 0 0
576 0 2 -0.106 11.2975 22.4658 5.09414 0 0 0
577 0 2 -0.106 10.9125 23.0781 3.6413 0 0 0
578 0 1 -0.159 11.6347 22.4312 2.51588 0 0 0
579 0 3 0.053 11.0659 23.0571 24.6193 0 0 0
580 0 3 0.053 9.5613 22.6289 23.7521 0 0 0
581 0 3 0.053 10.0099 24.3066 23.9894 0 0 0
582 0 3 0.053 11.1626 22.3391 22.2424 0 0 0
583 0 3 0.053 11.8773 23.9839 22.417 0 0 0
584 0 3 0.053 9.85949 25.1557 21.5908 0 0 0
585 0 3 0.053 9.07195 23.5344 21.4897 0 0 0
586 0 3 0.053 11.0653 22.7495 20.1509 0 0 0
587 0 3 0.053 11.5354 24.4869 19.9251 0 0 0
588 0 3 0.053 9.12713 24.8115 18.801 0 0 0
589 0 3 0.053 9.03796 23.0585 18.7436 0 0 0
590 0 3 0.053 11.0577 22.7908 17.611 0 0 0
591 0 3 0.053 11.6652 24.4196 17.5512 0 0 0
592 0 3 0.053 9.49787 25.0303 16.2535 0 0 0
593 0 3 0.053 9.03029 23.3872 16.348 0 0 0
594 0 3 0.053 10.9231 22.8771 14.7268 0 0 0
595 0 3 0.053 11.6241 24.4526 15.2046 0 0 0
596 0 3 0.053 9.95825 25.5798 13.8179 0 0 0
597 0 3 0.053 8.91483 24.0894 13.8266 0 0 0
598 0 3 0.053 10.7343 22.8933 12.5683 0 0 0
599 0 3 0.053 11.5926 24.3522 12.5399 0 0 0
600 0 3 0.053 9.97024 25.31 10.9421 0 0 0
601 0 3 0.053 8.90016 23.9561 11.1417 0 0 0
602 0 3 0.053 10.8419 22.5199 10.321 0 0 0
603 0 3 0.053 11.8074 23.9651 10.0818 0 0 0
604 0 3 0.053 10.3706 24.7797 8.46123 0 0 0
605 0 3 0.053 9.12971 23.5839 8.69599 0 0 0
606 0 3 0.053 11.0819 21.9579 7.82066 0 0 0
607 0 3 0.053 12.093 23.3382 7.71958 0 0 0
608 0 3 0.053 10.6999 24.2513 5.97114 0 0 0
609 0 3 0.053 9.47883 23.0843 6.08215 0 0 0
610 0 3 0.053 11.1152 21.3794 5.01725 0 0 0
611 0 3 0.053 12.3525 22.7949 5.31668 0 0 0
612 0 3 0.053 10.9847 24.1708 3.65744 0 0 0
613 0 3 0.053 9.84391 22.9053 3.49462 0 0 0
614 0 3 0.053 11.3628 21.3284 2.41624 0 0 0
615 0 3 0.053 12.7622 22.5574 2.61752 0 0 0
616 0 3 0.053 11.3774 22.6789 1.46945 0 0 0
617 0 1 -0.159 14.3612 22.2678 23.5337 0 0 0
618 0 2 -0.106 14.7053 21.3957 22.3544 0 0 0
619 0 2 -0.106 14.1319 21.9643 21.0343 0 0 0
620 0 2 -0.106 14.7907 21.4684 19.8033 0 0 0
621 0 2 -0.106 14.2268 21.9567 18.5223 0 0 0
622 0 2 -0.106 14.7809 21.4549 17.2459 0 0 0
623 0 2 -0.106 14.4078 22.2997 16.0573 0 0 0
624 0 2 -0.106 14.8777 21.6037 14.694 0 0 0
625 0 2 -0.106 14.0795 21.9483 13.3727 0 0 0
626 0 2 -0.106 14.7067 21.3117 12.1517 0 0 0
627 0 2 -0.106 14.0461 21.596 10.8519 0 0 0
628 0 2 -0.106 14.5698 20.866 9.58628 0 0 0
629 0 2 -0.106 15.7355 21.5829 8.8856 0 0 0
630 0 2 -0.106 16.3119 20.9824 7.58641 0 0 0
631 0 2 -0.106 15.4764 21.4164 6.40266 0 0 0
632 0 2 -0.106 16.1646 20.9832 5.10075 0 0 0
633 0 2 -0.106 15.4304 21.3648 3.84698 0 0 0
634 0 1 -0.159 16.2756 21.304 2.51588 0 0 0
635 0 3 0.053 13.2827 22.383 23.7873 0 0 0
636 0 3 0.053 14.6991 23.3113 23.3108 0 0 0
637 0 3 0.053 14.9131 21.9968 24.4383 0 0 0
638 0 3 0.053 14.2645 20.4202 22.5543 0 0 0
639 0 3 0.053 15.7759 21.1716 22.255 0 0 0
640 0 3 0.053 14.3461 23.0403 21.0419 0 0 0
641 0 3 0.053 13.0573 21.7467 20.9114 0 0 0
642 0 3 0.053 14.8271 20.3191 19.847 0 0 0
643 0 3 0.053 15.803 21.6987 19.9675 0 0 0
644 0 3 0.053 14.4921 23.0081 18.5731 0 0 0
645 0 3 0.053 13.1004 21.8011 18.6038 0 0 0
646 0 3 0.053 14.4178 20.4331 17.0269 0 0 0
647 0 3 0.053 15.8772 21.2139 17.232 0 0 0
648 0 3 0.053 14.7762 23.3117 16.1375 0 0 0
649 0 3 0.053 13.3072 22.2838 16.0623 0 0 0
650 0 3 0.053 14.8302 20.5595 14.9926 0 0 0
651 0 3 0.053 15.8895 21.8814 14.604 0 0 0
652 0 3 0.053 14.0717 23.0536 13.2903 0 0 0
653 0 3 0.053 13.0444 21.6056 13.361 0 0 0
654 0 3 0.053 14.7308 20.2212 12.3335 0 0 0
655 0 3 0.053 15.739 21.6264 12.211 0 0 0
656 0 3 0.053 14.0871 22.6657 10.6542 0 0 0
657 0 3 0.053 13.0123 21.266 10.8527 0 0 0
658 0 3 0.053 13.8039 20.666 8.83085 0 0 0
659 0 3 0.053 14.9588 19.894 9.8341 0 0 0
660 0 3 0.053 16.5464 21.6124 9.66844 0 0 0
661 0 3 0.053 15.4113 22.6119 8.67324 0 0 0
662 0 3 0.053 16.2793 19.9231 7.67601 0 0 0
663 0 3 0.053 17.3274 21.3849 7.37495 0 0 0
664 0 3 0.053 15.3605 22.6004 6.45739 0 0 0
665 0 3 0.053 14.4284 21.0301 6.42356 0 0 0
666 0 3 0.053 16.4315 19.9301 5.09277 0 0 0
667 0 3 0.053 17.1206 21.522 5.02617 0 0 0
668 0 3 0.053 15.0318 22.4788 3.99848 0 0 0
669 0 3 0.053 14.4981 20.7176 3.68334 0 0 0
670 0 3 0.053 15.6672 21.4803 1.58634 0 0 0
671 0 3 0.053 16.7184 20.2121 2.50796 0 0 0
672 0 3 0.053 17.0758 22.0742 2.51772 0 0 0
673 0 1 -0.159 18.7935 18.8679 22.9536 0 0 0
674 0 2 -0.106 19.7817 18.3005 21.8565 0 0 0
675 0 2 -0.106 19.5869 18.8558 20.4254 0 0 0