
     Program PWSCF v.6.6 starts on  8May2023 at  6:33: 7 

     This program is part of the open-source Quantum ESPRESSO suite
     for quantum simulation of materials; please cite
         "P. Giannozzi et al., J. Phys.:Condens. Matter 21 395502 (2009);
         "P. Giannozzi et al., J. Phys.:Condens. Matter 29 465901 (2017);
          URL http://www.quantum-espresso.org", 
     in publications or presentations arising from this work. More details at
     http://www.quantum-espresso.org/quote

     Parallel version (MPI), running on    24 processors

     MPI processes distributed on     1 nodes
     R & G space division:  proc/nbgrp/npool/nimage =      24
     Fft bands division:     nmany     =       1
     Reading input from INCAR-nscf.pw

     Current dimensions of program PWSCF are:
     Max number of different atomic species (ntypx) = 10
     Max number of k-points (npk) =  40000
     Max angular momentum in pseudopotentials (lmaxx) =  3

     Atomic positions and unit cell read from directory:
     ./wfc-out/pwscf.save/
     Atomic positions from file used, from input discarded
 

     Subspace diagonalization in iterative solution of the eigenvalue problem:
     a serial algorithm will be used

 
     Parallelization info
     --------------------
     sticks:   dense  smooth     PW     G-vecs:    dense   smooth      PW
     Min         134      71     21                26420    10283    1673
     Max         135      72     22                26435    10294    1685
     Sum        3235    1717    509               634297   246879   40293
 


     bravais-lattice index     =            0
     lattice parameter (alat)  =       8.3435  a.u.
     unit-cell volume          =    2555.0296 (a.u.)^3
     number of atoms/cell      =            4
     number of atomic types    =            2
     number of electrons       =        40.00
     number of Kohn-Sham states=           20
     kinetic-energy cutoff     =      80.0000  Ry
     charge density cutoff     =     600.0000  Ry
     Exchange-correlation= SLA  PW   PBE  PBE
                           (   1   4   3   4   0   0   0)

     celldm(1)=   8.343499  celldm(2)=   0.000000  celldm(3)=   0.000000
     celldm(4)=   0.000000  celldm(5)=   0.000000  celldm(6)=   0.000000

     crystal axes: (cart. coord. in units of alat)
               a(1) = (   1.000000   0.000000   0.000000 )  
               a(2) = (   0.000000   0.971115   0.000000 )  
               a(3) = (   0.000000   0.000000   4.529817 )  

     reciprocal axes: (cart. coord. in units 2 pi/alat)
               b(1) = (  1.000000  0.000000  0.000000 )  
               b(2) = (  0.000000  1.029744  0.000000 )  
               b(3) = (  0.000000  0.000000  0.220759 )  


     PseudoPot. # 1 for Sn read from file:
     ./Sn_pbe_v1.uspp.F.UPF
     MD5 check sum: 4cf58ce39ec5d5d420df3dd08604eb00
     Pseudo is Ultrasoft + core correction, Zval = 14.0
     Generated by new atomic code, or converted to UPF format
     Using radial grid of  891 points,  6 beta functions with: 
                l(1) =   0
                l(2) =   0
                l(3) =   1
                l(4) =   1
                l(5) =   2
                l(6) =   2
     Q(r) pseudized with  6 coefficients,  rinner =    1.200   1.200   1.200
                                                       1.200   1.200

     PseudoPot. # 2 for Se read from file:
     ./Se_pbe_v1.uspp.F.UPF
     MD5 check sum: 1b3568f3a8ae88f9a2a0ad0698632c85
     Pseudo is Ultrasoft + core correction, Zval =  6.0
     Generated by new atomic code, or converted to UPF format
     Using radial grid of  877 points,  6 beta functions with: 
                l(1) =   0
                l(2) =   0
                l(3) =   1
                l(4) =   1
                l(5) =   2
                l(6) =   2
     Q(r) pseudized with  8 coefficients,  rinner =    1.300   1.300   1.300
                                                       1.300   1.300

     atomic species   valence    mass     pseudopotential
        Sn            14.00   118.71000     Sn( 1.00)
        Se             6.00    78.96000     Se( 1.00)

     No symmetry found



   Cartesian axes

     site n.     atom                  positions (alat units)
         1           Sn  tau(   1) = (   0.5847709   0.7283361   0.6547097  )
         2           Sn  tau(   2) = (   0.0847686   0.2427787   0.0299501  )
         3           Se  tau(   3) = (   0.0293345   0.2427787   0.6446363  )
         4           Se  tau(   4) = (   0.5293340   0.7283361   0.0400224  )

     number of k points=   120

     Number of k-points >= 100: set verbosity='high' to print them.

     Dense  grid:   634297 G-vectors     FFT dimensions: (  72,  64, 300)

     Smooth grid:   246879 G-vectors     FFT dimensions: (  48,  48, 216)

     Estimated max dynamical RAM per process >      90.02 MB

     Estimated total dynamical RAM >       2.11 GB

     The potential is recalculated from file :
     ./wfc-out/pwscf.save/charge-density


     negative rho (up, down):  2.866E-05 0.000E+00
     Starting wfcs are   26 randomized atomic wfcs

     Band Structure Calculation
     Davidson diagonalization with overlap

     ethr =  2.50E-13,  avg # of iterations = 57.7

     total cpu time spent up to now is      121.3 secs

     End of band structure calculation

     Number of k-points >= 100: set verbosity='high' to print the bands.

     highest occupied level (ev):    -0.9142



               ==================================================
                            POLARIZATION CALCULATION
                         !!! NOT THOROUGHLY TESTED !!!
               --------------------------------------------------


                     K-POINTS STRINGS USED IN CALCULATIONS
                     ~~~~~~~~~~~~~~~~~~~~~~~~~~~~~~~~~~~~~

       G-vector along string (2 pi/a):  1.00000  0.00000  0.00000
       Modulus of the vector (1/bohr):  0.75306
       Number of k-points per string:  15
       Number of different strings  :   8


                               IONIC POLARIZATION
                               ~~~~~~~~~~~~~~~~~~

  ============================================================================
    Ion    Species    Charge              Position                Phase
  ----------------------------------------------------------------------------
     1        Sn      14.000       0.5848  0.7283  0.6547     0.18679 (mod 2)
     2        Sn      14.000       0.0848  0.2428  0.0300    -0.81324 (mod 2)
     3        Se       6.000       0.0293  0.2428  0.6446     0.17601 (mod 2)
     4        Se       6.000       0.5293  0.7283  0.0400    -0.82400 (mod 2)
  ----------------------------------------------------------------------------
                                               IONIC PHASE:   0.72556 (mod 2)
  ============================================================================


                            ELECTRONIC POLARIZATION
                            ~~~~~~~~~~~~~~~~~~~~~~~

  ============================================================================
    String     Weight      First k-point in string         Phase
  ----------------------------------------------------------------------------
       1      0.066667      0.0000  0.0000  0.0000    -0.47409
       2      0.133333      0.0000  0.0686  0.0000    -0.33606
       3      0.133333      0.0000  0.1373  0.0000    -0.22381
       4      0.133333      0.0000  0.2059  0.0000    -0.15626
       5      0.133333      0.0000  0.2746  0.0000    -0.09890
       6      0.133333      0.0000  0.3432  0.0000    -0.05340
       7      0.133333      0.0000  0.4119  0.0000    -0.02934
       8      0.133333      0.0000  0.4805  0.0000    -0.02149
  ----------------------------------------------------------------------------
                                          ELECTRONIC PHASE:  -0.15418
  ============================================================================


                               SUMMARY OF PHASES
                               ~~~~~~~~~~~~~~~~~

                          Ionic Phase:  0.72556
                     Electronic Phase: -0.15418
                          TOTAL PHASE:  0.57139 MOD_TOT: 2


                             VALUES OF POLARIZATION
                             ~~~~~~~~~~~~~~~~~~~~~~

        The calculation of phases done along the direction of vector 1
        of the reciprocal lattice gives the following contribution to
        the polarization vector (in different units, and being Omega
        the volume of the unit cell):

           P =   4.7673824  (mod  16.6869987)  (e/Omega).bohr

           P =   0.0018659  (mod   0.0065310)  e/bohr^2

           P =   0.1066757  (mod   0.3733908)  C/m^2

        The polarization direction is:  ( 1.00000 , 0.00000 , 0.00000 )


               ==================================================



     Writing output data file ./wfc-out/pwscf.save/
 
     init_run     :      0.87s CPU      1.00s WALL (       1 calls)
     electrons    :    123.51s CPU    127.51s WALL (       1 calls)

     Called by init_run:
     wfcinit      :      0.00s CPU      0.03s WALL (       1 calls)
     potinit      :      0.06s CPU      0.08s WALL (       1 calls)
     hinit0       :      0.30s CPU      0.31s WALL (       1 calls)

     Called by electrons:
     c_bands      :    115.80s CPU    119.56s WALL (       1 calls)
     v_of_rho     :      0.04s CPU      0.04s WALL (       1 calls)
     newd         :      0.18s CPU      0.23s WALL (       1 calls)

     Called by c_bands:
     init_us_2    :      0.17s CPU      0.22s WALL (     344 calls)
     cegterg      :    105.53s CPU    108.94s WALL (     367 calls)

     Called by *egterg:
     cdiaghg      :      5.01s CPU      5.09s WALL (    7043 calls)
     h_psi        :     80.33s CPU     83.30s WALL (    7410 calls)
     s_psi        :      3.47s CPU      3.55s WALL (    7410 calls)
     g_psi        :      0.55s CPU      0.56s WALL (    6923 calls)

     Called by h_psi:
     h_psi:calbec :      5.50s CPU      5.71s WALL (    7410 calls)
     vloc_psi     :     70.01s CPU     72.70s WALL (    7410 calls)
     add_vuspsi   :      4.21s CPU      4.29s WALL (    7410 calls)

     General routines
     calbec       :      6.52s CPU      6.75s WALL (    7634 calls)
     fft          :      0.03s CPU      0.04s WALL (      13 calls)
     ffts         :      0.00s CPU      0.00s WALL (       1 calls)
     fftw         :     63.57s CPU     65.99s WALL (  275274 calls)
     interpolate  :      0.00s CPU      0.00s WALL (       1 calls)
     davcio       :      0.10s CPU      0.39s WALL (     464 calls)
 
     Parallel routines
     fft_scatt_xy :      7.58s CPU      7.89s WALL (  275288 calls)
     fft_scatt_yz :     38.15s CPU     39.54s WALL (  275288 calls)
 
     PWSCF        :   2m 9.19s CPU   3m19.12s WALL

 
   This run was terminated on:   6:36:27   8May2023            

=------------------------------------------------------------------------------=
   JOB DONE.
=------------------------------------------------------------------------------=
