 running on  192 total cores
 distrk:  each k-point on  192 cores,    1 groups
 distr:  one band on   24 cores,    8 groups
 using from now: INCAR     
 vasp.5.4.4.18Apr17-6-g9f103f2a35 (build Oct 01 2024 10:11:53) complex          
  
 POSCAR found type information on POSCAR  B  O 
 POSCAR found :  2 types and      10 ions
 scaLAPACK will be used
 LDA part: xc-table for Pade appr. of Perdew
 found WAVECAR, reading the header
  number of k-points has changed, file:    27 present:    24
  trying to continue reading WAVECAR, but it might fail
 WARNING: stress and forces are not correct
 POSCAR, INCAR and KPOINTS ok, starting setup
 FFT: planning ...
 reading WAVECAR
 the WAVECAR file was read successfully
 charge-density read from file: unknown                                 
 entering main loop
       N       E                     dE             d eps       ncg     rms          rms(c)
DAV:   1    -0.768930138214E+02   -0.76893E+02   -0.51089E+02  1656   0.940E+01
DAV:   2    -0.801349487147E+02   -0.32419E+01   -0.32320E+01  1864   0.257E+01
DAV:   3    -0.801886578573E+02   -0.53709E-01   -0.53629E-01  1776   0.340E+00
DAV:   4    -0.801905154539E+02   -0.18576E-02   -0.18571E-02  1880   0.549E-01
DAV:   5    -0.801905547604E+02   -0.39307E-04   -0.39305E-04  1776   0.809E-02
DAV:   6    -0.801905563651E+02   -0.16047E-05   -0.16047E-05  1672   0.139E-02
DAV:   7    -0.801905564332E+02   -0.68187E-07   -0.68116E-07  1256   0.277E-03
   1 F= -.80190556E+02 E0= -.80190556E+02  d E =0.000000E+00
 writing wavefunctions
