1T-MoS2-46x30
8280 	 atoms 
2  atom types
0.0       252.4393061451272  xlo xhi
0.0      94.898588865352053  ylo yhi
0.0                      20  zlo zhi


Atoms 

     1   1   0.0                       0                       0      10.091766399999999
     2   1   0.0      2.7557232599999999              1.58301505      9.9083476400000006
     3   2   0.0              1.74445344   0.0014932599999999999      8.3820347399999999
     4   2   0.0      4.6630949199999998              1.58441378      8.4343444499999993
     5   2   0.0      1.0112643100000001      1.5845115700000001      11.617906899999999
     6   2   0.0      3.5804483399999998   0.0013985499999999999      11.565599499999999
     7   1   0.0                       0      3.1632862955117349      10.091766399999999
     8   1   0.0      2.7557232599999999      4.7463013455117347      9.9083476400000006
     9   2   0.0              1.74445344      3.1647795555117351      8.3820347399999999
    10   2   0.0      4.6630949199999998      4.7477000755117347      8.4343444499999993
    11   2   0.0      1.0112643100000001      4.7477978655117354      11.617906899999999
    12   2   0.0      3.5804483399999998      3.1646848455117351      11.565599499999999
    13   1   0.0                       0      6.3265725910234698      10.091766399999999
    14   1   0.0      2.7557232599999999        7.90958764102347      9.9083476400000006
    15   2   0.0              1.74445344        6.32806585102347      8.3820347399999999
    16   2   0.0      4.6630949199999998        7.91098637102347      8.4343444499999993
    17   2   0.0      1.0112643100000001      7.9110841610234699      11.617906899999999
    18   2   0.0      3.5804483399999998        6.32797114102347      11.565599499999999
    19   1   0.0                       0      9.4898588865352043      10.091766399999999
    20   1   0.0      2.7557232599999999      11.072873936535204      9.9083476400000006
    21   2   0.0              1.74445344      9.4913521465352044      8.3820347399999999
    22   2   0.0      4.6630949199999998      11.074272666535204      8.4343444499999993
    23   2   0.0      1.0112643100000001      11.074370456535204      11.617906899999999
    24   2   0.0      3.5804483399999998      9.4912574365352036      11.565599499999999
    25   1   0.0                       0       12.65314518204694      10.091766399999999
    26   1   0.0      2.7557232599999999       14.23616023204694      9.9083476400000006
    27   2   0.0              1.74445344       12.65463844204694      8.3820347399999999
    28   2   0.0      4.6630949199999998       14.23755896204694      8.4343444499999993
    29   2   0.0      1.0112643100000001       14.23765675204694      11.617906899999999
    30   2   0.0      3.5804483399999998      12.654543732046939      11.565599499999999
    31   1   0.0                       0      15.816431477558675      10.091766399999999
    32   1   0.0      2.7557232599999999      17.399446527558673      9.9083476400000006
    33   2   0.0              1.74445344      15.817924737558675      8.3820347399999999
    34   2   0.0      4.6630949199999998      17.400845257558675      8.4343444499999993
    35   2   0.0      1.0112643100000001      17.400943047558677      11.617906899999999
    36   2   0.0      3.5804483399999998      15.817830027558674      11.565599499999999
    37   1   0.0                       0      18.979717773070409      10.091766399999999
    38   1   0.0      2.7557232599999999      20.562732823070409      9.9083476400000006
    39   2   0.0              1.74445344      18.981211033070409      8.3820347399999999
    40   2   0.0      4.6630949199999998      20.564131553070407      8.4343444499999993
    41   2   0.0      1.0112643100000001      20.564229343070409      11.617906899999999
    42   2   0.0      3.5804483399999998       18.98111632307041      11.565599499999999
    43   1   0.0                       0      22.143004068582144      10.091766399999999
    44   1   0.0      2.7557232599999999      23.726019118582144      9.9083476400000006
    45   2   0.0              1.74445344      22.144497328582144      8.3820347399999999
    46   2   0.0      4.6630949199999998      23.727417848582142      8.4343444499999993
    47   2   0.0      1.0112643100000001      23.727515638582144      11.617906899999999
    48   2   0.0      3.5804483399999998      22.144402618582145      11.565599499999999
    49   1   0.0                       0      25.306290364093879      10.091766399999999
    50   1   0.0      2.7557232599999999      26.889305414093879      9.9083476400000006
    51   2   0.0              1.74445344      25.307783624093879      8.3820347399999999
    52   2   0.0      4.6630949199999998      26.890704144093878      8.4343444499999993
    53   2   0.0      1.0112643100000001      26.890801934093879      11.617906899999999
    54   2   0.0      3.5804483399999998       25.30768891409388      11.565599499999999
    55   1   0.0                       0      28.469576659605615      10.091766399999999
    56   1   0.0      2.7557232599999999      30.052591709605615      9.9083476400000006
    57   2   0.0              1.74445344      28.471069919605615      8.3820347399999999
    58   2   0.0      4.6630949199999998      30.053990439605613      8.4343444499999993
    59   2   0.0      1.0112643100000001      30.054088229605615      11.617906899999999
    60   2   0.0      3.5804483399999998      28.470975209605616      11.565599499999999
    61   1   0.0                       0       31.63286295511735      10.091766399999999
    62   1   0.0      2.7557232599999999      33.215878005117347      9.9083476400000006
    63   2   0.0              1.74445344       31.63435621511735      8.3820347399999999
    64   2   0.0      4.6630949199999998      33.217276735117352      8.4343444499999993
    65   2   0.0      1.0112643100000001       33.21737452511735      11.617906899999999
    66   2   0.0      3.5804483399999998      31.634261505117351      11.565599499999999
    67   1   0.0                       0      34.796149250629085      10.091766399999999
    68   1   0.0      2.7557232599999999      36.379164300629085      9.9083476400000006
    69   2   0.0              1.74445344      34.797642510629082      8.3820347399999999
    70   2   0.0      4.6630949199999998      36.380563030629084      8.4343444499999993
    71   2   0.0      1.0112643100000001      36.380660820629089      11.617906899999999
    72   2   0.0      3.5804483399999998      34.797547800629083      11.565599499999999
    73   1   0.0                       0      37.959435546140817      10.091766399999999
    74   1   0.0      2.7557232599999999      39.542450596140817      9.9083476400000006
    75   2   0.0              1.74445344      37.960928806140814      8.3820347399999999
    76   2   0.0      4.6630949199999998      39.543849326140815      8.4343444499999993
    77   2   0.0      1.0112643100000001      39.543947116140814      11.617906899999999
    78   2   0.0      3.5804483399999998      37.960834096140815      11.565599499999999
    79   1   0.0                       0      41.122721841652556      10.091766399999999
    80   1   0.0      2.7557232599999999      42.705736891652556      9.9083476400000006
    81   2   0.0              1.74445344      41.124215101652553      8.3820347399999999
    82   2   0.0      4.6630949199999998      42.707135621652554      8.4343444499999993
    83   2   0.0      1.0112643100000001      42.707233411652552      11.617906899999999
    84   2   0.0      3.5804483399999998      41.124120391652554      11.565599499999999
    85   1   0.0                       0      44.286008137164288      10.091766399999999
    86   1   0.0      2.7557232599999999      45.869023187164288      9.9083476400000006
    87   2   0.0              1.74445344      44.287501397164284      8.3820347399999999
    88   2   0.0      4.6630949199999998      45.870421917164286      8.4343444499999993
    89   2   0.0      1.0112643100000001      45.870519707164291      11.617906899999999
    90   2   0.0      3.5804483399999998      44.287406687164285      11.565599499999999
    91   1   0.0                       0      47.449294432676027      10.091766399999999
    92   1   0.0      2.7557232599999999      49.032309482676027      9.9083476400000006
    93   2   0.0              1.74445344      47.450787692676023      8.3820347399999999
    94   2   0.0      4.6630949199999998      49.033708212676025      8.4343444499999993
    95   2   0.0      1.0112643100000001       49.03380600267603      11.617906899999999
    96   2   0.0      3.5804483399999998      47.450692982676024      11.565599499999999
    97   1   0.0                       0      50.612580728187758      10.091766399999999
    98   1   0.0      2.7557232599999999      52.195595778187759      9.9083476400000006
    99   2   0.0              1.74445344      50.614073988187755      8.3820347399999999
   100   2   0.0      4.6630949199999998      52.196994508187757      8.4343444499999993
   101   2   0.0      1.0112643100000001      52.197092298187755      11.617906899999999
   102   2   0.0      3.5804483399999998      50.613979278187756      11.565599499999999
   103   1   0.0                       0       53.77586702369949      10.091766399999999
   104   1   0.0      2.7557232599999999       55.35888207369949      9.9083476400000006
   105   2   0.0              1.74445344      53.777360283699487      8.3820347399999999
   106   2   0.0      4.6630949199999998      55.360280803699489      8.4343444499999993
   107   2   0.0      1.0112643100000001      55.360378593699494      11.617906899999999
   108   2   0.0      3.5804483399999998      53.777265573699488      11.565599499999999
   109   1   0.0                       0      56.939153319211229      10.091766399999999
   110   1   0.0      2.7557232599999999      58.522168369211229      9.9083476400000006
   111   2   0.0              1.74445344      56.940646579211226      8.3820347399999999
   112   2   0.0      4.6630949199999998      58.523567099211228      8.4343444499999993
   113   2   0.0      1.0112643100000001      58.523664889211233      11.617906899999999
   114   2   0.0      3.5804483399999998      56.940551869211227      11.565599499999999
   115   1   0.0                       0      60.102439614722961      10.091766399999999
   116   1   0.0      2.7557232599999999      61.685454664722961      9.9083476400000006
   117   2   0.0              1.74445344      60.103932874722958      8.3820347399999999
   118   2   0.0      4.6630949199999998      61.686853394722959      8.4343444499999993
   119   2   0.0      1.0112643100000001      61.686951184722957      11.617906899999999
   120   2   0.0      3.5804483399999998      60.103838164722958      11.565599499999999
   121   1   0.0                       0        63.2657259102347      10.091766399999999
   122   1   0.0      2.7557232599999999      64.848740960234693      9.9083476400000006
   123   2   0.0              1.74445344      63.267219170234696      8.3820347399999999
   124   2   0.0      4.6630949199999998      64.850139690234698      8.4343444499999993
   125   2   0.0      1.0112643100000001      64.850237480234696      11.617906899999999
   126   2   0.0      3.5804483399999998      63.267124460234697      11.565599499999999
   127   1   0.0                       0      66.429012205746432      10.091766399999999
   128   1   0.0      2.7557232599999999      68.012027255746432      9.9083476400000006
   129   2   0.0              1.74445344      66.430505465746435      8.3820347399999999
   130   2   0.0      4.6630949199999998      68.013425985746437      8.4343444499999993
   131   2   0.0      1.0112643100000001      68.013523775746435      11.617906899999999
   132   2   0.0      3.5804483399999998      66.430410755746436      11.565599499999999
   133   1   0.0                       0      69.592298501258171      10.091766399999999
   134   1   0.0      2.7557232599999999      71.175313551258171      9.9083476400000006
   135   2   0.0              1.74445344      69.593791761258174      8.3820347399999999
   136   2   0.0      4.6630949199999998      71.176712281258176      8.4343444499999993
   137   2   0.0      1.0112643100000001      71.176810071258174      11.617906899999999
   138   2   0.0      3.5804483399999998      69.593697051258175      11.565599499999999
   139   1   0.0                       0      72.755584796769909      10.091766399999999
   140   1   0.0      2.7557232599999999       74.33859984676991      9.9083476400000006
   141   2   0.0              1.74445344      72.757078056769913      8.3820347399999999
   142   2   0.0      4.6630949199999998      74.339998576769915      8.4343444499999993
   143   2   0.0      1.0112643100000001      74.340096366769913      11.617906899999999
   144   2   0.0      3.5804483399999998      72.756983346769914      11.565599499999999
   145   1   0.0                       0      75.918871092281634      10.091766399999999
   146   1   0.0      2.7557232599999999      77.501886142281634      9.9083476400000006
   147   2   0.0              1.74445344      75.920364352281638      8.3820347399999999
   148   2   0.0      4.6630949199999998       77.50328487228164      8.4343444499999993
   149   2   0.0      1.0112643100000001      77.503382662281638      11.617906899999999
   150   2   0.0      3.5804483399999998      75.920269642281639      11.565599499999999
   151   1   0.0                       0      79.082157387793373      10.091766399999999
   152   1   0.0      2.7557232599999999      80.665172437793373      9.9083476400000006
   153   2   0.0              1.74445344      79.083650647793377      8.3820347399999999
   154   2   0.0      4.6630949199999998      80.666571167793379      8.4343444499999993
   155   2   0.0      1.0112643100000001      80.666668957793377      11.617906899999999
   156   2   0.0      3.5804483399999998      79.083555937793378      11.565599499999999
   157   1   0.0                       0      82.245443683305112      10.091766399999999
   158   1   0.0      2.7557232599999999      83.828458733305112      9.9083476400000006
   159   2   0.0              1.74445344      82.246936943305116      8.3820347399999999
   160   2   0.0      4.6630949199999998      83.829857463305117      8.4343444499999993
   161   2   0.0      1.0112643100000001      83.829955253305116      11.617906899999999
   162   2   0.0      3.5804483399999998      82.246842233305117      11.565599499999999
   163   1   0.0                       0      85.408729978816837      10.091766399999999
   164   1   0.0      2.7557232599999999      86.991745028816837      9.9083476400000006
   165   2   0.0              1.74445344       85.41022323881684      8.3820347399999999
   166   2   0.0      4.6630949199999998      86.993143758816842      8.4343444499999993
   167   2   0.0      1.0112643100000001       86.99324154881684      11.617906899999999
   168   2   0.0      3.5804483399999998      85.410128528816841      11.565599499999999
   169   1   0.0                       0      88.572016274328575      10.091766399999999
   170   1   0.0      2.7557232599999999      90.155031324328576      9.9083476400000006
   171   2   0.0              1.74445344      88.573509534328579      8.3820347399999999
   172   2   0.0      4.6630949199999998      90.156430054328581      8.4343444499999993
   173   2   0.0      1.0112643100000001      90.156527844328579      11.617906899999999
   174   2   0.0      3.5804483399999998       88.57341482432858      11.565599499999999
   175   1   0.0                       0      91.735302569840314      10.091766399999999
   176   1   0.0      2.7557232599999999      93.318317619840315      9.9083476400000006
   177   2   0.0              1.74445344      91.736795829840318      8.3820347399999999
   178   2   0.0      4.6630949199999998       93.31971634984032      8.4343444499999993
   179   2   0.0      1.0112643100000001      93.319814139840318      11.617906899999999
   180   2   0.0      3.5804483399999998      91.736701119840319      11.565599499999999
   181   1   0.0      5.4878110031549392                       0      10.091766399999999
   182   1   0.0      8.2435342631549382              1.58301505      9.9083476400000006
   183   2   0.0      7.2322644431549392   0.0014932599999999999      8.3820347399999999
   184   2   0.0      10.150905923154939              1.58441378      8.4343444499999993
   185   2   0.0      6.4990753131549397      1.5845115700000001      11.617906899999999
   186   2   0.0      9.0682593431549385   0.0013985499999999999      11.565599499999999
   187   1   0.0      5.4878110031549392      3.1632862955117349      10.091766399999999
   188   1   0.0      8.2435342631549382      4.7463013455117347      9.9083476400000006
   189   2   0.0      7.2322644431549392      3.1647795555117351      8.3820347399999999
   190   2   0.0      10.150905923154939      4.7477000755117347      8.4343444499999993
   191   2   0.0      6.4990753131549397      4.7477978655117354      11.617906899999999
   192   2   0.0      9.0682593431549385      3.1646848455117351      11.565599499999999
   193   1   0.0      5.4878110031549392      6.3265725910234698      10.091766399999999
   194   1   0.0      8.2435342631549382        7.90958764102347      9.9083476400000006
   195   2   0.0      7.2322644431549392        6.32806585102347      8.3820347399999999
   196   2   0.0      10.150905923154939        7.91098637102347      8.4343444499999993
   197   2   0.0      6.4990753131549397      7.9110841610234699      11.617906899999999
   198   2   0.0      9.0682593431549385        6.32797114102347      11.565599499999999
   199   1   0.0      5.4878110031549392      9.4898588865352043      10.091766399999999
   200   1   0.0      8.2435342631549382      11.072873936535204      9.9083476400000006
   201   2   0.0      7.2322644431549392      9.4913521465352044      8.3820347399999999
   202   2   0.0      10.150905923154939      11.074272666535204      8.4343444499999993
   203   2   0.0      6.4990753131549397      11.074370456535204      11.617906899999999
   204   2   0.0      9.0682593431549385      9.4912574365352036      11.565599499999999
   205   1   0.0      5.4878110031549392       12.65314518204694      10.091766399999999
   206   1   0.0      8.2435342631549382       14.23616023204694      9.9083476400000006
   207   2   0.0      7.2322644431549392       12.65463844204694      8.3820347399999999
   208   2   0.0      10.150905923154939       14.23755896204694      8.4343444499999993
   209   2   0.0      6.4990753131549397       14.23765675204694      11.617906899999999
   210   2   0.0      9.0682593431549385      12.654543732046939      11.565599499999999
   211   1   0.0      5.4878110031549392      15.816431477558675      10.091766399999999
   212   1   0.0      8.2435342631549382      17.399446527558673      9.9083476400000006
   213   2   0.0      7.2322644431549392      15.817924737558675      8.3820347399999999
   214   2   0.0      10.150905923154939      17.400845257558675      8.4343444499999993
   215   2   0.0      6.4990753131549397      17.400943047558677      11.617906899999999
   216   2   0.0      9.0682593431549385      15.817830027558674      11.565599499999999
   217   1   0.0      5.4878110031549392      18.979717773070409      10.091766399999999
   218   1   0.0      8.2435342631549382      20.562732823070409      9.9083476400000006
   219   2   0.0      7.2322644431549392      18.981211033070409      8.3820347399999999
   220   2   0.0      10.150905923154939      20.564131553070407      8.4343444499999993
   221   2   0.0      6.4990753131549397      20.564229343070409      11.617906899999999
   222   2   0.0      9.0682593431549385       18.98111632307041      11.565599499999999
   223   1   0.0      5.4878110031549392      22.143004068582144      10.091766399999999
   224   1   0.0      8.2435342631549382      23.726019118582144      9.9083476400000006
   225   2   0.0      7.2322644431549392      22.144497328582144      8.3820347399999999
   226   2   0.0      10.150905923154939      23.727417848582142      8.4343444499999993
   227   2   0.0      6.4990753131549397      23.727515638582144      11.617906899999999
   228   2   0.0      9.0682593431549385      22.144402618582145      11.565599499999999
   229   1   0.0      5.4878110031549392      25.306290364093879      10.091766399999999
   230   1   0.0      8.2435342631549382      26.889305414093879      9.9083476400000006
   231   2   0.0      7.2322644431549392      25.307783624093879      8.3820347399999999
   232   2   0.0      10.150905923154939      26.890704144093878      8.4343444499999993
   233   2   0.0      6.4990753131549397      26.890801934093879      11.617906899999999
   234   2   0.0      9.0682593431549385       25.30768891409388      11.565599499999999
   235   1   0.0      5.4878110031549392      28.469576659605615      10.091766399999999
   236   1   0.0      8.2435342631549382      30.052591709605615      9.9083476400000006
   237   2   0.0      7.2322644431549392      28.471069919605615      8.3820347399999999
   238   2   0.0      10.150905923154939      30.053990439605613      8.4343444499999993
   239   2   0.0      6.4990753131549397      30.054088229605615      11.617906899999999
   240   2   0.0      9.0682593431549385      28.470975209605616      11.565599499999999
   241   1   0.0      5.4878110031549392       31.63286295511735      10.091766399999999
   242   1   0.0      8.2435342631549382      33.215878005117347      9.9083476400000006
   243   2   0.0      7.2322644431549392       31.63435621511735      8.3820347399999999
   244   2   0.0      10.150905923154939      33.217276735117352      8.4343444499999993
   245   2   0.0      6.4990753131549397       33.21737452511735      11.617906899999999
   246   2   0.0      9.0682593431549385      31.634261505117351      11.565599499999999
   247   1   0.0      5.4878110031549392      34.796149250629085      10.091766399999999
   248   1   0.0      8.2435342631549382      36.379164300629085      9.9083476400000006
   249   2   0.0      7.2322644431549392      34.797642510629082      8.3820347399999999
   250   2   0.0      10.150905923154939      36.380563030629084      8.4343444499999993
   251   2   0.0      6.4990753131549397      36.380660820629089      11.617906899999999
   252   2   0.0      9.0682593431549385      34.797547800629083      11.565599499999999
   253   1   0.0      5.4878110031549392      37.959435546140817      10.091766399999999
   254   1   0.0      8.2435342631549382      39.542450596140817      9.9083476400000006
   255   2   0.0      7.2322644431549392      37.960928806140814      8.3820347399999999
   256   2   0.0      10.150905923154939      39.543849326140815      8.4343444499999993
   257   2   0.0      6.4990753131549397      39.543947116140814      11.617906899999999
   258   2   0.0      9.0682593431549385      37.960834096140815      11.565599499999999
   259   1   0.0      5.4878110031549392      41.122721841652556      10.091766399999999
   260   1   0.0      8.2435342631549382      42.705736891652556      9.9083476400000006
   261   2   0.0      7.2322644431549392      41.124215101652553      8.3820347399999999
   262   2   0.0      10.150905923154939      42.707135621652554      8.4343444499999993
   263   2   0.0      6.4990753131549397      42.707233411652552      11.617906899999999
   264   2   0.0      9.0682593431549385      41.124120391652554      11.565599499999999
   265   1   0.0      5.4878110031549392      44.286008137164288      10.091766399999999
   266   1   0.0      8.2435342631549382      45.869023187164288      9.9083476400000006
   267   2   0.0      7.2322644431549392      44.287501397164284      8.3820347399999999
   268   2   0.0      10.150905923154939      45.870421917164286      8.4343444499999993
   269   2   0.0      6.4990753131549397      45.870519707164291      11.617906899999999
   270   2   0.0      9.0682593431549385      44.287406687164285      11.565599499999999
   271   1   0.0      5.4878110031549392      47.449294432676027      10.091766399999999
   272   1   0.0      8.2435342631549382      49.032309482676027      9.9083476400000006
   273   2   0.0      7.2322644431549392      47.450787692676023      8.3820347399999999
   274   2   0.0      10.150905923154939      49.033708212676025      8.4343444499999993
   275   2   0.0      6.4990753131549397       49.03380600267603      11.617906899999999
   276   2   0.0      9.0682593431549385      47.450692982676024      11.565599499999999
   277   1   0.0      5.4878110031549392      50.612580728187758      10.091766399999999
   278   1   0.0      8.2435342631549382      52.195595778187759      9.9083476400000006
   279   2   0.0      7.2322644431549392      50.614073988187755      8.3820347399999999
   280   2   0.0      10.150905923154939      52.196994508187757      8.4343444499999993
   281   2   0.0      6.4990753131549397      52.197092298187755      11.617906899999999
   282   2   0.0      9.0682593431549385      50.613979278187756      11.565599499999999
   283   1   0.0      5.4878110031549392       53.77586702369949      10.091766399999999
   284   1   0.0      8.2435342631549382       55.35888207369949      9.9083476400000006
   285   2   0.0      7.2322644431549392      53.777360283699487      8.3820347399999999
   286   2   0.0      10.150905923154939      55.360280803699489      8.4343444499999993
   287   2   0.0      6.4990753131549397      55.360378593699494      11.617906899999999
   288   2   0.0      9.0682593431549385      53.777265573699488      11.565599499999999
   289   1   0.0      5.4878110031549392      56.939153319211229      10.091766399999999
   290   1   0.0      8.2435342631549382      58.522168369211229      9.9083476400000006
   291   2   0.0      7.2322644431549392      56.940646579211226      8.3820347399999999
   292   2   0.0      10.150905923154939      58.523567099211228      8.4343444499999993
   293   2   0.0      6.4990753131549397      58.523664889211233      11.617906899999999
   294   2   0.0      9.0682593431549385      56.940551869211227      11.565599499999999
   295   1   0.0      5.4878110031549392      60.102439614722961      10.091766399999999
   296   1   0.0      8.2435342631549382      61.685454664722961      9.9083476400000006
   297   2   0.0      7.2322644431549392      60.103932874722958      8.3820347399999999
   298   2   0.0      10.150905923154939      61.686853394722959      8.4343444499999993
   299   2   0.0      6.4990753131549397      61.686951184722957      11.617906899999999
   300   2   0.0      9.0682593431549385      60.103838164722958      11.565599499999999
   301   1   0.0      5.4878110031549392        63.2657259102347      10.091766399999999
   302   1   0.0      8.2435342631549382      64.848740960234693      9.9083476400000006
   303   2   0.0      7.2322644431549392      63.267219170234696      8.3820347399999999
   304   2   0.0      10.150905923154939      64.850139690234698      8.4343444499999993
   305   2   0.0      6.4990753131549397      64.850237480234696      11.617906899999999
   306   2   0.0      9.0682593431549385      63.267124460234697      11.565599499999999
   307   1   0.0      5.4878110031549392      66.429012205746432      10.091766399999999
   308   1   0.0      8.2435342631549382      68.012027255746432      9.9083476400000006
   309   2   0.0      7.2322644431549392      66.430505465746435      8.3820347399999999
   310   2   0.0      10.150905923154939      68.013425985746437      8.4343444499999993
   311   2   0.0      6.4990753131549397      68.013523775746435      11.617906899999999
   312   2   0.0      9.0682593431549385      66.430410755746436      11.565599499999999
   313   1   0.0      5.4878110031549392      69.592298501258171      10.091766399999999
   314   1   0.0      8.2435342631549382      71.175313551258171      9.9083476400000006
   315   2   0.0      7.2322644431549392      69.593791761258174      8.3820347399999999
   316   2   0.0      10.150905923154939      71.176712281258176      8.4343444499999993
   317   2   0.0      6.4990753131549397      71.176810071258174      11.617906899999999
   318   2   0.0      9.0682593431549385      69.593697051258175      11.565599499999999
   319   1   0.0      5.4878110031549392      72.755584796769909      10.091766399999999
   320   1   0.0      8.2435342631549382       74.33859984676991      9.9083476400000006
   321   2   0.0      7.2322644431549392      72.757078056769913      8.3820347399999999
   322   2   0.0      10.150905923154939      74.339998576769915      8.4343444499999993
   323   2   0.0      6.4990753131549397      74.340096366769913      11.617906899999999
   324   2   0.0      9.0682593431549385      72.756983346769914      11.565599499999999
   325   1   0.0      5.4878110031549392      75.918871092281634      10.091766399999999
   326   1   0.0      8.2435342631549382      77.501886142281634      9.9083476400000006
   327   2   0.0      7.2322644431549392      75.920364352281638      8.3820347399999999
   328   2   0.0      10.150905923154939       77.50328487228164      8.4343444499999993
   329   2   0.0      6.4990753131549397      77.503382662281638      11.617906899999999
   330   2   0.0      9.0682593431549385      75.920269642281639      11.565599499999999
   331   1   0.0      5.4878110031549392      79.082157387793373      10.091766399999999
   332   1   0.0      8.2435342631549382      80.665172437793373      9.9083476400000006
   333   2   0.0      7.2322644431549392      79.083650647793377      8.3820347399999999
   334   2   0.0      10.150905923154939      80.666571167793379      8.4343444499999993
   335   2   0.0      6.4990753131549397      80.666668957793377      11.617906899999999