LAMMPS (29 Sep 2021)
Processor partition = 1
Reading data file ...
  orthogonal box = (0.0000000 0.0000000 0.0000000) to (252.43931 94.898589 20.000000)
  8 by 2 by 1 MPI processor grid
  reading atoms ...
  8280 atoms
  read_data CPU = 0.051 seconds

CITE-CITE-CITE-CITE-CITE-CITE-CITE-CITE-CITE-CITE-CITE-CITE-CITE

Your simulation uses code contributions which should be cited:
- pair reaxff command:
- fix qeq/reaxff command:
The log file lists these citations in BibTeX format.

CITE-CITE-CITE-CITE-CITE-CITE-CITE-CITE-CITE-CITE-CITE-CITE-CITE

WARNING: Using 'neigh_modify every 1 delay 0 check yes' setting during minimization (../min.cpp:188)
Neighbor list info ...
  update every 1 steps, delay 0 steps, check yes
  max neighbors/atom: 2000, page size: 100000
  master list distance cutoff = 12
  ghost atom cutoff = 12
  binsize = 6, bins = 43 16 1
  2 neighbor lists, perpetual/occasional/extra = 2 0 0
  (1) pair reaxff, perpetual
      attributes: half, newton off, ghost
      pair build: half/bin/newtoff/ghost
      stencil: full/ghost/bin/3d
      bin: standard
  (2) fix qeq/reaxff, perpetual, copy from (1)
      attributes: half, newton off, ghost
      pair build: copy
      stencil: none
      bin: none
Setting up cg style minimization ...
  Unit style    : real
  Current step  : 0
WARNING: Energy due to 3 extra global DOFs will be included in minimizer energies
Per MPI rank memory allocation (min/avg/max) = 28.72 | 28.74 | 28.76 Mbytes
Step PotEng Lx Ly Lz Pxx Pyy Pzz Press 
       0   -927592.51    252.43931    94.898589    3.2398722    263.22187   -182.53557   -487.14416   -135.48595 
      10   -927600.17    252.44442     94.89767    3.2400857    8.7612198   -11.978463   -503.34046   -168.85257 
      20    -927601.1     252.4492      94.8971    3.2402204    -160.8388    60.138171   -433.81493   -178.17185 
      30   -927601.73    252.44938    94.897347    3.2403317   -88.796802     35.30265   -432.96278   -162.15231 
      40   -927602.29    252.45055    94.897434    3.2404364   -79.223635    30.880386   -414.81633   -154.38653 
      50   -927602.79    252.45177    94.897505    3.2405366   -76.583265     29.73946   -396.19145   -147.67842 
      60   -927603.26    252.45286     94.89759    3.2406325    -70.71146    27.852646   -379.72335   -140.86072 
      70   -927603.68    252.45383    94.897687    3.2407241    -62.41421    25.170887   -364.91945   -134.05426 
      80   -927604.07    252.45473    94.897791    3.2408115   -53.651302    21.996236   -351.00812    -127.5544 
      90   -927604.42    252.45563    94.897889     3.240895   -48.312269    19.926726   -336.74591   -121.71048 
     100   -927604.75    252.45651     94.89798    3.2409751   -45.123087    18.968475   -322.71157   -116.28873 
     110   -927605.04    252.45736    94.898073    3.2410516   -42.913443    17.688516    -308.7808   -111.33524 
     120   -927605.32    252.45816    94.898165    3.2411254   -39.634659      16.8417   -296.02589   -106.27295 
     130   -927605.57    252.45892    94.898258    3.2411958   -37.621543    15.586114   -283.08901   -101.70815 
     140    -927605.8    252.45964    94.898349     3.241264   -34.772478    14.715937   -271.04566   -97.034069 
     150   -927606.01    252.46034    94.898439    3.2413291    -32.83574      13.8502   -259.12739    -92.70431 
Loop time of 9.93631 on 16 procs for 150 steps with 8280 atoms

99.7% CPU use with 16 MPI tasks x no OpenMP threads

Minimization stats:
  Stopping criterion = energy tolerance
  Energy initial, next-to-last, final = 
      -927592.51395462  -927606.011729357  -927606.011675674
  Force two-norm initial, final = 400.71979 49.008029
  Force max component initial, final = 297.94937 37.167780
  Final line search alpha, max atom move = 0.00057860582 0.021505494
  Iterations, force evaluations = 150 300

MPI task timing breakdown:
Section |  min time  |  avg time  |  max time  |%varavg| %total
---------------------------------------------------------------
Pair    | 6.0386     | 7.5956     | 8.2206     |  22.5 | 76.44
Neigh   | 0.45469    | 0.5061     | 0.54371    |   3.7 |  5.09
Comm    | 0.03015    | 0.58881    | 2.305      |  88.5 |  5.93
Output  | 0.00065336 | 0.00067686 | 0.00076627 |   0.0 |  0.01
Modify  | 1.0006     | 1.0401     | 1.0902     |   2.5 | 10.47
Other   |            | 0.205      |            |       |  2.06

Nlocal:        517.500 ave         525 max         510 min
Histogram: 8 0 0 0 0 0 0 0 0 8
Nghost:        855.000 ave         863 max         847 min
Histogram: 8 0 0 0 0 0 0 0 0 8
Neighs:        48525.0 ave       49147 max       47903 min
Histogram: 8 0 0 0 0 0 0 0 0 8

Total # of neighbors = 776400
Ave neighs/atom = 93.768116
Neighbor list builds = 253
Dangerous builds = 235
WARNING: Using 'neigh_modify every 1 delay 0 check yes' setting during minimization (../min.cpp:188)
Setting up quickmin style minimization ...
  Unit style    : real
  Current step  : 0
Per MPI rank memory allocation (min/avg/max) = 28.62 | 28.64 | 28.66 Mbytes
Step PotEng Lx Ly Lz Pxx Pyy Pzz Press 
       0   -850418.42    252.46034    94.898439    3.2371122     403624.6   -86214.408    288428.65    201946.28 
      10   -852534.45    252.46034    94.898439    3.2371122    371798.44   -104328.57    315299.23    194256.37 
      20   -858674.05    252.46034    94.898439    3.2371122    279400.29   -143635.42    376474.73    170746.53 
      30   -866399.48    252.46034    94.898439    3.2371122    186035.54   -138508.39    368781.67     138769.6 
      40   -872552.98    252.46034    94.898439    3.2371122    170395.63    -60631.49    250670.73    120144.96 
      50   -877344.28    252.46034    94.898439    3.2371122    227726.69    51329.359    94884.022    124646.69 
      60   -881141.27    252.46034    94.898439    3.2371122    299351.77    140778.25   -12771.045    142452.99 
      70   -883973.94    252.46034    94.898439    3.2371122    326347.18    182866.76   -30724.416    159496.51 
      80   -887156.99    252.46034    94.898439    3.2371122    355927.18    231360.15   -4839.0202    194149.44 
      90   -892218.87    252.46034    94.898439    3.2371122    385934.64    317645.07    28675.473    244085.06 
     100   -897696.83    252.46034    94.898439    3.2371122    385608.28    351877.12    32939.881    256808.43 
     110   -899288.13    252.46034    94.898439    3.2371122    348840.36    294891.93   -63484.878    193415.81 
     120   -900211.46    252.46034    94.898439    3.2371122    341571.26    299745.33   -55513.188     195267.8 
     130   -900945.61    252.46034    94.898439    3.2371122    335329.93    304518.01   -47307.777    197513.39 
     140   -901498.52    252.46034    94.898439    3.2371122    330320.93    310440.44   -38192.931    200856.15 
     150   -901853.02    252.46034    94.898439    3.2371122    325427.71    314782.18   -37299.064    200970.27 
     160   -902023.91    252.46034    94.898439    3.2371122    323206.59    317469.08   -36028.481    201549.06 
     170   -902168.37    252.46034    94.898439    3.2371122    321904.02    321987.33   -33125.043    203588.77 
     180   -902255.75    252.46034    94.898439    3.2371122    320779.93    324633.43   -32970.016    204147.78 
     190      -902322    252.46034    94.898439    3.2371122    320491.26    327678.15   -31767.411    205467.33 
     200   -902382.15    252.46034    94.898439    3.2371122    320332.87    330917.36   -30961.645    206762.86 
     210   -902440.17    252.46034    94.898439    3.2371122    320348.24    334326.51   -30393.633     208093.7 
     220   -902497.65    252.46034    94.898439    3.2371122    320537.01    337740.06   -30011.007    209422.02 
     230   -902553.49    252.46034    94.898439    3.2371122    320845.09    340908.41   -29799.256    210651.42 
     240   -902604.95    252.46034    94.898439    3.2371122    321216.95    343663.68   -29661.918    211739.57 
     250   -902648.63    252.46034    94.898439    3.2371122    321583.53    345861.18   -29588.057    212618.88 
     260   -902687.67    252.46034    94.898439    3.2371122    322046.02    347750.77   -29407.287    213463.17 
     270   -902721.68    252.46034    94.898439    3.2371122     322410.3    349255.34   -29275.568    214130.02 
     280   -902752.19    252.46034    94.898439    3.2371122    322855.87    350622.42   -29044.288    214811.33 
     290    -902785.8    252.46034    94.898439    3.2371122    323319.91    352020.07   -28787.306    215517.56 
     300    -902814.4    252.46034    94.898439    3.2371122     323666.2    353079.13   -28582.727     216054.2 
     310   -902841.99    252.46034    94.898439    3.2371122    324082.27    354146.45   -28289.051    216646.55 
     320   -902870.06    252.46034    94.898439    3.2371122    324432.38    355085.45    -28013.51    217168.11 
     330   -902896.14    252.46034    94.898439    3.2371122    324713.48    355857.82   -27752.037    217606.42 
     340   -902920.53    252.46034    94.898439    3.2371122    324926.59    356484.86   -27522.308    217963.05 
     350   -902943.84    252.46034    94.898439    3.2371122    325069.19     356974.3    -27322.21    218240.42 
     360   -902965.14    252.46034    94.898439    3.2371122    325116.65    357245.17   -27172.836    218396.33 
     370   -902981.95    252.46034    94.898439    3.2371122       325091    357308.14   -27081.493    218439.22 
     380   -902996.11    252.46034    94.898439    3.2371122     325093.8    357454.66   -27001.889    218515.52 
     390   -903011.69    252.46034    94.898439    3.2371122    325111.73    357675.07   -26918.517    218622.76 
     400   -903029.14    252.46034    94.898439    3.2371122    325114.63    357874.99   -26835.567    218718.02 
     410   -903048.25    252.46034    94.898439    3.2371122    325120.51    358072.14    -26761.04    218810.53 
     420   -903069.58    252.46034    94.898439    3.2371122    325158.37    358281.72   -26690.231    218916.62 
     430   -903093.14    252.46034    94.898439    3.2371122    325209.78    358281.74   -26646.008    218948.51 
     440    -903112.8    252.46034    94.898439    3.2371122       325332    358181.76   -26641.171    218957.53 
     450   -903137.46    252.46034    94.898439    3.2371122    325702.74    358336.04   -26603.402    219145.13 
     460   -903181.04    252.46034    94.898439    3.2371122    326455.22    358695.06     -26485.1    219555.06 
     470   -903250.41    252.46034    94.898439    3.2371122    326862.51    358226.85   -26487.643    219533.91 
     480   -903277.29    252.46034    94.898439    3.2371122    326285.43    357769.81   -26804.098    219083.71 
     490   -903293.36    252.46034    94.898439    3.2371122    325872.11    357823.68   -26773.727    218974.02 
     500   -903308.88    252.46034    94.898439    3.2371122    325577.18    357848.39   -26707.835    218905.91 
     510   -903323.85    252.46034    94.898439    3.2371122    325337.79    357838.43   -26646.754    218843.16 
     520   -903338.56    252.46034    94.898439    3.2371122    325173.44    357821.42    -26592.29    218800.86 
     530    -903354.6    252.46034    94.898439    3.2371122    325099.07    357864.35   -26540.706    218807.57 
     540   -903373.36    252.46034    94.898439    3.2371122    325048.01    357884.45   -26495.751    218812.24 
     550   -903393.62    252.46034    94.898439    3.2371122    324996.36    357879.75   -26465.574    218803.51 
     560   -903417.39    252.46034    94.898439    3.2371122    325003.44    358001.11   -26398.839    218868.57 
     570   -903446.39    252.46034    94.898439    3.2371122    324963.56    357995.18   -26351.993    218868.91 
     580   -903474.72    252.46034    94.898439    3.2371122    324740.19     357815.1   -26370.382     218728.3 
     590   -903499.65    252.46034    94.898439    3.2371122    324482.27    357674.89   -26357.155       218600 
     600   -903523.64    252.46034    94.898439    3.2371122    324213.84    357511.74   -26351.643    218457.98 
     610   -903544.49    252.46034    94.898439    3.2371122    323924.19     357325.7   -26356.587    218297.77 
     620      -903559    252.46034    94.898439    3.2371122    323569.84    357111.61   -26358.987    218107.49 
     630   -903566.95    252.46034    94.898439    3.2371122    323255.21    357029.37   -26326.241    217986.11 
     640   -903572.89    252.46034    94.898439    3.2371122    323024.46    356994.16   -26287.032    217910.53 
     650   -903577.87    252.46034    94.898439    3.2371122    322842.06    356958.34   -26245.347    217851.68 
     660   -903582.15    252.46034    94.898439    3.2371122    322688.47    356922.33    -26199.82    217803.66 
     670   -903585.89    252.46034    94.898439    3.2371122    322553.08    356882.46   -26163.652     217757.3 
     680   -903589.28    252.46034    94.898439    3.2371122    322430.03     356842.7   -26128.228    217714.84 
     690   -903592.38    252.46034    94.898439    3.2371122    322316.12    356801.98   -26094.038    217674.69 
     691   -903592.68    252.46034    94.898439    3.2371122    322305.24    356797.96   -26091.017    217670.73 
Loop time of 25.1292 on 16 procs for 691 steps with 8280 atoms

99.7% CPU use with 16 MPI tasks x no OpenMP threads

Minimization stats:
  Stopping criterion = energy tolerance
  Energy initial, next-to-last, final = 
     -850418.415098334  -903592.380593944  -903592.675448801
  Force two-norm initial, final = 10098.746 75.886267
  Force max component initial, final = 179.70861 5.1200718
  Final line search alpha, max atom move = 0.0000000 0.0000000
  Iterations, force evaluations = 691 691

MPI task timing breakdown:
Section |  min time  |  avg time  |  max time  |%varavg| %total
---------------------------------------------------------------
Pair    | 15.309     | 19.455     | 21.37      |  38.3 | 77.42
Neigh   | 0          | 0          | 0          |   0.0 |  0.00
Comm    | 0.043557   | 1.5611     | 6.1678     | 145.4 |  6.21
Output  | 0.12392    | 0.12402    | 0.12453    |   0.0 |  0.49
Modify  | 3.1304     | 3.5912     | 4.2353     |  19.4 | 14.29
Other   |            | 0.398      |            |       |  1.58

Nlocal:        517.500 ave         525 max         510 min
Histogram: 8 0 0 0 0 0 0 0 0 8
Nghost:        849.500 ave         863 max         825 min
Histogram: 4 0 0 0 0 0 4 0 0 8
Neighs:        48992.0 ave       49614 max       48370 min
Histogram: 8 0 0 0 0 0 0 0 0 8

Total # of neighbors = 783872
Ave neighs/atom = 94.670531
Neighbor list builds = 0
Dangerous builds = 0
WARNING: Using 'neigh_modify every 1 delay 0 check yes' setting during minimization (../min.cpp:188)
Setting up quickmin style minimization ...
  Unit style    : real
  Current step  : 691
Per MPI rank memory allocation (min/avg/max) = 28.63 | 28.65 | 28.67 Mbytes
Step PotEng Lx Ly Lz Pxx Pyy Pzz Press 
     691   -903592.67    252.46034    94.898439    3.1329758    333018.28    368657.48   -26958.005    224905.92 
     697   -903592.74    252.46034    94.898439    3.1329758    333006.83    368643.64   -26960.787    224896.56 
Loop time of 0.248145 on 16 procs for 6 steps with 8280 atoms

99.4% CPU use with 16 MPI tasks x no OpenMP threads

Minimization stats:
  Stopping criterion = energy tolerance
  Energy initial, next-to-last, final = 
     -903592.674945303  -903592.715554921  -903592.735021731
  Force two-norm initial, final = 75.884864 75.889830
  Force max component initial, final = 5.1200767 5.1193246
  Final line search alpha, max atom move = 0.0000000 0.0000000
  Iterations, force evaluations = 6 6

MPI task timing breakdown:
Section |  min time  |  avg time  |  max time  |%varavg| %total
---------------------------------------------------------------
Pair    | 0.16289    | 0.20169    | 0.21746    |   3.8 | 81.28
Neigh   | 0          | 0          | 0          |   0.0 |  0.00
Comm    | 0.00045638 | 0.014413   | 0.054951   |  14.7 |  5.81
Output  | 0          | 0          | 0          |   0.0 |  0.00
Modify  | 0.028145   | 0.029963   | 0.034632   |   1.4 | 12.07
Other   |            | 0.002076   |            |       |  0.84

Nlocal:        517.500 ave         525 max         510 min
Histogram: 8 0 0 0 0 0 0 0 0 8
Nghost:        843.750 ave         863 max         825 min
Histogram: 6 0 0 2 0 2 0 0 0 6
Neighs:        49452.5 ave       50177 max       48729 min
Histogram: 8 0 0 0 0 0 0 0 2 6

Total # of neighbors = 791240
Ave neighs/atom = 95.560386
Neighbor list builds = 0
Dangerous builds = 0
Total wall time: 0:00:36
