
     Program PWSCF v.6.6 starts on  9May2023 at 13:40:27 

     This program is part of the open-source Quantum ESPRESSO suite
     for quantum simulation of materials; please cite
         "P. Giannozzi et al., J. Phys.:Condens. Matter 21 395502 (2009);
         "P. Giannozzi et al., J. Phys.:Condens. Matter 29 465901 (2017);
          URL http://www.quantum-espresso.org", 
     in publications or presentations arising from this work. More details at
     http://www.quantum-espresso.org/quote

     Parallel version (MPI), running on    24 processors

     MPI processes distributed on     1 nodes
     R & G space division:  proc/nbgrp/npool/nimage =      24
     Fft bands division:     nmany     =       1
     Reading input from INCAR-nscf.pw

     Current dimensions of program PWSCF are:
     Max number of different atomic species (ntypx) = 10
     Max number of k-points (npk) =  40000
     Max angular momentum in pseudopotentials (lmaxx) =  3

     Atomic positions and unit cell read from directory:
     ./wfc-out/bi2se3.save/
     Atomic positions from file used, from input discarded
 

     Subspace diagonalization in iterative solution of the eigenvalue problem:
     a serial algorithm will be used

     Message from routine setup:
     using ibrav=0 with symmetry is DISCOURAGED, use correct ibrav instead
 
     Parallelization info
     --------------------
     sticks:   dense  smooth     PW     G-vecs:    dense   smooth      PW
     Min          84      56     17                 7066     3843     647
     Max          85      57     18                 7075     3854     653
     Sum        2029    1345    421               169655    92305   15597
 


     bravais-lattice index     =            0
     lattice parameter (alat)  =       7.8197  a.u.
     unit-cell volume          =     955.3447 (a.u.)^3
     number of atoms/cell      =            5
     number of atomic types    =            2
     number of electrons       =       118.00
     number of Kohn-Sham states=          142
     kinetic-energy cutoff     =      80.0000  Ry
     charge density cutoff     =     480.0000  Ry
     Exchange-correlation= PBESOL
                           (   1   4  10   8   0   0   0)
     Non magnetic calculation with spin-orbit


     celldm(1)=   7.819688  celldm(2)=   0.000000  celldm(3)=   0.000000
     celldm(4)=   0.000000  celldm(5)=   0.000000  celldm(6)=   0.000000

     crystal axes: (cart. coord. in units of alat)
               a(1) = (  -0.500000  -0.866025   0.000000 )  
               a(2) = (   0.500000  -0.866025   0.000000 )  
               a(3) = (   0.000000   0.577350   2.307072 )  

     reciprocal axes: (cart. coord. in units 2 pi/alat)
               b(1) = ( -1.000000 -0.577350  0.144483 )  
               b(2) = (  1.000000 -0.577350  0.144483 )  
               b(3) = (  0.000000  0.000000  0.433450 )  


     PseudoPot. # 1 for Bi read from file:
     ./Bi.NC.FR.PBEsol.stringent.UPF
     MD5 check sum: 152c0073ae87c027bffe5b7893bf94e2
     Pseudo is Norm-conserving + core correction, Zval = 23.0
     Generated using ONCVPSP code by D. R. Hamann
     Using radial grid of 1562 points, 10 beta functions with: 
                l(1) =   0
                l(2) =   0
                l(3) =   1
                l(4) =   1
                l(5) =   1
                l(6) =   1
                l(7) =   2
                l(8) =   2
                l(9) =   2
               l(10) =   2

     PseudoPot. # 2 for Se read from file:
     ./Se.NC.FR.PBEsol.stringent.UPF
     MD5 check sum: 1272e4bed61b725e968c377fde61d6be
     Pseudo is Norm-conserving + core correction, Zval = 24.0
     Generated using ONCVPSP code by D. R. Hamann
     Using radial grid of 1214 points, 10 beta functions with: 
                l(1) =   0
                l(2) =   0
                l(3) =   1
                l(4) =   1
                l(5) =   1
                l(6) =   1
                l(7) =   2
                l(8) =   2
                l(9) =   2
               l(10) =   2

     atomic species   valence    mass     pseudopotential
        Bi            23.00   208.98040     Bi( 1.00)
        Se            24.00    78.96000     Se( 1.00)

     12 Sym. Ops., with inversion, found ( 8 have fractional translation)


                                    s                        frac. trans.

      isym =  1     identity                                     

 cryst.   s( 1) = (     1          0          0      )
                  (     0          1          0      )
                  (     0          0          1      )

 cart.    s( 1) = (  1.0000000  0.0000000  0.0000000 )
                  (  0.0000000  1.0000000 -0.0000000 )
                  (  0.0000000  0.0000000  1.0000000 )


      isym =  2     180 deg rotation - cart. axis [1,0,0]        

 cryst.   s( 2) = (     0         -1          0      )
                  (    -1          0          0      )
                  (     0          0         -1      )

 cart.    s( 2) = (  1.0000000  0.0000000  0.0000000 )
                  (  0.0000000 -1.0000000  0.0000000 )
                  (  0.0000000  0.0000000 -1.0000000 )


      isym =  3     120 deg rotation - cryst. axis [0,0,1]       

 cryst.   s( 3) = (    -1          1          0      )    f =(  0.5000000 )
                  (    -1          0          0      )       (  0.0000000 )
                  (     1          0          1      )       (  0.0000000 )

 cart.    s( 3) = ( -0.5000000 -0.8660252 -0.0000001 )    f =( -0.2500000 )
                  (  0.8660256 -0.5000000 -0.0000002 )       ( -0.4330127 )
                  (  0.0000000  0.0000000  1.0000000 )       (  0.0000000 )


      isym =  4     120 deg rotation - cryst. axis [0,0,-1]      

 cryst.   s( 4) = (     0         -1          0      )    f =(  0.0000000 )
                  (     1         -1          0      )       (  0.5000000 )
                  (     0          1          1      )       (  0.0000000 )

 cart.    s( 4) = ( -0.5000000  0.8660252  0.0000001 )    f =(  0.2500000 )
                  ( -0.8660256 -0.5000000 -0.0000002 )       ( -0.4330127 )
                  (  0.0000000  0.0000000  1.0000000 )       (  0.0000000 )


      isym =  5     180 deg rotation - cryst. axis [0,1,0]       

 cryst.   s( 5) = (    -1          1          0      )    f =(  0.0000000 )
                  (     0          1          0      )       (  0.5000000 )
                  (     0         -1         -1      )       (  0.0000000 )

 cart.    s( 5) = ( -0.5000000 -0.8660252 -0.0000001 )    f =(  0.2500000 )
                  ( -0.8660256  0.5000000  0.0000002 )       ( -0.4330127 )
                  (  0.0000000  0.0000000 -1.0000000 )       (  0.0000000 )


      isym =  6     180 deg rotation - cryst. axis [1,1,0]       

 cryst.   s( 6) = (     1          0          0      )    f =(  0.5000000 )
                  (     1         -1          0      )       (  0.0000000 )
                  (    -1          0         -1      )       (  0.0000000 )

 cart.    s( 6) = ( -0.5000000  0.8660252  0.0000001 )    f =( -0.2500000 )
                  (  0.8660256  0.5000000  0.0000002 )       ( -0.4330127 )
                  (  0.0000000  0.0000000 -1.0000000 )       (  0.0000000 )


      isym =  7     inversion                                    

 cryst.   s( 7) = (    -1          0          0      )
                  (     0         -1          0      )
                  (     0          0         -1      )

 cart.    s( 7) = ( -1.0000000  0.0000000  0.0000000 )
                  (  0.0000000 -1.0000000  0.0000000 )
                  (  0.0000000  0.0000000 -1.0000000 )


      isym =  8     inv. 180 deg rotation - cart. axis [1,0,0]   

 cryst.   s( 8) = (     0          1          0      )
                  (     1          0          0      )
                  (     0          0          1      )

 cart.    s( 8) = ( -1.0000000  0.0000000  0.0000000 )
                  (  0.0000000  1.0000000 -0.0000000 )
                  (  0.0000000  0.0000000  1.0000000 )


      isym =  9     inv. 120 deg rotation - cryst. axis [0,0,1]  

 cryst.   s( 9) = (     1         -1          0      )    f =(  0.5000000 )
                  (     1          0          0      )       (  0.0000000 )
                  (    -1          0         -1      )       (  0.0000000 )

 cart.    s( 9) = (  0.5000000  0.8660252  0.0000001 )    f =( -0.2500000 )
                  ( -0.8660256  0.5000000  0.0000002 )       ( -0.4330127 )
                  (  0.0000000  0.0000000 -1.0000000 )       (  0.0000000 )


      isym = 10     inv. 120 deg rotation - cryst. axis [0,0,-1] 

 cryst.   s(10) = (     0          1          0      )    f =(  0.0000000 )
                  (    -1          1          0      )       (  0.5000000 )
                  (     0         -1         -1      )       (  0.0000000 )

 cart.    s(10) = (  0.5000000 -0.8660252 -0.0000001 )    f =(  0.2500000 )
                  (  0.8660256  0.5000000  0.0000002 )       ( -0.4330127 )
                  (  0.0000000  0.0000000 -1.0000000 )       (  0.0000000 )


      isym = 11     inv. 180 deg rotation - cryst. axis [0,1,0]  

 cryst.   s(11) = (     1         -1          0      )    f =(  0.0000000 )
                  (     0         -1          0      )       (  0.5000000 )
                  (     0          1          1      )       (  0.0000000 )

 cart.    s(11) = (  0.5000000  0.8660252  0.0000001 )    f =(  0.2500000 )
                  (  0.8660256 -0.5000000 -0.0000002 )       ( -0.4330127 )
                  (  0.0000000  0.0000000  1.0000000 )       (  0.0000000 )


      isym = 12     inv. 180 deg rotation - cryst. axis [1,1,0]  

 cryst.   s(12) = (    -1          0          0      )    f =(  0.5000000 )
                  (    -1          1          0      )       (  0.0000000 )
                  (     1          0          1      )       (  0.0000000 )

 cart.    s(12) = (  0.5000000 -0.8660252 -0.0000001 )    f =( -0.2500000 )
                  ( -0.8660256 -0.5000000 -0.0000002 )       ( -0.4330127 )
                  (  0.0000000  0.0000000  1.0000000 )       (  0.0000000 )


   Cartesian axes

     site n.     atom                  positions (alat units)
         1           Bi  tau(   1) = (   0.0000000  -0.2886753   1.6080294  )
         2           Bi  tau(   2) = (   0.0000000  -0.8660255   0.6990429  )
         3           Se  tau(   3) = (   0.0000000   0.2886750   1.1535362  )
         4           Se  tau(   4) = (   0.0000000  -0.2886752   0.2722345  )
         5           Se  tau(   5) = (   0.0000000  -0.8660257   2.0348378  )

   Crystallographic axes

     site n.     atom                  positions (cryst. coord.)
         1           Bi  tau(   1) = (  0.3990000  0.3990000  0.6970000  )
         2           Bi  tau(   2) = (  0.6010000  0.6010000  0.3030000  )
         3           Se  tau(   3) = ( -0.0000000 -0.0000000  0.5000000  )
         4           Se  tau(   4) = (  0.2060000  0.2060000  0.1180000  )
         5           Se  tau(   5) = (  0.7940000  0.7940000  0.8820000  )

     number of k points=   288  Marzari-Vanderbilt smearing, width (Ry)=  0.0073
                       cart. coord. in units 2pi/alat
        k(    1) = (   0.0000000   0.0000000   0.0000000), wk =   0.0034722
        k(    2) = (   0.0000000   0.0000000   0.2167249), wk =   0.0034722
        k(    3) = (   0.0833333  -0.0481125   0.0120403), wk =   0.0034722
        k(    4) = (   0.0833333  -0.0481125   0.2287652), wk =   0.0034722
        k(    5) = (   0.1666667  -0.0962250   0.0240805), wk =   0.0034722
        k(    6) = (   0.1666667  -0.0962250   0.2408054), wk =   0.0034722
        k(    7) = (   0.2500000  -0.1443376   0.0361208), wk =   0.0034722
        k(    8) = (   0.2500000  -0.1443376   0.2528457), wk =   0.0034722
        k(    9) = (   0.3333334  -0.1924501   0.0481611), wk =   0.0034722
        k(   10) = (   0.3333334  -0.1924501   0.2648860), wk =   0.0034722
        k(   11) = (   0.4166667  -0.2405626   0.0602013), wk =   0.0034722
        k(   12) = (   0.4166667  -0.2405626   0.2769262), wk =   0.0034722
        k(   13) = (   0.5000001  -0.2886751   0.0722416), wk =   0.0034722
        k(   14) = (   0.5000001  -0.2886751   0.2889665), wk =   0.0034722
        k(   15) = (   0.5833334  -0.3367876   0.0842819), wk =   0.0034722
        k(   16) = (   0.5833334  -0.3367876   0.3010068), wk =   0.0034722
        k(   17) = (   0.6666668  -0.3849002   0.0963221), wk =   0.0034722
        k(   18) = (   0.6666668  -0.3849002   0.3130470), wk =   0.0034722
        k(   19) = (   0.7500001  -0.4330127   0.1083624), wk =   0.0034722
        k(   20) = (   0.7500001  -0.4330127   0.3250873), wk =   0.0034722
        k(   21) = (   0.8333335  -0.4811252   0.1204027), wk =   0.0034722
        k(   22) = (   0.8333335  -0.4811252   0.3371276), wk =   0.0034722
        k(   23) = (   0.9166668  -0.5292377   0.1324429), wk =   0.0034722
        k(   24) = (   0.9166668  -0.5292377   0.3491678), wk =   0.0034722
        k(   25) = (  -0.0833333  -0.0481125   0.0120403), wk =   0.0034722
        k(   26) = (  -0.0833333  -0.0481125   0.2287652), wk =   0.0034722
        k(   27) = (   0.0000000  -0.0962250   0.0240805), wk =   0.0034722
        k(   28) = (   0.0000000  -0.0962250   0.2408054), wk =   0.0034722
        k(   29) = (   0.0833334  -0.1443376   0.0361208), wk =   0.0034722
        k(   30) = (   0.0833334  -0.1443376   0.2528457), wk =   0.0034722
        k(   31) = (   0.1666667  -0.1924501   0.0481611), wk =   0.0034722
        k(   32) = (   0.1666667  -0.1924501   0.2648860), wk =   0.0034722
        k(   33) = (   0.2500000  -0.2405626   0.0602013), wk =   0.0034722
        k(   34) = (   0.2500000  -0.2405626   0.2769262), wk =   0.0034722
        k(   35) = (   0.3333334  -0.2886751   0.0722416), wk =   0.0034722
        k(   36) = (   0.3333334  -0.2886751   0.2889665), wk =   0.0034722
        k(   37) = (   0.4166667  -0.3367876   0.0842819), wk =   0.0034722
        k(   38) = (   0.4166667  -0.3367876   0.3010068), wk =   0.0034722
        k(   39) = (   0.5000001  -0.3849002   0.0963221), wk =   0.0034722
        k(   40) = (   0.5000001  -0.3849002   0.3130470), wk =   0.0034722
        k(   41) = (   0.5833334  -0.4330127   0.1083624), wk =   0.0034722
        k(   42) = (   0.5833334  -0.4330127   0.3250873), wk =   0.0034722
        k(   43) = (   0.6666668  -0.4811252   0.1204027), wk =   0.0034722
        k(   44) = (   0.6666668  -0.4811252   0.3371276), wk =   0.0034722
        k(   45) = (   0.7500001  -0.5292377   0.1324429), wk =   0.0034722
        k(   46) = (   0.7500001  -0.5292377   0.3491678), wk =   0.0034722
        k(   47) = (   0.8333335  -0.5773502   0.1444832), wk =   0.0034722
        k(   48) = (   0.8333335  -0.5773502   0.3612081), wk =   0.0034722
        k(   49) = (  -0.1666667  -0.0962250   0.0240805), wk =   0.0034722
        k(   50) = (  -0.1666667  -0.0962250   0.2408054), wk =   0.0034722
        k(   51) = (  -0.0833334  -0.1443376   0.0361208), wk =   0.0034722
        k(   52) = (  -0.0833334  -0.1443376   0.2528457), wk =   0.0034722
        k(   53) = (   0.0000000  -0.1924501   0.0481611), wk =   0.0034722
        k(   54) = (   0.0000000  -0.1924501   0.2648860), wk =   0.0034722
        k(   55) = (   0.0833333  -0.2405626   0.0602013), wk =   0.0034722
        k(   56) = (   0.0833333  -0.2405626   0.2769262), wk =   0.0034722
        k(   57) = (   0.1666667  -0.2886751   0.0722416), wk =   0.0034722
        k(   58) = (   0.1666667  -0.2886751   0.2889665), wk =   0.0034722
        k(   59) = (   0.2500000  -0.3367876   0.0842819), wk =   0.0034722
        k(   60) = (   0.2500000  -0.3367876   0.3010068), wk =   0.0034722
        k(   61) = (   0.3333334  -0.3849002   0.0963221), wk =   0.0034722
        k(   62) = (   0.3333334  -0.3849002   0.3130470), wk =   0.0034722
        k(   63) = (   0.4166667  -0.4330127   0.1083624), wk =   0.0034722
        k(   64) = (   0.4166667  -0.4330127   0.3250873), wk =   0.0034722
        k(   65) = (   0.5000001  -0.4811252   0.1204027), wk =   0.0034722
        k(   66) = (   0.5000001  -0.4811252   0.3371276), wk =   0.0034722
        k(   67) = (   0.5833334  -0.5292377   0.1324429), wk =   0.0034722
        k(   68) = (   0.5833334  -0.5292377   0.3491678), wk =   0.0034722
        k(   69) = (   0.6666668  -0.5773502   0.1444832), wk =   0.0034722
        k(   70) = (   0.6666668  -0.5773502   0.3612081), wk =   0.0034722
        k(   71) = (   0.7500001  -0.6254628   0.1565235), wk =   0.0034722
        k(   72) = (   0.7500001  -0.6254628   0.3732484), wk =   0.0034722
        k(   73) = (  -0.2500000  -0.1443376   0.0361208), wk =   0.0034722
        k(   74) = (  -0.2500000  -0.1443376   0.2528457), wk =   0.0034722
        k(   75) = (  -0.1666667  -0.1924501   0.0481611), wk =   0.0034722
        k(   76) = (  -0.1666667  -0.1924501   0.2648860), wk =   0.0034722
        k(   77) = (  -0.0833333  -0.2405626   0.0602013), wk =   0.0034722
        k(   78) = (  -0.0833333  -0.2405626   0.2769262), wk =   0.0034722
        k(   79) = (   0.0000000  -0.2886751   0.0722416), wk =   0.0034722
        k(   80) = (   0.0000000  -0.2886751   0.2889665), wk =   0.0034722
        k(   81) = (   0.0833333  -0.3367876   0.0842819), wk =   0.0034722
        k(   82) = (   0.0833333  -0.3367876   0.3010068), wk =   0.0034722
        k(   83) = (   0.1666667  -0.3849002   0.0963221), wk =   0.0034722
        k(   84) = (   0.1666667  -0.3849002   0.3130470), wk =   0.0034722
        k(   85) = (   0.2500000  -0.4330127   0.1083624), wk =   0.0034722
        k(   86) = (   0.2500000  -0.4330127   0.3250873), wk =   0.0034722
        k(   87) = (   0.3333334  -0.4811252   0.1204027), wk =   0.0034722
        k(   88) = (   0.3333334  -0.4811252   0.3371276), wk =   0.0034722
        k(   89) = (   0.4166667  -0.5292377   0.1324429), wk =   0.0034722
        k(   90) = (   0.4166667  -0.5292377   0.3491678), wk =   0.0034722
        k(   91) = (   0.5000001  -0.5773502   0.1444832), wk =   0.0034722
        k(   92) = (   0.5000001  -0.5773502   0.3612081), wk =   0.0034722
        k(   93) = (   0.5833334  -0.6254628   0.1565235), wk =   0.0034722
        k(   94) = (   0.5833334  -0.6254628   0.3732484), wk =   0.0034722
        k(   95) = (   0.6666668  -0.6735753   0.1685637), wk =   0.0034722
        k(   96) = (   0.6666668  -0.6735753   0.3852886), wk =   0.0034722
        k(   97) = (  -0.3333334  -0.1924501   0.0481611), wk =   0.0034722
        k(   98) = (  -0.3333334  -0.1924501   0.2648860), wk =   0.0034722
        k(   99) = (  -0.2500000  -0.2405626   0.0602013), wk =   0.0034722
        k(  100) = (  -0.2500000  -0.2405626   0.2769262), wk =   0.0034722
        k(  101) = (  -0.1666667  -0.2886751   0.0722416), wk =   0.0034722
        k(  102) = (  -0.1666667  -0.2886751   0.2889665), wk =   0.0034722
        k(  103) = (  -0.0833333  -0.3367876   0.0842819), wk =   0.0034722
        k(  104) = (  -0.0833333  -0.3367876   0.3010068), wk =   0.0034722
        k(  105) = (   0.0000000  -0.3849002   0.0963221), wk =   0.0034722
        k(  106) = (   0.0000000  -0.3849002   0.3130470), wk =   0.0034722
        k(  107) = (   0.0833334  -0.4330127   0.1083624), wk =   0.0034722
        k(  108) = (   0.0833334  -0.4330127   0.3250873), wk =   0.0034722
        k(  109) = (   0.1666667  -0.4811252   0.1204027), wk =   0.0034722
        k(  110) = (   0.1666667  -0.4811252   0.3371276), wk =   0.0034722
        k(  111) = (   0.2500000  -0.5292377   0.1324429), wk =   0.0034722
        k(  112) = (   0.2500000  -0.5292377   0.3491678), wk =   0.0034722
        k(  113) = (   0.3333334  -0.5773502   0.1444832), wk =   0.0034722
        k(  114) = (   0.3333334  -0.5773502   0.3612081), wk =   0.0034722
        k(  115) = (   0.4166667  -0.6254628   0.1565235), wk =   0.0034722
        k(  116) = (   0.4166667  -0.6254628   0.3732484), wk =   0.0034722
        k(  117) = (   0.5000001  -0.6735753   0.1685637), wk =   0.0034722
        k(  118) = (   0.5000001  -0.6735753   0.3852886), wk =   0.0034722
        k(  119) = (   0.5833334  -0.7216878   0.1806040), wk =   0.0034722
        k(  120) = (   0.5833334  -0.7216878   0.3973289), wk =   0.0034722
        k(  121) = (  -0.4166667  -0.2405626   0.0602013), wk =   0.0034722
        k(  122) = (  -0.4166667  -0.2405626   0.2769262), wk =   0.0034722
        k(  123) = (  -0.3333334  -0.2886751   0.0722416), wk =   0.0034722
        k(  124) = (  -0.3333334  -0.2886751   0.2889665), wk =   0.0034722
        k(  125) = (  -0.2500000  -0.3367876   0.0842819), wk =   0.0034722
        k(  126) = (  -0.2500000  -0.3367876   0.3010068), wk =   0.0034722
        k(  127) = (  -0.1666667  -0.3849002   0.0963221), wk =   0.0034722
        k(  128) = (  -0.1666667  -0.3849002   0.3130470), wk =   0.0034722
        k(  129) = (  -0.0833334  -0.4330127   0.1083624), wk =   0.0034722
        k(  130) = (  -0.0833334  -0.4330127   0.3250873), wk =   0.0034722
        k(  131) = (   0.0000000  -0.4811252   0.1204027), wk =   0.0034722
        k(  132) = (   0.0000000  -0.4811252   0.3371276), wk =   0.0034722
        k(  133) = (   0.0833333  -0.5292377   0.1324429), wk =   0.0034722
        k(  134) = (   0.0833333  -0.5292377   0.3491678), wk =   0.0034722
        k(  135) = (   0.1666667  -0.5773502   0.1444832), wk =   0.0034722
        k(  136) = (   0.1666667  -0.5773502   0.3612081), wk =   0.0034722
        k(  137) = (   0.2500000  -0.6254628   0.1565235), wk =   0.0034722
        k(  138) = (   0.2500000  -0.6254628   0.3732484), wk =   0.0034722
        k(  139) = (   0.3333334  -0.6735753   0.1685637), wk =   0.0034722
        k(  140) = (   0.3333334  -0.6735753   0.3852886), wk =   0.0034722
        k(  141) = (   0.4166667  -0.7216878   0.1806040), wk =   0.0034722
        k(  142) = (   0.4166667  -0.7216878   0.3973289), wk =   0.0034722
        k(  143) = (   0.5000001  -0.7698003   0.1926443), wk =   0.0034722
        k(  144) = (   0.5000001  -0.7698003   0.4093692), wk =   0.0034722
        k(  145) = (  -0.5000001  -0.2886751   0.0722416), wk =   0.0034722
        k(  146) = (  -0.5000001  -0.2886751   0.2889665), wk =   0.0034722
        k(  147) = (  -0.4166667  -0.3367876   0.0842819), wk =   0.0034722
        k(  148) = (  -0.4166667  -0.3367876   0.3010068), wk =   0.0034722
        k(  149) = (  -0.3333334  -0.3849002   0.0963221), wk =   0.0034722
        k(  150) = (  -0.3333334  -0.3849002   0.3130470), wk =   0.0034722
        k(  151) = (  -0.2500000  -0.4330127   0.1083624), wk =   0.0034722
        k(  152) = (  -0.2500000  -0.4330127   0.3250873), wk =   0.0034722
        k(  153) = (  -0.1666667  -0.4811252   0.1204027), wk =   0.0034722
        k(  154) = (  -0.1666667  -0.4811252   0.3371276), wk =   0.0034722
        k(  155) = (  -0.0833333  -0.5292377   0.1324429), wk =   0.0034722
        k(  156) = (  -0.0833333  -0.5292377   0.3491678), wk =   0.0034722
        k(  157) = (   0.0000000  -0.5773502   0.1444832), wk =   0.0034722
        k(  158) = (   0.0000000  -0.5773502   0.3612081), wk =   0.0034722
        k(  159) = (   0.0833333  -0.6254628   0.1565235), wk =   0.0034722
        k(  160) = (   0.0833333  -0.6254628   0.3732484), wk =   0.0034722
        k(  161) = (   0.1666667  -0.6735753   0.1685637), wk =   0.0034722
        k(  162) = (   0.1666667  -0.6735753   0.3852886), wk =   0.0034722
        k(  163) = (   0.2500000  -0.7216878   0.1806040), wk =   0.0034722
        k(  164) = (   0.2500000  -0.7216878   0.3973289), wk =   0.0034722
        k(  165) = (   0.3333334  -0.7698003   0.1926443), wk =   0.0034722
        k(  166) = (   0.3333334  -0.7698003   0.4093692), wk =   0.0034722
        k(  167) = (   0.4166667  -0.8179128   0.2046845), wk =   0.0034722
        k(  168) = (   0.4166667  -0.8179128   0.4214094), wk =   0.0034722
        k(  169) = (  -0.5833334  -0.3367876   0.0842819), wk =   0.0034722
        k(  170) = (  -0.5833334  -0.3367876   0.3010068), wk =   0.0034722
        k(  171) = (  -0.5000001  -0.3849002   0.0963221), wk =   0.0034722
        k(  172) = (  -0.5000001  -0.3849002   0.3130470), wk =   0.0034722
        k(  173) = (  -0.4166667  -0.4330127   0.1083624), wk =   0.0034722
        k(  174) = (  -0.4166667  -0.4330127   0.3250873), wk =   0.0034722
        k(  175) = (  -0.3333334  -0.4811252   0.1204027), wk =   0.0034722
        k(  176) = (  -0.3333334  -0.4811252   0.3371276), wk =   0.0034722
        k(  177) = (  -0.2500000  -0.5292377   0.1324429), wk =   0.0034722
        k(  178) = (  -0.2500000  -0.5292377   0.3491678), wk =   0.0034722
        k(  179) = (  -0.1666667  -0.5773502   0.1444832), wk =   0.0034722
        k(  180) = (  -0.1666667  -0.5773502   0.3612081), wk =   0.0034722
        k(  181) = (  -0.0833333  -0.6254628   0.1565235), wk =   0.0034722
        k(  182) = (  -0.0833333  -0.6254628   0.3732484), wk =   0.0034722
        k(  183) = (   0.0000000  -0.6735753   0.1685637), wk =   0.0034722
        k(  184) = (   0.0000000  -0.6735753   0.3852886), wk =   0.0034722
        k(  185) = (   0.0833334  -0.7216878   0.1806040), wk =   0.0034722
        k(  186) = (   0.0833334  -0.7216878   0.3973289), wk =   0.0034722
        k(  187) = (   0.1666667  -0.7698003   0.1926443), wk =   0.0034722
        k(  188) = (   0.1666667  -0.7698003   0.4093692), wk =   0.0034722
        k(  189) = (   0.2500000  -0.8179128   0.2046845), wk =   0.0034722
        k(  190) = (   0.2500000  -0.8179128   0.4214094), wk =   0.0034722
        k(  191) = (   0.3333334  -0.8660254   0.2167248), wk =   0.0034722
        k(  192) = (   0.3333334  -0.8660254   0.4334497), wk =   0.0034722
        k(  193) = (  -0.6666668  -0.3849002   0.0963221), wk =   0.0034722
        k(  194) = (  -0.6666668  -0.3849002   0.3130470), wk =   0.0034722
        k(  195) = (  -0.5833334  -0.4330127   0.1083624), wk =   0.0034722
        k(  196) = (  -0.5833334  -0.4330127   0.3250873), wk =   0.0034722
        k(  197) = (  -0.5000001  -0.4811252   0.1204027), wk =   0.0034722
        k(  198) = (  -0.5000001  -0.4811252   0.3371276), wk =   0.0034722
        k(  199) = (  -0.4166667  -0.5292377   0.1324429), wk =   0.0034722
        k(  200) = (  -0.4166667  -0.5292377   0.3491678), wk =   0.0034722
        k(  201) = (  -0.3333334  -0.5773502   0.1444832), wk =   0.0034722
        k(  202) = (  -0.3333334  -0.5773502   0.3612081), wk =   0.0034722
        k(  203) = (  -0.2500000  -0.6254628   0.1565235), wk =   0.0034722
        k(  204) = (  -0.2500000  -0.6254628   0.3732484), wk =   0.0034722
        k(  205) = (  -0.1666667  -0.6735753   0.1685637), wk =   0.0034722
        k(  206) = (  -0.1666667  -0.6735753   0.3852886), wk =   0.0034722
        k(  207) = (  -0.0833334  -0.7216878   0.1806040), wk =   0.0034722
        k(  208) = (  -0.0833334  -0.7216878   0.3973289), wk =   0.0034722
        k(  209) = (   0.0000000  -0.7698003   0.1926443), wk =   0.0034722
        k(  210) = (   0.0000000  -0.7698003   0.4093692), wk =   0.0034722
        k(  211) = (   0.0833333  -0.8179128   0.2046845), wk =   0.0034722
        k(  212) = (   0.0833333  -0.8179128   0.4214094), wk =   0.0034722
        k(  213) = (   0.1666667  -0.8660254   0.2167248), wk =   0.0034722
        k(  214) = (   0.1666667  -0.8660254   0.4334497), wk =   0.0034722
        k(  215) = (   0.2500000  -0.9141379   0.2287651), wk =   0.0034722
        k(  216) = (   0.2500000  -0.9141379   0.4454900), wk =   0.0034722
        k(  217) = (  -0.7500001  -0.4330127   0.1083624), wk =   0.0034722
        k(  218) = (  -0.7500001  -0.4330127   0.3250873), wk =   0.0034722
        k(  219) = (  -0.6666668  -0.4811252   0.1204027), wk =   0.0034722
        k(  220) = (  -0.6666668  -0.4811252   0.3371276), wk =   0.0034722
        k(  221) = (  -0.5833334  -0.5292377   0.1324429), wk =   0.0034722
        k(  222) = (  -0.5833334  -0.5292377   0.3491678), wk =   0.0034722
        k(  223) = (  -0.5000001  -0.5773502   0.1444832), wk =   0.0034722
        k(  224) = (  -0.5000001  -0.5773502   0.3612081), wk =   0.0034722
        k(  225) = (  -0.4166667  -0.6254628   0.1565235), wk =   0.0034722
        k(  226) = (  -0.4166667  -0.6254628   0.3732484), wk =   0.0034722
        k(  227) = (  -0.3333334  -0.6735753   0.1685637), wk =   0.0034722
        k(  228) = (  -0.3333334  -0.6735753   0.3852886), wk =   0.0034722
        k(  229) = (  -0.2500000  -0.7216878   0.1806040), wk =   0.0034722
        k(  230) = (  -0.2500000  -0.7216878   0.3973289), wk =   0.0034722
        k(  231) = (  -0.1666667  -0.7698003   0.1926443), wk =   0.0034722
        k(  232) = (  -0.1666667  -0.7698003   0.4093692), wk =   0.0034722
        k(  233) = (  -0.0833333  -0.8179128   0.2046845), wk =   0.0034722
        k(  234) = (  -0.0833333  -0.8179128   0.4214094), wk =   0.0034722
        k(  235) = (   0.0000000  -0.8660254   0.2167248), wk =   0.0034722
        k(  236) = (   0.0000000  -0.8660254   0.4334497), wk =   0.0034722
        k(  237) = (   0.0833333  -0.9141379   0.2287651), wk =   0.0034722
        k(  238) = (   0.0833333  -0.9141379   0.4454900), wk =   0.0034722
        k(  239) = (   0.1666667  -0.9622504   0.2408053), wk =   0.0034722
        k(  240) = (   0.1666667  -0.9622504   0.4575302), wk =   0.0034722
        k(  241) = (  -0.8333335  -0.4811252   0.1204027), wk =   0.0034722
        k(  242) = (  -0.8333335  -0.4811252   0.3371276), wk =   0.0034722
        k(  243) = (  -0.7500001  -0.5292377   0.1324429), wk =   0.0034722
        k(  244) = (  -0.7500001  -0.5292377   0.3491678), wk =   0.0034722
        k(  245) = (  -0.6666668  -0.5773502   0.1444832), wk =   0.0034722
        k(  246) = (  -0.6666668  -0.5773502   0.3612081), wk =   0.0034722
        k(  247) = (  -0.5833334  -0.6254628   0.1565235), wk =   0.0034722
        k(  248) = (  -0.5833334  -0.6254628   0.3732484), wk =   0.0034722
        k(  249) = (  -0.5000001  -0.6735753   0.1685637), wk =   0.0034722
        k(  250) = (  -0.5000001  -0.6735753   0.3852886), wk =   0.0034722
        k(  251) = (  -0.4166667  -0.7216878   0.1806040), wk =   0.0034722
        k(  252) = (  -0.4166667  -0.7216878   0.3973289), wk =   0.0034722
        k(  253) = (  -0.3333334  -0.7698003   0.1926443), wk =   0.0034722
        k(  254) = (  -0.3333334  -0.7698003   0.4093692), wk =   0.0034722
        k(  255) = (  -0.2500000  -0.8179128   0.2046845), wk =   0.0034722
        k(  256) = (  -0.2500000  -0.8179128   0.4214094), wk =   0.0034722
        k(  257) = (  -0.1666667  -0.8660254   0.2167248), wk =   0.0034722
        k(  258) = (  -0.1666667  -0.8660254   0.4334497), wk =   0.0034722
        k(  259) = (  -0.0833333  -0.9141379   0.2287651), wk =   0.0034722
        k(  260) = (  -0.0833333  -0.9141379   0.4454900), wk =   0.0034722
        k(  261) = (   0.0000000  -0.9622504   0.2408053), wk =   0.0034722
        k(  262) = (   0.0000000  -0.9622504   0.4575302), wk =   0.0034722
        k(  263) = (   0.0833334  -1.0103629   0.2528456), wk =   0.0034722
        k(  264) = (   0.0833334  -1.0103629   0.4695705), wk =   0.0034722
        k(  265) = (  -0.9166668  -0.5292377   0.1324429), wk =   0.0034722
        k(  266) = (  -0.9166668  -0.5292377   0.3491678), wk =   0.0034722
        k(  267) = (  -0.8333335  -0.5773502   0.1444832), wk =   0.0034722
        k(  268) = (  -0.8333335  -0.5773502   0.3612081), wk =   0.0034722
        k(  269) = (  -0.7500001  -0.6254628   0.1565235), wk =   0.0034722
        k(  270) = (  -0.7500001  -0.6254628   0.3732484), wk =   0.0034722
        k(  271) = (  -0.6666668  -0.6735753   0.1685637), wk =   0.0034722
        k(  272) = (  -0.6666668  -0.6735753   0.3852886), wk =   0.0034722
        k(  273) = (  -0.5833334  -0.7216878   0.1806040), wk =   0.0034722
        k(  274) = (  -0.5833334  -0.7216878   0.3973289), wk =   0.0034722
        k(  275) = (  -0.5000001  -0.7698003   0.1926443), wk =   0.0034722
        k(  276) = (  -0.5000001  -0.7698003   0.4093692), wk =   0.0034722
        k(  277) = (  -0.4166667  -0.8179128   0.2046845), wk =   0.0034722
        k(  278) = (  -0.4166667  -0.8179128   0.4214094), wk =   0.0034722
        k(  279) = (  -0.3333334  -0.8660254   0.2167248), wk =   0.0034722
        k(  280) = (  -0.3333334  -0.8660254   0.4334497), wk =   0.0034722
        k(  281) = (  -0.2500000  -0.9141379   0.2287651), wk =   0.0034722
        k(  282) = (  -0.2500000  -0.9141379   0.4454900), wk =   0.0034722
        k(  283) = (  -0.1666667  -0.9622504   0.2408053), wk =   0.0034722
        k(  284) = (  -0.1666667  -0.9622504   0.4575302), wk =   0.0034722
        k(  285) = (  -0.0833334  -1.0103629   0.2528456), wk =   0.0034722
        k(  286) = (  -0.0833334  -1.0103629   0.4695705), wk =   0.0034722
        k(  287) = (   0.0000000  -1.0584754   0.2648859), wk =   0.0034722
        k(  288) = (   0.0000000  -1.0584754   0.4816108), wk =   0.0034722

                       cryst. coord.
        k(    1) = (   0.0000000   0.0000000   0.0000000), wk =   0.0034722
        k(    2) = (   0.0000000   0.0000000   0.5000000), wk =   0.0034722
        k(    3) = (   0.0000000   0.0833333  -0.0000000), wk =   0.0034722
        k(    4) = (   0.0000000   0.0833333   0.5000000), wk =   0.0034722
        k(    5) = (   0.0000000   0.1666667  -0.0000000), wk =   0.0034722
        k(    6) = (   0.0000000   0.1666667   0.5000000), wk =   0.0034722
        k(    7) = (   0.0000000   0.2500000   0.0000000), wk =   0.0034722
        k(    8) = (   0.0000000   0.2500000   0.5000000), wk =   0.0034722
        k(    9) = (   0.0000000   0.3333333  -0.0000000), wk =   0.0034722
        k(   10) = (   0.0000000   0.3333333   0.5000000), wk =   0.0034722
        k(   11) = (   0.0000000   0.4166667   0.0000000), wk =   0.0034722
        k(   12) = (   0.0000000   0.4166667   0.5000000), wk =   0.0034722
        k(   13) = (   0.0000000   0.5000000   0.0000000), wk =   0.0034722
        k(   14) = (   0.0000000   0.5000000   0.5000000), wk =   0.0034722
        k(   15) = (   0.0000000   0.5833333  -0.0000000), wk =   0.0034722
        k(   16) = (   0.0000000   0.5833333   0.5000000), wk =   0.0034722
        k(   17) = (   0.0000000   0.6666667  -0.0000000), wk =   0.0034722
        k(   18) = (   0.0000000   0.6666667   0.5000000), wk =   0.0034722
        k(   19) = (   0.0000000   0.7500000  -0.0000000), wk =   0.0034722
        k(   20) = (   0.0000000   0.7500000   0.5000000), wk =   0.0034722
        k(   21) = (   0.0000000   0.8333333   0.0000000), wk =   0.0034722
        k(   22) = (   0.0000000   0.8333333   0.5000000), wk =   0.0034722
        k(   23) = (   0.0000000   0.9166667   0.0000000), wk =   0.0034722
        k(   24) = (   0.0000000   0.9166667   0.5000000), wk =   0.0034722
        k(   25) = (   0.0833333   0.0000000  -0.0000000), wk =   0.0034722
        k(   26) = (   0.0833333   0.0000000   0.5000000), wk =   0.0034722
        k(   27) = (   0.0833333   0.0833333  -0.0000000), wk =   0.0034722
        k(   28) = (   0.0833333   0.0833333   0.5000000), wk =   0.0034722
        k(   29) = (   0.0833333   0.1666667   0.0000000), wk =   0.0034722
        k(   30) = (   0.0833333   0.1666667   0.5000000), wk =   0.0034722
        k(   31) = (   0.0833333   0.2500000  -0.0000000), wk =   0.0034722
        k(   32) = (   0.0833333   0.2500000   0.5000000), wk =   0.0034722
        k(   33) = (   0.0833333   0.3333333  -0.0000000), wk =   0.0034722
        k(   34) = (   0.0833333   0.3333333   0.5000000), wk =   0.0034722
        k(   35) = (   0.0833333   0.4166667   0.0000000), wk =   0.0034722
        k(   36) = (   0.0833333   0.4166667   0.5000000), wk =   0.0034722
        k(   37) = (   0.0833333   0.5000000  -0.0000000), wk =   0.0034722
        k(   38) = (   0.0833333   0.5000000   0.5000000), wk =   0.0034722
        k(   39) = (   0.0833333   0.5833333   0.0000000), wk =   0.0034722
        k(   40) = (   0.0833333   0.5833333   0.5000000), wk =   0.0034722
        k(   41) = (   0.0833333   0.6666667  -0.0000000), wk =   0.0034722
        k(   42) = (   0.0833333   0.6666667   0.5000000), wk =   0.0034722
        k(   43) = (   0.0833333   0.7500000   0.0000000), wk =   0.0034722
        k(   44) = (   0.0833333   0.7500000   0.5000000), wk =   0.0034722
        k(   45) = (   0.0833333   0.8333333  -0.0000000), wk =   0.0034722
        k(   46) = (   0.0833333   0.8333333   0.5000000), wk =   0.0034722
        k(   47) = (   0.0833333   0.9166667   0.0000000), wk =   0.0034722
        k(   48) = (   0.0833333   0.9166667   0.5000000), wk =   0.0034722
        k(   49) = (   0.1666667   0.0000000  -0.0000000), wk =   0.0034722
        k(   50) = (   0.1666667   0.0000000   0.5000000), wk =   0.0034722
        k(   51) = (   0.1666667   0.0833333   0.0000000), wk =   0.0034722
        k(   52) = (   0.1666667   0.0833333   0.5000000), wk =   0.0034722
        k(   53) = (   0.1666667   0.1666667  -0.0000000), wk =   0.0034722
        k(   54) = (   0.1666667   0.1666667   0.5000000), wk =   0.0034722
        k(   55) = (   0.1666667   0.2500000  -0.0000000), wk =   0.0034722
        k(   56) = (   0.1666667   0.2500000   0.5000000), wk =   0.0034722
        k(   57) = (   0.1666667   0.3333333   0.0000000), wk =   0.0034722
        k(   58) = (   0.1666667   0.3333333   0.5000000), wk =   0.0034722
        k(   59) = (   0.1666667   0.4166667  -0.0000000), wk =   0.0034722
        k(   60) = (   0.1666667   0.4166667   0.5000000), wk =   0.0034722
        k(   61) = (   0.1666667   0.5000000  -0.0000000), wk =   0.0034722
        k(   62) = (   0.1666667   0.5000000   0.5000000), wk =   0.0034722
        k(   63) = (   0.1666667   0.5833333  -0.0000000), wk =   0.0034722
        k(   64) = (   0.1666667   0.5833333   0.5000000), wk =   0.0034722
        k(   65) = (   0.1666667   0.6666667  -0.0000000), wk =   0.0034722
        k(   66) = (   0.1666667   0.6666667   0.5000000), wk =   0.0034722
        k(   67) = (   0.1666667   0.7500000   0.0000000), wk =   0.0034722
        k(   68) = (   0.1666667   0.7500000   0.5000000), wk =   0.0034722
        k(   69) = (   0.1666667   0.8333333   0.0000000), wk =   0.0034722
        k(   70) = (   0.1666667   0.8333333   0.5000000), wk =   0.0034722
        k(   71) = (   0.1666667   0.9166667   0.0000000), wk =   0.0034722
        k(   72) = (   0.1666667   0.9166667   0.5000000), wk =   0.0034722
        k(   73) = (   0.2500000   0.0000000   0.0000000), wk =   0.0034722
        k(   74) = (   0.2500000   0.0000000   0.5000000), wk =   0.0034722
        k(   75) = (   0.2500000   0.0833333  -0.0000000), wk =   0.0034722
        k(   76) = (   0.2500000   0.0833333   0.5000000), wk =   0.0034722
        k(   77) = (   0.2500000   0.1666667  -0.0000000), wk =   0.0034722
        k(   78) = (   0.2500000   0.1666667   0.5000000), wk =   0.0034722
        k(   79) = (   0.2500000   0.2500000   0.0000000), wk =   0.0034722
        k(   80) = (   0.2500000   0.2500000   0.5000000), wk =   0.0034722
        k(   81) = (   0.2500000   0.3333333  -0.0000000), wk =   0.0034722
        k(   82) = (   0.2500000   0.3333333   0.5000000), wk =   0.0034722
        k(   83) = (   0.2500000   0.4166667  -0.0000000), wk =   0.0034722
        k(   84) = (   0.2500000   0.4166667   0.5000000), wk =   0.0034722
        k(   85) = (   0.2500000   0.5000000  -0.0000000), wk =   0.0034722
        k(   86) = (   0.2500000   0.5000000   0.5000000), wk =   0.0034722
        k(   87) = (   0.2500000   0.5833333   0.0000000), wk =   0.0034722
        k(   88) = (   0.2500000   0.5833333   0.5000000), wk =   0.0034722
        k(   89) = (   0.2500000   0.6666667   0.0000000), wk =   0.0034722
        k(   90) = (   0.2500000   0.6666667   0.5000000), wk =   0.0034722
        k(   91) = (   0.2500000   0.7500000   0.0000000), wk =   0.0034722
        k(   92) = (   0.2500000   0.7500000   0.5000000), wk =   0.0034722
        k(   93) = (   0.2500000   0.8333333  -0.0000000), wk =   0.0034722
        k(   94) = (   0.2500000   0.8333333   0.5000000), wk =   0.0034722
        k(   95) = (   0.2500000   0.9166667  -0.0000000), wk =   0.0034722
        k(   96) = (   0.2500000   0.9166667   0.5000000), wk =   0.0034722
        k(   97) = (   0.3333333   0.0000000  -0.0000000), wk =   0.0034722
        k(   98) = (   0.3333333   0.0000000   0.5000000), wk =   0.0034722
        k(   99) = (   0.3333333   0.0833333  -0.0000000), wk =   0.0034722
        k(  100) = (   0.3333333   0.0833333   0.5000000), wk =   0.0034722
        k(  101) = (   0.3333333   0.1666667   0.0000000), wk =   0.0034722
        k(  102) = (   0.3333333   0.1666667   0.5000000), wk =   0.0034722
        k(  103) = (   0.3333333   0.2500000  -0.0000000), wk =   0.0034722
        k(  104) = (   0.3333333   0.2500000   0.5000000), wk =   0.0034722
        k(  105) = (   0.3333333   0.3333333  -0.0000000), wk =   0.0034722
        k(  106) = (   0.3333333   0.3333333   0.5000000), wk =   0.0034722
        k(  107) = (   0.3333333   0.4166667  -0.0000000), wk =   0.0034722
        k(  108) = (   0.3333333   0.4166667   0.5000000), wk =   0.0034722
        k(  109) = (   0.3333333   0.5000000   0.0000000), wk =   0.0034722
        k(  110) = (   0.3333333   0.5000000   0.5000000), wk =   0.0034722
        k(  111) = (   0.3333333   0.5833333  -0.0000000), wk =   0.0034722
        k(  112) = (   0.3333333   0.5833333   0.5000000), wk =   0.0034722
        k(  113) = (   0.3333333   0.6666667   0.0000000), wk =   0.0034722
        k(  114) = (   0.3333333   0.6666667   0.5000000), wk =   0.0034722
        k(  115) = (   0.3333333   0.7500000  -0.0000000), wk =   0.0034722
        k(  116) = (   0.3333333   0.7500000   0.5000000), wk =   0.0034722
        k(  117) = (   0.3333333   0.8333333  -0.0000000), wk =   0.0034722
        k(  118) = (   0.3333333   0.8333333   0.5000000), wk =   0.0034722
        k(  119) = (   0.3333333   0.9166667   0.0000000), wk =   0.0034722
        k(  120) = (   0.3333333   0.9166667   0.5000000), wk =   0.0034722
        k(  121) = (   0.4166667   0.0000000   0.0000000), wk =   0.0034722
        k(  122) = (   0.4166667   0.0000000   0.5000000), wk =   0.0034722
        k(  123) = (   0.4166667   0.0833333   0.0000000), wk =   0.0034722
        k(  124) = (   0.4166667   0.0833333   0.5000000), wk =   0.0034722
        k(  125) = (   0.4166667   0.1666667  -0.0000000), wk =   0.0034722
        k(  126) = (   0.4166667   0.1666667   0.5000000), wk =   0.0034722
        k(  127) = (   0.4166667   0.2500000  -0.0000000), wk =   0.0034722
        k(  128) = (   0.4166667   0.2500000   0.5000000), wk =   0.0034722
        k(  129) = (   0.4166667   0.3333333  -0.0000000), wk =   0.0034722
        k(  130) = (   0.4166667   0.3333333   0.5000000), wk =   0.0034722
        k(  131) = (   0.4166667   0.4166667   0.0000000), wk =   0.0034722
        k(  132) = (   0.4166667   0.4166667   0.5000000), wk =   0.0034722
        k(  133) = (   0.4166667   0.5000000   0.0000000), wk =   0.0034722
        k(  134) = (   0.4166667   0.5000000   0.5000000), wk =   0.0034722
        k(  135) = (   0.4166667   0.5833333   0.0000000), wk =   0.0034722
        k(  136) = (   0.4166667   0.5833333   0.5000000), wk =   0.0034722
        k(  137) = (   0.4166667   0.6666667  -0.0000000), wk =   0.0034722
        k(  138) = (   0.4166667   0.6666667   0.5000000), wk =   0.0034722
        k(  139) = (   0.4166667   0.7500000  -0.0000000), wk =   0.0034722
        k(  140) = (   0.4166667   0.7500000   0.5000000), wk =   0.0034722
        k(  141) = (   0.4166667   0.8333333   0.0000000), wk =   0.0034722
        k(  142) = (   0.4166667   0.8333333   0.5000000), wk =   0.0034722
        k(  143) = (   0.4166667   0.9166667   0.0000000), wk =   0.0034722
        k(  144) = (   0.4166667   0.9166667   0.5000000), wk =   0.0034722
        k(  145) = (   0.5000000   0.0000000   0.0000000), wk =   0.0034722
        k(  146) = (   0.5000000   0.0000000   0.5000000), wk =   0.0034722
        k(  147) = (   0.5000000   0.0833333  -0.0000000), wk =   0.0034722
        k(  148) = (   0.5000000   0.0833333   0.5000000), wk =   0.0034722
        k(  149) = (   0.5000000   0.1666667  -0.0000000), wk =   0.0034722
        k(  150) = (   0.5000000   0.1666667   0.5000000), wk =   0.0034722
        k(  151) = (   0.5000000   0.2500000  -0.0000000), wk =   0.0034722
        k(  152) = (   0.5000000   0.2500000   0.5000000), wk =   0.0034722
        k(  153) = (   0.5000000   0.3333333   0.0000000), wk =   0.0034722
        k(  154) = (   0.5000000   0.3333333   0.5000000), wk =   0.0034722
        k(  155) = (   0.5000000   0.4166667   0.0000000), wk =   0.0034722
        k(  156) = (   0.5000000   0.4166667   0.5000000), wk =   0.0034722
        k(  157) = (   0.5000000   0.5000000   0.0000000), wk =   0.0034722
        k(  158) = (   0.5000000   0.5000000   0.5000000), wk =   0.0034722
        k(  159) = (   0.5000000   0.5833333  -0.0000000), wk =   0.0034722
        k(  160) = (   0.5000000   0.5833333   0.5000000), wk =   0.0034722
        k(  161) = (   0.5000000   0.6666667  -0.0000000), wk =   0.0034722
        k(  162) = (   0.5000000   0.6666667   0.5000000), wk =   0.0034722
        k(  163) = (   0.5000000   0.7500000  -0.0000000), wk =   0.0034722
        k(  164) = (   0.5000000   0.7500000   0.5000000), wk =   0.0034722
        k(  165) = (   0.5000000   0.8333333  -0.0000000), wk =   0.0034722
        k(  166) = (   0.5000000   0.8333333   0.5000000), wk =   0.0034722
        k(  167) = (   0.5000000   0.9166667   0.0000000), wk =   0.0034722
        k(  168) = (   0.5000000   0.9166667   0.5000000), wk =   0.0034722
        k(  169) = (   0.5833333   0.0000000  -0.0000000), wk =   0.0034722
        k(  170) = (   0.5833333   0.0000000   0.5000000), wk =   0.0034722
        k(  171) = (   0.5833333   0.0833333   0.0000000), wk =   0.0034722
        k(  172) = (   0.5833333   0.0833333   0.5000000), wk =   0.0034722
        k(  173) = (   0.5833333   0.1666667  -0.0000000), wk =   0.0034722
        k(  174) = (   0.5833333   0.1666667   0.5000000), wk =   0.0034722
        k(  175) = (   0.5833333   0.2500000   0.0000000), wk =   0.0034722
        k(  176) = (   0.5833333   0.2500000   0.5000000), wk =   0.0034722
        k(  177) = (   0.5833333   0.3333333  -0.0000000), wk =   0.0034722
        k(  178) = (   0.5833333   0.3333333   0.5000000), wk =   0.0034722
        k(  179) = (   0.5833333   0.4166667   0.0000000), wk =   0.0034722
        k(  180) = (   0.5833333   0.4166667   0.5000000), wk =   0.0034722
        k(  181) = (   0.5833333   0.5000000  -0.0000000), wk =   0.0034722
        k(  182) = (   0.5833333   0.5000000   0.5000000), wk =   0.0034722
        k(  183) = (   0.5833333   0.5833333  -0.0000000), wk =   0.0034722
        k(  184) = (   0.5833333   0.5833333   0.5000000), wk =   0.0034722
        k(  185) = (   0.5833333   0.6666667  -0.0000000), wk =   0.0034722
        k(  186) = (   0.5833333   0.6666667   0.5000000), wk =   0.0034722
        k(  187) = (   0.5833333   0.7500000  -0.0000000), wk =   0.0034722
        k(  188) = (   0.5833333   0.7500000   0.5000000), wk =   0.0034722
        k(  189) = (   0.5833333   0.8333333   0.0000000), wk =   0.0034722
        k(  190) = (   0.5833333   0.8333333   0.5000000), wk =   0.0034722
        k(  191) = (   0.5833333   0.9166667   0.0000000), wk =   0.0034722
        k(  192) = (   0.5833333   0.9166667   0.5000000), wk =   0.0034722
        k(  193) = (   0.6666667   0.0000000  -0.0000000), wk =   0.0034722
        k(  194) = (   0.6666667   0.0000000   0.5000000), wk =   0.0034722
        k(  195) = (   0.6666667   0.0833333  -0.0000000), wk =   0.0034722
        k(  196) = (   0.6666667   0.0833333   0.5000000), wk =   0.0034722
        k(  197) = (   0.6666667   0.1666667  -0.0000000), wk =   0.0034722
        k(  198) = (   0.6666667   0.1666667   0.5000000), wk =   0.0034722
        k(  199) = (   0.6666667   0.2500000   0.0000000), wk =   0.0034722
        k(  200) = (   0.6666667   0.2500000   0.5000000), wk =   0.0034722
        k(  201) = (   0.6666667   0.3333333   0.0000000), wk =   0.0034722
        k(  202) = (   0.6666667   0.3333333   0.5000000), wk =   0.0034722
        k(  203) = (   0.6666667   0.4166667  -0.0000000), wk =   0.0034722
        k(  204) = (   0.6666667   0.4166667   0.5000000), wk =   0.0034722
        k(  205) = (   0.6666667   0.5000000  -0.0000000), wk =   0.0034722
        k(  206) = (   0.6666667   0.5000000   0.5000000), wk =   0.0034722
        k(  207) = (   0.6666667   0.5833333  -0.0000000), wk =   0.0034722
        k(  208) = (   0.6666667   0.5833333   0.5000000), wk =   0.0034722
        k(  209) = (   0.6666667   0.6666667  -0.0000000), wk =   0.0034722
        k(  210) = (   0.6666667   0.6666667   0.5000000), wk =   0.0034722
        k(  211) = (   0.6666667   0.7500000  -0.0000000), wk =   0.0034722
        k(  212) = (   0.6666667   0.7500000   0.5000000), wk =   0.0034722
        k(  213) = (   0.6666667   0.8333333  -0.0000000), wk =   0.0034722
        k(  214) = (   0.6666667   0.8333333   0.5000000), wk =   0.0034722
        k(  215) = (   0.6666667   0.9166667  -0.0000000), wk =   0.0034722
        k(  216) = (   0.6666667   0.9166667   0.5000000), wk =   0.0034722
        k(  217) = (   0.7500000   0.0000000  -0.0000000), wk =   0.0034722
        k(  218) = (   0.7500000   0.0000000   0.5000000), wk =   0.0034722
        k(  219) = (   0.7500000   0.0833333   0.0000000), wk =   0.0034722
        k(  220) = (   0.7500000   0.0833333   0.5000000), wk =   0.0034722
        k(  221) = (   0.7500000   0.1666667   0.0000000), wk =   0.0034722
        k(  222) = (   0.7500000   0.1666667   0.5000000), wk =   0.0034722
        k(  223) = (   0.7500000   0.2500000   0.0000000), wk =   0.0034722
        k(  224) = (   0.7500000   0.2500000   0.5000000), wk =   0.0034722
        k(  225) = (   0.7500000   0.3333333  -0.0000000), wk =   0.0034722
        k(  226) = (   0.7500000   0.3333333   0.5000000), wk =   0.0034722
        k(  227) = (   0.7500000   0.4166667  -0.0000000), wk =   0.0034722
        k(  228) = (   0.7500000   0.4166667   0.5000000), wk =   0.0034722
        k(  229) = (   0.7500000   0.5000000  -0.0000000), wk =   0.0034722
        k(  230) = (   0.7500000   0.5000000   0.5000000), wk =   0.0034722
        k(  231) = (   0.7500000   0.5833333  -0.0000000), wk =   0.0034722
        k(  232) = (   0.7500000   0.5833333   0.5000000), wk =   0.0034722
        k(  233) = (   0.7500000   0.6666667  -0.0000000), wk =   0.0034722
        k(  234) = (   0.7500000   0.6666667   0.5000000), wk =   0.0034722
        k(  235) = (   0.7500000   0.7500000  -0.0000000), wk =   0.0034722
        k(  236) = (   0.7500000   0.7500000   0.5000000), wk =   0.0034722
        k(  237) = (   0.7500000   0.8333333  -0.0000000), wk =   0.0034722
        k(  238) = (   0.7500000   0.8333333   0.5000000), wk =   0.0034722
        k(  239) = (   0.7500000   0.9166667   0.0000000), wk =   0.0034722
        k(  240) = (   0.7500000   0.9166667   0.5000000), wk =   0.0034722
        k(  241) = (   0.8333333   0.0000000   0.0000000), wk =   0.0034722
        k(  242) = (   0.8333333   0.0000000   0.5000000), wk =   0.0034722
        k(  243) = (   0.8333333   0.0833333  -0.0000000), wk =   0.0034722
        k(  244) = (   0.8333333   0.0833333   0.5000000), wk =   0.0034722
        k(  245) = (   0.8333333   0.1666667   0.0000000), wk =   0.0034722
        k(  246) = (   0.8333333   0.1666667   0.5000000), wk =   0.0034722
        k(  247) = (   0.8333333   0.2500000  -0.0000000), wk =   0.0034722
        k(  248) = (   0.8333333   0.2500000   0.5000000), wk =   0.0034722
        k(  249) = (   0.8333333   0.3333333  -0.0000000), wk =   0.0034722
        k(  250) = (   0.8333333   0.3333333   0.5000000), wk =   0.0034722
        k(  251) = (   0.8333333   0.4166667   0.0000000), wk =   0.0034722
        k(  252) = (   0.8333333   0.4166667   0.5000000), wk =   0.0034722
        k(  253) = (   0.8333333   0.5000000  -0.0000000), wk =   0.0034722
        k(  254) = (   0.8333333   0.5000000   0.5000000), wk =   0.0034722
        k(  255) = (   0.8333333   0.5833333   0.0000000), wk =   0.0034722
        k(  256) = (   0.8333333   0.5833333   0.5000000), wk =   0.0034722
        k(  257) = (   0.8333333   0.6666667  -0.0000000), wk =   0.0034722
        k(  258) = (   0.8333333   0.6666667   0.5000000), wk =   0.0034722
        k(  259) = (   0.8333333   0.7500000  -0.0000000), wk =   0.0034722
        k(  260) = (   0.8333333   0.7500000   0.5000000), wk =   0.0034722
        k(  261) = (   0.8333333   0.8333333   0.0000000), wk =   0.0034722
        k(  262) = (   0.8333333   0.8333333   0.5000000), wk =   0.0034722
        k(  263) = (   0.8333333   0.9166667   0.0000000), wk =   0.0034722
        k(  264) = (   0.8333333   0.9166667   0.5000000), wk =   0.0034722
        k(  265) = (   0.9166667   0.0000000   0.0000000), wk =   0.0034722
        k(  266) = (   0.9166667   0.0000000   0.5000000), wk =   0.0034722
        k(  267) = (   0.9166667   0.0833333   0.0000000), wk =   0.0034722
        k(  268) = (   0.9166667   0.0833333   0.5000000), wk =   0.0034722
        k(  269) = (   0.9166667   0.1666667   0.0000000), wk =   0.0034722
        k(  270) = (   0.9166667   0.1666667   0.5000000), wk =   0.0034722
        k(  271) = (   0.9166667   0.2500000  -0.0000000), wk =   0.0034722
        k(  272) = (   0.9166667   0.2500000   0.5000000), wk =   0.0034722
        k(  273) = (   0.9166667   0.3333333   0.0000000), wk =   0.0034722
        k(  274) = (   0.9166667   0.3333333   0.5000000), wk =   0.0034722
        k(  275) = (   0.9166667   0.4166667   0.0000000), wk =   0.0034722
        k(  276) = (   0.9166667   0.4166667   0.5000000), wk =   0.0034722
        k(  277) = (   0.9166667   0.5000000   0.0000000), wk =   0.0034722
        k(  278) = (   0.9166667   0.5000000   0.5000000), wk =   0.0034722
        k(  279) = (   0.9166667   0.5833333   0.0000000), wk =   0.0034722
        k(  280) = (   0.9166667   0.5833333   0.5000000), wk =   0.0034722
        k(  281) = (   0.9166667   0.6666667  -0.0000000), wk =   0.0034722
        k(  282) = (   0.9166667   0.6666667   0.5000000), wk =   0.0034722
        k(  283) = (   0.9166667   0.7500000   0.0000000), wk =   0.0034722
        k(  284) = (   0.9166667   0.7500000   0.5000000), wk =   0.0034722
        k(  285) = (   0.9166667   0.8333333   0.0000000), wk =   0.0034722
        k(  286) = (   0.9166667   0.8333333   0.5000000), wk =   0.0034722
        k(  287) = (   0.9166667   0.9166667   0.0000000), wk =   0.0034722
        k(  288) = (   0.9166667   0.9166667   0.5000000), wk =   0.0034722

     Dense  grid:   169655 G-vectors     FFT dimensions: (  60,  60, 135)

     Smooth grid:    92305 G-vectors     FFT dimensions: (  48,  48, 108)

     Dynamical RAM for                 wfc:       2.08 MB

     Dynamical RAM for     wfc (w. buffer):       2.08 MB

     Dynamical RAM for           str. fact:       0.22 MB

     Dynamical RAM for           local pot:       0.00 MB

     Dynamical RAM for          nlocal pot:       1.25 MB

     Dynamical RAM for                qrad:       9.21 MB

     Dynamical RAM for          rho,v,vnew:       3.27 MB

     Dynamical RAM for           G-vectors:       0.43 MB

     Dynamical RAM for          h,s,v(r/c):       3.69 MB

     Dynamical RAM for          <psi|beta>:       0.74 MB

     Dynamical RAM for                 psi:       4.17 MB

     Dynamical RAM for                hpsi:       4.17 MB

     Dynamical RAM for      wfcinit/wfcrot:       3.59 MB

     Estimated static dynamical RAM per process >      18.10 MB

     Estimated max dynamical RAM per process >      30.87 MB

     Estimated total dynamical RAM >     740.87 MB

     Check: negative core charge=   -0.000002

     The potential is recalculated from file :
     ./wfc-out/bi2se3.save/charge-density

     Starting wfcs are  130 randomized atomic wfcs +   12 random wfcs

     Band Structure Calculation
     Davidson diagonalization with overlap

     Computing kpt #:     1  of   288
     total cpu time spent up to now is        9.6 secs

     Computing kpt #:     2  of   288
     total cpu time spent up to now is       16.4 secs

     Computing kpt #:     3  of   288
     total cpu time spent up to now is       19.8 secs

     Computing kpt #:     4  of   288
     total cpu time spent up to now is       23.0 secs

     Computing kpt #:     5  of   288
     total cpu time spent up to now is       25.8 secs

     Computing kpt #:     6  of   288
     total cpu time spent up to now is       28.6 secs

     Computing kpt #:     7  of   288
     total cpu time spent up to now is       31.4 secs

     Computing kpt #:     8  of   288
     total cpu time spent up to now is       34.2 secs

     Computing kpt #:     9  of   288
     total cpu time spent up to now is       37.0 secs

     Computing kpt #:    10  of   288
     total cpu time spent up to now is       40.3 secs

     Computing kpt #:    11  of   288
     total cpu time spent up to now is       43.4 secs

     Computing kpt #:    12  of   288
     total cpu time spent up to now is       46.2 secs

     Computing kpt #:    13  of   288
     total cpu time spent up to now is       49.3 secs

     Computing kpt #:    14  of   288
     total cpu time spent up to now is       52.4 secs

     Computing kpt #:    15  of   288
     total cpu time spent up to now is       55.6 secs

     Computing kpt #:    16  of   288
     total cpu time spent up to now is       58.4 secs

     Computing kpt #:    17  of   288
     total cpu time spent up to now is       61.2 secs

     Computing kpt #:    18  of   288
     total cpu time spent up to now is       64.4 secs

     Computing kpt #:    19  of   288
     total cpu time spent up to now is       67.2 secs

     Computing kpt #:    20  of   288
     total cpu time spent up to now is       69.9 secs

     Computing kpt #:    21  of   288
     total cpu time spent up to now is       72.8 secs

     Computing kpt #:    22  of   288
     total cpu time spent up to now is       75.5 secs

     Computing kpt #:    23  of   288
     total cpu time spent up to now is       78.7 secs

     Computing kpt #:    24  of   288
     total cpu time spent up to now is       82.0 secs

     Computing kpt #:    25  of   288
     total cpu time spent up to now is       85.2 secs

     Computing kpt #:    26  of   288
     total cpu time spent up to now is       88.4 secs

     Computing kpt #:    27  of   288
     total cpu time spent up to now is       91.3 secs

     Computing kpt #:    28  of   288
     total cpu time spent up to now is       94.6 secs

     Computing kpt #:    29  of   288
     total cpu time spent up to now is       97.8 secs

     Computing kpt #:    30  of   288
     total cpu time spent up to now is      100.9 secs

     Computing kpt #:    31  of   288
     total cpu time spent up to now is      103.9 secs

     Computing kpt #:    32  of   288
     total cpu time spent up to now is      106.7 secs

     Computing kpt #:    33  of   288
     total cpu time spent up to now is      111.4 secs

     Computing kpt #:    34  of   288
     total cpu time spent up to now is      114.2 secs

     Computing kpt #:    35  of   288
     total cpu time spent up to now is      117.3 secs

     Computing kpt #:    36  of   288
     total cpu time spent up to now is      121.5 secs

     Computing kpt #:    37  of   288
     total cpu time spent up to now is      124.7 secs

     Computing kpt #:    38  of   288
     total cpu time spent up to now is      127.4 secs

     Computing kpt #:    39  of   288
     total cpu time spent up to now is      130.5 secs

     Computing kpt #:    40  of   288
     total cpu time spent up to now is      133.2 secs

     Computing kpt #:    41  of   288
     total cpu time spent up to now is      136.0 secs

     Computing kpt #:    42  of   288
     total cpu time spent up to now is      138.6 secs

     Computing kpt #:    43  of   288
     total cpu time spent up to now is      141.5 secs

     Computing kpt #:    44  of   288
     total cpu time spent up to now is      144.6 secs

     Computing kpt #:    45  of   288
     total cpu time spent up to now is      148.2 secs

     Computing kpt #:    46  of   288
     total cpu time spent up to now is      151.1 secs

     Computing kpt #:    47  of   288
     total cpu time spent up to now is      154.3 secs

     Computing kpt #:    48  of   288
     total cpu time spent up to now is      157.4 secs

     Computing kpt #:    49  of   288
     total cpu time spent up to now is      160.2 secs

     Computing kpt #:    50  of   288
     total cpu time spent up to now is      163.0 secs

     Computing kpt #:    51  of   288
     total cpu time spent up to now is      166.2 secs

     Computing kpt #:    52  of   288
     total cpu time spent up to now is      169.3 secs

     Computing kpt #:    53  of   288
     total cpu time spent up to now is      172.4 secs

     Computing kpt #:    54  of   288
     total cpu time spent up to now is      175.6 secs

     Computing kpt #:    55  of   288
     total cpu time spent up to now is      178.5 secs

     Computing kpt #:    56  of   288
     total cpu time spent up to now is      181.7 secs

     Computing kpt #:    57  of   288
     total cpu time spent up to now is      184.5 secs

     Computing kpt #:    58  of   288
     total cpu time spent up to now is      187.5 secs

     Computing kpt #:    59  of   288
     total cpu time spent up to now is      190.3 secs

     Computing kpt #:    60  of   288
     total cpu time spent up to now is      192.9 secs

     Computing kpt #:    61  of   288
     total cpu time spent up to now is      195.6 secs

     Computing kpt #:    62  of   288
     total cpu time spent up to now is      198.6 secs

     Computing kpt #:    63  of   288
     total cpu time spent up to now is      201.8 secs

     Computing kpt #:    64  of   288
     total cpu time spent up to now is      204.7 secs

     Computing kpt #:    65  of   288
     total cpu time spent up to now is      207.5 secs

     Computing kpt #:    66  of   288
     total cpu time spent up to now is      210.2 secs

     Computing kpt #:    67  of   288
     total cpu time spent up to now is      212.9 secs

     Computing kpt #:    68  of   288
     total cpu time spent up to now is      215.6 secs

     Computing kpt #:    69  of   288
     total cpu time spent up to now is      218.8 secs

     Computing kpt #:    70  of   288
     total cpu time spent up to now is      221.8 secs

     Computing kpt #:    71  of   288
     total cpu time spent up to now is      224.6 secs

     Computing kpt #:    72  of   288
     total cpu time spent up to now is      227.7 secs

     Computing kpt #:    73  of   288
     total cpu time spent up to now is      230.4 secs

     Computing kpt #:    74  of   288
     total cpu time spent up to now is      233.2 secs

     Computing kpt #:    75  of   288
     total cpu time spent up to now is      236.0 secs

     Computing kpt #:    76  of   288
     total cpu time spent up to now is      238.8 secs

     Computing kpt #:    77  of   288
     total cpu time spent up to now is      241.8 secs

     Computing kpt #:    78  of   288
     total cpu time spent up to now is      245.0 secs

     Computing kpt #:    79  of   288
     total cpu time spent up to now is      248.2 secs

     Computing kpt #:    80  of   288
     total cpu time spent up to now is      251.3 secs

     Computing kpt #:    81  of   288
     total cpu time spent up to now is      254.2 secs

     Computing kpt #:    82  of   288
     total cpu time spent up to now is      257.6 secs

     Computing kpt #:    83  of   288
     total cpu time spent up to now is      260.2 secs

     Computing kpt #:    84  of   288
     total cpu time spent up to now is      262.9 secs

     Computing kpt #:    85  of   288
     total cpu time spent up to now is      265.9 secs

     Computing kpt #:    86  of   288
     total cpu time spent up to now is      268.6 secs

     Computing kpt #:    87  of   288
     total cpu time spent up to now is      271.4 secs

     Computing kpt #:    88  of   288
     total cpu time spent up to now is      274.1 secs

     Computing kpt #:    89  of   288
     total cpu time spent up to now is      277.2 secs

     Computing kpt #:    90  of   288
     total cpu time spent up to now is      279.9 secs

     Computing kpt #:    91  of   288
     total cpu time spent up to now is      282.9 secs

     Computing kpt #:    92  of   288
     total cpu time spent up to now is      285.6 secs

     Computing kpt #:    93  of   288
     total cpu time spent up to now is      288.3 secs

     Computing kpt #:    94  of   288
     total cpu time spent up to now is      291.3 secs

     Computing kpt #:    95  of   288
     total cpu time spent up to now is      294.1 secs

     Computing kpt #:    96  of   288
     total cpu time spent up to now is      297.2 secs

     Computing kpt #:    97  of   288
     total cpu time spent up to now is      300.1 secs

     Computing kpt #:    98  of   288
     total cpu time spent up to now is      303.2 secs

     Computing kpt #:    99  of   288
     total cpu time spent up to now is      306.3 secs

     Computing kpt #:   100  of   288
     total cpu time spent up to now is      309.0 secs

     Computing kpt #:   101  of   288
     total cpu time spent up to now is      311.8 secs

     Computing kpt #:   102  of   288
     total cpu time spent up to now is      314.9 secs

     Computing kpt #:   103  of   288
     total cpu time spent up to now is      317.7 secs

     Computing kpt #:   104  of   288
     total cpu time spent up to now is      320.8 secs

     Computing kpt #:   105  of   288
     total cpu time spent up to now is      323.6 secs

     Computing kpt #:   106  of   288
     total cpu time spent up to now is      326.5 secs

     Computing kpt #:   107  of   288
     total cpu time spent up to now is      331.7 secs

     Computing kpt #:   108  of   288
     total cpu time spent up to now is      339.2 secs

     Computing kpt #:   109  of   288
     total cpu time spent up to now is      343.4 secs

     Computing kpt #:   110  of   288
     total cpu time spent up to now is      347.6 secs

     Computing kpt #:   111  of   288
     total cpu time spent up to now is      354.8 secs

     Computing kpt #:   112  of   288
     total cpu time spent up to now is      361.0 secs

     Computing kpt #:   113  of   288
     total cpu time spent up to now is      364.1 secs

     Computing kpt #:   114  of   288
     total cpu time spent up to now is      370.3 secs

     Computing kpt #:   115  of   288
     total cpu time spent up to now is      376.3 secs

     Computing kpt #:   116  of   288
     total cpu time spent up to now is      379.0 secs

     Computing kpt #:   117  of   288
     total cpu time spent up to now is      381.7 secs

     Computing kpt #:   118  of   288
     total cpu time spent up to now is      384.4 secs

     Computing kpt #:   119  of   288
     total cpu time spent up to now is      387.3 secs

     Computing kpt #:   120  of   288
     total cpu time spent up to now is      390.0 secs

     Computing kpt #:   121  of   288
     total cpu time spent up to now is      393.2 secs

     Computing kpt #:   122  of   288
     total cpu time spent up to now is      396.0 secs

     Computing kpt #:   123  of   288
     total cpu time spent up to now is      399.1 secs

     Computing kpt #:   124  of   288
     total cpu time spent up to now is      401.7 secs

     Computing kpt #:   125  of   288
     total cpu time spent up to now is      404.5 secs

     Computing kpt #:   126  of   288
     total cpu time spent up to now is      407.0 secs

     Computing kpt #:   127  of   288
     total cpu time spent up to now is      409.6 secs

     Computing kpt #:   128  of   288
     total cpu time spent up to now is      412.3 secs

     Computing kpt #:   129  of   288
     total cpu time spent up to now is      415.0 secs

     Computing kpt #:   130  of   288
     total cpu time spent up to now is      418.1 secs

     Computing kpt #:   131  of   288
     total cpu time spent up to now is      421.2 secs

     Computing kpt #:   132  of   288
     total cpu time spent up to now is      426.9 secs

     Computing kpt #:   133  of   288
     total cpu time spent up to now is      429.6 secs

     Computing kpt #:   134  of   288
     total cpu time spent up to now is      432.7 secs

     Computing kpt #:   135  of   288
     total cpu time spent up to now is      435.5 secs

     Computing kpt #:   136  of   288
     total cpu time spent up to now is      438.6 secs

     Computing kpt #:   137  of   288
     total cpu time spent up to now is      441.4 secs

     Computing kpt #:   138  of   288
     total cpu time spent up to now is      444.5 secs

     Computing kpt #:   139  of   288
     total cpu time spent up to now is      447.3 secs

     Computing kpt #:   140  of   288
     total cpu time spent up to now is      450.1 secs

     Computing kpt #:   141  of   288
     total cpu time spent up to now is      453.4 secs

     Computing kpt #:   142  of   288
     total cpu time spent up to now is      456.2 secs

     Computing kpt #:   143  of   288
     total cpu time spent up to now is      459.9 secs

     Computing kpt #:   144  of   288
     total cpu time spent up to now is      462.5 secs

     Computing kpt #:   145  of   288
     total cpu time spent up to now is      466.6 secs

     Computing kpt #:   146  of   288
     total cpu time spent up to now is      469.7 secs

     Computing kpt #:   147  of   288
     total cpu time spent up to now is      473.0 secs

     Computing kpt #:   148  of   288
     total cpu time spent up to now is      476.0 secs

     Computing kpt #:   149  of   288
     total cpu time spent up to now is      480.8 secs

     Computing kpt #:   150  of   288
     total cpu time spent up to now is      485.4 secs

     Computing kpt #:   151  of   288
     total cpu time spent up to now is      488.7 secs

     Computing kpt #:   152  of   288
     total cpu time spent up to now is      491.7 secs

     Computing kpt #:   153  of   288
     total cpu time spent up to now is      495.8 secs

     Computing kpt #:   154  of   288
     total cpu time spent up to now is      498.6 secs

     Computing kpt #:   155  of   288
     total cpu time spent up to now is      501.3 secs

     Computing kpt #:   156  of   288
     total cpu time spent up to now is      504.5 secs

     Computing kpt #:   157  of   288
     total cpu time spent up to now is      507.8 secs

     Computing kpt #:   158  of   288
     total cpu time spent up to now is      511.8 secs

     Computing kpt #:   159  of   288
     total cpu time spent up to now is      514.5 secs

     Computing kpt #:   160  of   288
     total cpu time spent up to now is      517.7 secs

     Computing kpt #:   161  of   288
     total cpu time spent up to now is      520.4 secs

     Computing kpt #:   162  of   288
     total cpu time spent up to now is      523.1 secs

     Computing kpt #:   163  of   288
     total cpu time spent up to now is      525.8 secs

     Computing kpt #:   164  of   288
     total cpu time spent up to now is      529.3 secs

     Computing kpt #:   165  of   288
     total cpu time spent up to now is      532.0 secs

     Computing kpt #:   166  of   288
     total cpu time spent up to now is      534.7 secs

     Computing kpt #:   167  of   288
     total cpu time spent up to now is      537.9 secs

     Computing kpt #:   168  of   288
     total cpu time spent up to now is      540.6 secs

     Computing kpt #:   169  of   288
     total cpu time spent up to now is      543.8 secs

     Computing kpt #:   170  of   288
     total cpu time spent up to now is      546.6 secs

     Computing kpt #:   171  of   288
     total cpu time spent up to now is      549.7 secs

     Computing kpt #:   172  of   288
     total cpu time spent up to now is      553.8 secs

     Computing kpt #:   173  of   288
     total cpu time spent up to now is      557.0 secs

     Computing kpt #:   174  of   288
     total cpu time spent up to now is      559.9 secs

     Computing kpt #:   175  of   288
     total cpu time spent up to now is      562.6 secs

     Computing kpt #:   176  of   288
     total cpu time spent up to now is      565.4 secs

     Computing kpt #:   177  of   288
     total cpu time spent up to now is      568.7 secs

     Computing kpt #:   178  of   288
     total cpu time spent up to now is      572.4 secs

     Computing kpt #:   179  of   288
     total cpu time spent up to now is      577.0 secs

     Computing kpt #:   180  of   288
     total cpu time spent up to now is      580.0 secs

     Computing kpt #:   181  of   288
     total cpu time spent up to now is      582.7 secs

     Computing kpt #:   182  of   288
     total cpu time spent up to now is      585.9 secs

     Computing kpt #:   183  of   288
     total cpu time spent up to now is      589.0 secs

     Computing kpt #:   184  of   288
     total cpu time spent up to now is      592.1 secs

     Computing kpt #:   185  of   288
     total cpu time spent up to now is      594.7 secs

     Computing kpt #:   186  of   288
     total cpu time spent up to now is      597.9 secs

     Computing kpt #:   187  of   288
     total cpu time spent up to now is      600.6 secs

     Computing kpt #:   188  of   288
     total cpu time spent up to now is      603.3 secs

     Computing kpt #:   189  of   288
     total cpu time spent up to now is      606.0 secs

     Computing kpt #:   190  of   288
     total cpu time spent up to now is      608.6 secs

     Computing kpt #:   191  of   288
     total cpu time spent up to now is      611.7 secs

     Computing kpt #:   192  of   288
     total cpu time spent up to now is      614.3 secs

     Computing kpt #:   193  of   288
     total cpu time spent up to now is      617.1 secs

     Computing kpt #:   194  of   288
     total cpu time spent up to now is      620.2 secs

     Computing kpt #:   195  of   288
     total cpu time spent up to now is      623.5 secs

     Computing kpt #:   196  of   288
     total cpu time spent up to now is      626.2 secs

     Computing kpt #:   197  of   288
     total cpu time spent up to now is      629.0 secs

     Computing kpt #:   198  of   288
     total cpu time spent up to now is      631.7 secs

     Computing kpt #:   199  of   288
     total cpu time spent up to now is      634.8 secs

     Computing kpt #:   200  of   288
     total cpu time spent up to now is      637.4 secs

     Computing kpt #:   201  of   288
     total cpu time spent up to now is      640.4 secs

     Computing kpt #:   202  of   288
     total cpu time spent up to now is      643.2 secs

     Computing kpt #:   203  of   288
     total cpu time spent up to now is      645.8 secs

     Computing kpt #:   204  of   288
     total cpu time spent up to now is      648.9 secs

     Computing kpt #:   205  of   288
     total cpu time spent up to now is      651.8 secs

     Computing kpt #:   206  of   288
     total cpu time spent up to now is      654.5 secs

     Computing kpt #:   207  of   288
     total cpu time spent up to now is      657.2 secs

     Computing kpt #:   208  of   288
     total cpu time spent up to now is      660.5 secs

     Computing kpt #:   209  of   288
     total cpu time spent up to now is      663.4 secs

     Computing kpt #:   210  of   288
     total cpu time spent up to now is      666.6 secs

     Computing kpt #:   211  of   288
     total cpu time spent up to now is      669.4 secs

     Computing kpt #:   212  of   288
     total cpu time spent up to now is      672.6 secs

     Computing kpt #:   213  of   288
     total cpu time spent up to now is      675.3 secs

     Computing kpt #:   214  of   288
     total cpu time spent up to now is      678.3 secs

     Computing kpt #:   215  of   288
     total cpu time spent up to now is      681.5 secs

     Computing kpt #:   216  of   288
     total cpu time spent up to now is      684.2 secs

     Computing kpt #:   217  of   288
     total cpu time spent up to now is      687.0 secs

     Computing kpt #:   218  of   288
     total cpu time spent up to now is      689.9 secs

     Computing kpt #:   219  of   288
     total cpu time spent up to now is      692.8 secs

     Computing kpt #:   220  of   288
     total cpu time spent up to now is      695.8 secs

     Computing kpt #:   221  of   288
     total cpu time spent up to now is      698.6 secs

     Computing kpt #:   222  of   288
     total cpu time spent up to now is      701.2 secs

     Computing kpt #:   223  of   288
     total cpu time spent up to now is      704.3 secs

     Computing kpt #:   224  of   288
     total cpu time spent up to now is      706.9 secs

     Computing kpt #:   225  of   288
     total cpu time spent up to now is      710.0 secs

     Computing kpt #:   226  of   288
     total cpu time spent up to now is      712.7 secs

     Computing kpt #:   227  of   288
     total cpu time spent up to now is      715.4 secs

     Computing kpt #:   228  of   288
     total cpu time spent up to now is      718.2 secs

     Computing kpt #:   229  of   288
     total cpu time spent up to now is      724.9 secs

     Computing kpt #:   230  of   288
     total cpu time spent up to now is      727.6 secs

     Computing kpt #:   231  of   288
     total cpu time spent up to now is      730.2 secs

     Computing kpt #:   232  of   288
     total cpu time spent up to now is      732.9 secs

     Computing kpt #:   233  of   288
     total cpu time spent up to now is      735.6 secs

     Computing kpt #:   234  of   288
     total cpu time spent up to now is      738.8 secs

     Computing kpt #:   235  of   288
     total cpu time spent up to now is      742.0 secs

     Computing kpt #:   236  of   288
     total cpu time spent up to now is      745.2 secs

     Computing kpt #:   237  of   288
     total cpu time spent up to now is      748.1 secs

     Computing kpt #:   238  of   288
     total cpu time spent up to now is      751.4 secs

     Computing kpt #:   239  of   288
     total cpu time spent up to now is      754.2 secs

     Computing kpt #:   240  of   288
     total cpu time spent up to now is      757.0 secs

     Computing kpt #:   241  of   288
     total cpu time spent up to now is      759.8 secs

     Computing kpt #:   242  of   288
     total cpu time spent up to now is      762.6 secs

     Computing kpt #:   243  of   288
     total cpu time spent up to now is      765.4 secs

     Computing kpt #:   244  of   288
     total cpu time spent up to now is      768.2 secs

     Computing kpt #:   245  of   288
     total cpu time spent up to now is      771.3 secs

     Computing kpt #:   246  of   288
     total cpu time spent up to now is      774.3 secs

     Computing kpt #:   247  of   288
     total cpu time spent up to now is      777.1 secs

     Computing kpt #:   248  of   288
     total cpu time spent up to now is      779.8 secs

     Computing kpt #:   249  of   288
     total cpu time spent up to now is      782.6 secs

     Computing kpt #:   250  of   288
     total cpu time spent up to now is      785.3 secs

     Computing kpt #:   251  of   288
[...]
     1.0000   1.0000   1.0000   1.0000   1.0000   1.0000   1.0000   1.0000
     1.0000   1.0000   1.0000   1.0000   1.0000   1.0000   1.0000   1.0000
     1.0000   1.0000   1.0000   1.0000   1.0000   1.0000   1.0000   1.0000
     1.0000   1.0000   1.0000   1.0000   1.0000   1.0000   1.0000   1.0000
     1.0000   1.0000   1.0000   1.0000   1.0000   1.0000   1.0000   1.0000
     1.0000   1.0000   1.0000   1.0000   1.0000   1.0000   1.0000   1.0000
     1.0000   1.0000   1.0000   1.0000   1.0000   1.0000   0.0000   0.0000
     0.0000   0.0000   0.0000   0.0000   0.0000   0.0000   0.0000   0.0000
     0.0000   0.0000   0.0000   0.0000   0.0000   0.0000   0.0000   0.0000
     0.0000   0.0000   0.0000   0.0000   0.0000   0.0000

          k =-0.1667-0.9623 0.2408 ( 11532 PWs)   bands (ev):

  -197.4726-197.4726-197.4079-197.4079-197.4079-197.4079-142.3809-142.3809
  -142.3809-142.3809-140.9334-140.9334-140.8637-140.8637-140.8630-140.8630
  -135.0678-135.0678-135.0467-135.0467-135.0004-135.0004-134.9995-134.9995
  -134.9735-134.9735-134.9730-134.9730 -98.9909 -98.9909 -98.9909 -98.9909
   -74.2626 -74.2626 -74.2626 -74.2626 -74.2586 -74.2586 -74.2586 -74.2586
   -37.7218 -37.7218 -37.6940 -37.6940 -37.6424 -37.6424 -37.6399 -37.6399
   -37.6077 -37.6077 -37.6069 -37.6069 -36.8290 -36.8290 -36.8181 -36.8181
   -36.7932 -36.7932 -36.7501 -36.7501 -36.7475 -36.7475 -36.7353 -36.7353
   -36.7334 -36.7334 -36.7055 -36.7055 -36.7046 -36.7046 -13.9308 -13.9308
   -13.9304 -13.9304 -13.9212 -13.9212 -13.9197 -13.9197 -10.9464 -10.9464
   -10.9437 -10.9437 -10.9316 -10.9316 -10.9306 -10.9306 -10.9260 -10.9260
   -10.9228 -10.9228  -3.4038  -3.4038  -2.5004  -2.5004  -2.1171  -2.1171
     0.5572   0.5572   1.2224   1.2224   6.7372   6.7372   6.9519   6.9519
     7.2846   7.2846   7.7512   7.7512   8.1247   8.1247   8.8144   8.8144
     9.5340   9.5340   9.8026   9.8026  10.1143  10.1143  11.0984  11.0984
    11.7444  11.7444  12.5055  12.5055  13.4743  13.4743  13.8508  13.8508
    14.3537  14.3537  15.3239  15.3239  16.2658  16.2658  17.8405  17.8405
    18.1960  18.1960  18.6482  18.6482  18.9285  18.9285

     occupation numbers 
     1.0000   1.0000   1.0000   1.0000   1.0000   1.0000   1.0000   1.0000
     1.0000   1.0000   1.0000   1.0000   1.0000   1.0000   1.0000   1.0000
     1.0000   1.0000   1.0000   1.0000   1.0000   1.0000   1.0000   1.0000
     1.0000   1.0000   1.0000   1.0000   1.0000   1.0000   1.0000   1.0000
     1.0000   1.0000   1.0000   1.0000   1.0000   1.0000   1.0000   1.0000
     1.0000   1.0000   1.0000   1.0000   1.0000   1.0000   1.0000   1.0000
     1.0000   1.0000   1.0000   1.0000   1.0000   1.0000   1.0000   1.0000
     1.0000   1.0000   1.0000   1.0000   1.0000   1.0000   1.0000   1.0000
     1.0000   1.0000   1.0000   1.0000   1.0000   1.0000   1.0000   1.0000
     1.0000   1.0000   1.0000   1.0000   1.0000   1.0000   1.0000   1.0000
     1.0000   1.0000   1.0000   1.0000   1.0000   1.0000   1.0000   1.0000
     1.0000   1.0000   1.0000   1.0000   1.0000   1.0000   1.0000   1.0000
     1.0000   1.0000   1.0000   1.0000   1.0000   1.0000   1.0000   1.0000
     1.0000   1.0000   1.0000   1.0000   1.0000   1.0000   1.0000   1.0000
     1.0000   1.0000   1.0000   1.0000   1.0019   1.0019   0.0000   0.0000
     0.0000   0.0000   0.0000   0.0000   0.0000   0.0000   0.0000   0.0000
     0.0000   0.0000   0.0000   0.0000   0.0000   0.0000   0.0000   0.0000
     0.0000   0.0000   0.0000   0.0000   0.0000   0.0000

          k =-0.1667-0.9623 0.4575 ( 11522 PWs)   bands (ev):

  -197.4726-197.4726-197.4079-197.4079-197.4079-197.4079-142.3809-142.3809
  -142.3809-142.3809-140.9331-140.9331-140.8632-140.8632-140.8627-140.8627
  -135.0672-135.0672-135.0466-135.0466-134.9997-134.9997-134.9990-134.9990
  -134.9734-134.9734-134.9730-134.9730 -98.9909 -98.9909 -98.9909 -98.9909
   -74.2626 -74.2626 -74.2626 -74.2626 -74.2586 -74.2586 -74.2586 -74.2586
   -37.7206 -37.7206 -37.6939 -37.6939 -37.6403 -37.6403 -37.6396 -37.6396
   -37.6076 -37.6076 -37.6069 -37.6069 -36.8274 -36.8274 -36.8179 -36.8179
   -36.7932 -36.7932 -36.7477 -36.7477 -36.7466 -36.7466 -36.7345 -36.7345
   -36.7339 -36.7339 -36.7054 -36.7054 -36.7045 -36.7045 -13.9308 -13.9308
   -13.9304 -13.9304 -13.9212 -13.9212 -13.9197 -13.9197 -10.9464 -10.9464
   -10.9437 -10.9437 -10.9316 -10.9316 -10.9306 -10.9306 -10.9258 -10.9258
   -10.9229 -10.9229  -3.3083  -3.3083  -2.8353  -2.8353  -1.7909  -1.7909
     0.3466   0.3466   1.3394   1.3394   6.4892   6.4892   6.9733   6.9733
     7.4866   7.4866   8.2069   8.2069   8.4968   8.4968   8.8046   8.8046
     8.9516   8.9516   9.1478   9.1478   9.9706   9.9706  11.3760  11.3760
    12.1127  12.1127  12.8617  12.8617  13.3785  13.3785  13.8087  13.8087
    14.0933  14.0933  15.7788  15.7788  16.4572  16.4572  16.8875  16.8875
    17.5289  17.5289  18.5606  18.5606  18.9771  18.9771

     occupation numbers 
     1.0000   1.0000   1.0000   1.0000   1.0000   1.0000   1.0000   1.0000
     1.0000   1.0000   1.0000   1.0000   1.0000   1.0000   1.0000   1.0000
     1.0000   1.0000   1.0000   1.0000   1.0000   1.0000   1.0000   1.0000
     1.0000   1.0000   1.0000   1.0000   1.0000   1.0000   1.0000   1.0000
     1.0000   1.0000   1.0000   1.0000   1.0000   1.0000   1.0000   1.0000
     1.0000   1.0000   1.0000   1.0000   1.0000   1.0000   1.0000   1.0000
     1.0000   1.0000   1.0000   1.0000   1.0000   1.0000   1.0000   1.0000
     1.0000   1.0000   1.0000   1.0000   1.0000   1.0000   1.0000   1.0000
     1.0000   1.0000   1.0000   1.0000   1.0000   1.0000   1.0000   1.0000
     1.0000   1.0000   1.0000   1.0000   1.0000   1.0000   1.0000   1.0000
     1.0000   1.0000   1.0000   1.0000   1.0000   1.0000   1.0000   1.0000
     1.0000   1.0000   1.0000   1.0000   1.0000   1.0000   1.0000   1.0000
     1.0000   1.0000   1.0000   1.0000   1.0000   1.0000   1.0000   1.0000
     1.0000   1.0000   1.0000   1.0000   1.0000   1.0000   1.0000   1.0000
     1.0000   1.0000   1.0000   1.0000   1.0000   1.0000   0.0000   0.0000
     0.0000   0.0000   0.0000   0.0000   0.0000   0.0000   0.0000   0.0000
     0.0000   0.0000   0.0000   0.0000   0.0000   0.0000   0.0000   0.0000
     0.0000   0.0000   0.0000   0.0000   0.0000   0.0000

          k =-0.0833-1.0104 0.2528 ( 11527 PWs)   bands (ev):

  -197.4726-197.4726-197.4079-197.4079-197.4079-197.4079-142.3809-142.3809
  -142.3809-142.3809-140.9331-140.9331-140.8633-140.8633-140.8626-140.8626
  -135.0677-135.0677-135.0462-135.0462-134.9999-134.9999-134.9997-134.9997
  -134.9735-134.9735-134.9720-134.9720 -98.9909 -98.9909 -98.9909 -98.9909
   -74.2626 -74.2626 -74.2626 -74.2626 -74.2586 -74.2586 -74.2586 -74.2586
   -37.7214 -37.7214 -37.6930 -37.6930 -37.6414 -37.6414 -37.6401 -37.6401
   -37.6074 -37.6074 -37.6053 -37.6053 -36.8286 -36.8286 -36.8178 -36.8178
   -36.7921 -36.7921 -36.7489 -36.7489 -36.7476 -36.7476 -36.7345 -36.7345
   -36.7336 -36.7336 -36.7054 -36.7054 -36.7024 -36.7024 -13.9320 -13.9320
   -13.9316 -13.9316 -13.9213 -13.9213 -13.9195 -13.9195 -10.9475 -10.9475
   -10.9450 -10.9450 -10.9302 -10.9302 -10.9299 -10.9299 -10.9272 -10.9272
   -10.9246 -10.9246  -3.6366  -3.6366  -2.6125  -2.6125  -2.3138  -2.3138
     0.6858   0.6858   1.4287   1.4287   7.2231   7.2231   7.3454   7.3454
     7.9174   7.9174   8.3295   8.3295   8.6099   8.6099   8.7639   8.7639
     9.5507   9.5507   9.8539   9.8539  10.0591  10.0591  11.1824  11.1824
    11.4005  11.4005  12.6189  12.6189  13.1668  13.1668  13.5670  13.5670
    13.9057  13.9057  15.8965  15.8965  16.1065  16.1065  17.6884  17.6884
    18.0695  18.0695  18.2809  18.2809  18.5566  18.5566

     occupation numbers 
     1.0000   1.0000   1.0000   1.0000   1.0000   1.0000   1.0000   1.0000
     1.0000   1.0000   1.0000   1.0000   1.0000   1.0000   1.0000   1.0000
     1.0000   1.0000   1.0000   1.0000   1.0000   1.0000   1.0000   1.0000
     1.0000   1.0000   1.0000   1.0000   1.0000   1.0000   1.0000   1.0000
     1.0000   1.0000   1.0000   1.0000   1.0000   1.0000   1.0000   1.0000
     1.0000   1.0000   1.0000   1.0000   1.0000   1.0000   1.0000   1.0000
     1.0000   1.0000   1.0000   1.0000   1.0000   1.0000   1.0000   1.0000
     1.0000   1.0000   1.0000   1.0000   1.0000   1.0000   1.0000   1.0000
     1.0000   1.0000   1.0000   1.0000   1.0000   1.0000   1.0000   1.0000
     1.0000   1.0000   1.0000   1.0000   1.0000   1.0000   1.0000   1.0000
     1.0000   1.0000   1.0000   1.0000   1.0000   1.0000   1.0000   1.0000
     1.0000   1.0000   1.0000   1.0000   1.0000   1.0000   1.0000   1.0000
     1.0000   1.0000   1.0000   1.0000   1.0000   1.0000   1.0000   1.0000
     1.0000   1.0000   1.0000   1.0000   1.0000   1.0000   1.0000   1.0000
     1.0000   1.0000   1.0000   1.0000   1.0001   1.0001   0.0000   0.0000
     0.0000   0.0000   0.0000   0.0000   0.0000   0.0000   0.0000   0.0000
     0.0000   0.0000   0.0000   0.0000   0.0000   0.0000   0.0000   0.0000
     0.0000   0.0000   0.0000   0.0000   0.0000   0.0000

          k =-0.0833-1.0104 0.4696 ( 11513 PWs)   bands (ev):

  -197.4726-197.4726-197.4079-197.4079-197.4079-197.4079-142.3809-142.3809
  -142.3809-142.3809-140.9324-140.9324-140.8636-140.8636-140.8611-140.8611
  -135.0667-135.0667-135.0459-135.0459-134.9999-134.9999-134.9978-134.9978
  -134.9738-134.9738-134.9712-134.9712 -98.9909 -98.9909 -98.9909 -98.9909
   -74.2626 -74.2626 -74.2626 -74.2626 -74.2586 -74.2586 -74.2586 -74.2586
   -37.7197 -37.7197 -37.6926 -37.6926 -37.6406 -37.6406 -37.6375 -37.6375
   -37.6081 -37.6081 -37.6038 -37.6038 -36.8264 -36.8264 -36.8172 -36.8172
   -36.7917 -36.7917 -36.7478 -36.7478 -36.7443 -36.7443 -36.7347 -36.7347
   -36.7322 -36.7322 -36.7059 -36.7059 -36.7011 -36.7011 -13.9320 -13.9320
   -13.9316 -13.9316 -13.9213 -13.9213 -13.9195 -13.9195 -10.9475 -10.9475
   -10.9450 -10.9450 -10.9303 -10.9303 -10.9298 -10.9298 -10.9271 -10.9271
   -10.9246 -10.9246  -3.5190  -3.5190  -3.0575  -3.0575  -1.8470  -1.8470
     0.2870   0.2870   1.7069   1.7069   7.2610   7.2610   7.3715   7.3715
     7.6524   7.6524   8.4236   8.4236   8.8455   8.8455   9.0272   9.0272
     9.2450   9.2450   9.7134   9.7134   9.9099   9.9099  11.2487  11.2487
    11.5688  11.5688  12.5636  12.5636  12.9339  12.9339  13.7958  13.7958
    13.9896  13.9896  16.1468  16.1468  16.4601  16.4601  17.0273  17.0273
    17.5591  17.5591  17.8693  17.8693  18.6592  18.6592

     occupation numbers 
     1.0000   1.0000   1.0000   1.0000   1.0000   1.0000   1.0000   1.0000
     1.0000   1.0000   1.0000   1.0000   1.0000   1.0000   1.0000   1.0000
     1.0000   1.0000   1.0000   1.0000   1.0000   1.0000   1.0000   1.0000
     1.0000   1.0000   1.0000   1.0000   1.0000   1.0000   1.0000   1.0000
     1.0000   1.0000   1.0000   1.0000   1.0000   1.0000   1.0000   1.0000
     1.0000   1.0000   1.0000   1.0000   1.0000   1.0000   1.0000   1.0000
     1.0000   1.0000   1.0000   1.0000   1.0000   1.0000   1.0000   1.0000
     1.0000   1.0000   1.0000   1.0000   1.0000   1.0000   1.0000   1.0000
     1.0000   1.0000   1.0000   1.0000   1.0000   1.0000   1.0000   1.0000
     1.0000   1.0000   1.0000   1.0000   1.0000   1.0000   1.0000   1.0000
     1.0000   1.0000   1.0000   1.0000   1.0000   1.0000   1.0000   1.0000
     1.0000   1.0000   1.0000   1.0000   1.0000   1.0000   1.0000   1.0000
     1.0000   1.0000   1.0000   1.0000   1.0000   1.0000   1.0000   1.0000
     1.0000   1.0000   1.0000   1.0000   1.0000   1.0000   1.0000   1.0000
     1.0000   1.0000   1.0000   1.0000   1.0000   1.0000   0.0000   0.0000
     0.0000   0.0000   0.0000   0.0000   0.0000   0.0000   0.0000   0.0000
     0.0000   0.0000   0.0000   0.0000   0.0000   0.0000   0.0000   0.0000
     0.0000   0.0000   0.0000   0.0000   0.0000   0.0000

          k = 0.0000-1.0585 0.2649 ( 11544 PWs)   bands (ev):

  -197.4726-197.4726-197.4079-197.4079-197.4079-197.4079-142.3809-142.3809
  -142.3809-142.3809-140.9336-140.9336-140.8642-140.8642-140.8628-140.8628
  -135.0682-135.0682-135.0466-135.0466-135.0006-135.0006-135.0001-135.0001
  -134.9743-134.9743-134.9721-134.9721 -98.9909 -98.9909 -98.9909 -98.9909
   -74.2626 -74.2626 -74.2626 -74.2626 -74.2586 -74.2586 -74.2586 -74.2586
   -37.7225 -37.7225 -37.6938 -37.6938 -37.6421 -37.6421 -37.6416 -37.6416
   -37.6088 -37.6088 -37.6054 -37.6054 -36.8298 -36.8298 -36.8186 -36.8186
   -36.7929 -36.7929 -36.7500 -36.7500 -36.7490 -36.7490 -36.7355 -36.7355
   -36.7341 -36.7341 -36.7066 -36.7066 -36.7025 -36.7025 -13.9326 -13.9326
   -13.9323 -13.9323 -13.9213 -13.9213 -13.9193 -13.9193 -10.9487 -10.9487
   -10.9462 -10.9462 -10.9298 -10.9298 -10.9292 -10.9292 -10.9269 -10.9269
   -10.9254 -10.9254  -3.7575  -3.7575  -2.6506  -2.6506  -2.4450  -2.4450
     0.7481   0.7481   1.5285   1.5285   7.5176   7.5176   7.7458   7.7458
     8.4163   8.4163   8.5479   8.5479   8.8472   8.8472   9.1181   9.1181
     9.4413   9.4413   9.5809   9.5809  10.0939  10.0939  10.9115  10.9115
    11.6655  11.6655  12.1069  12.1069  12.9042  12.9042  13.5302  13.5302
    13.8795  13.8795  16.2360  16.2360  16.3635  16.3635  17.4511  17.4511
    17.8152  17.8152  17.9700  17.9700  18.1583  18.1583

     occupation numbers 
     1.0000   1.0000   1.0000   1.0000   1.0000   1.0000   1.0000   1.0000
     1.0000   1.0000   1.0000   1.0000   1.0000   1.0000   1.0000   1.0000
     1.0000   1.0000   1.0000   1.0000   1.0000   1.0000   1.0000   1.0000
     1.0000   1.0000   1.0000   1.0000   1.0000   1.0000   1.0000   1.0000
     1.0000   1.0000   1.0000   1.0000   1.0000   1.0000   1.0000   1.0000
     1.0000   1.0000   1.0000   1.0000   1.0000   1.0000   1.0000   1.0000
     1.0000   1.0000   1.0000   1.0000   1.0000   1.0000   1.0000   1.0000
     1.0000   1.0000   1.0000   1.0000   1.0000   1.0000   1.0000   1.0000
     1.0000   1.0000   1.0000   1.0000   1.0000   1.0000   1.0000   1.0000
     1.0000   1.0000   1.0000   1.0000   1.0000   1.0000   1.0000   1.0000
     1.0000   1.0000   1.0000   1.0000   1.0000   1.0000   1.0000   1.0000
     1.0000   1.0000   1.0000   1.0000   1.0000   1.0000   1.0000   1.0000
     1.0000   1.0000   1.0000   1.0000   1.0000   1.0000   1.0000   1.0000
     1.0000   1.0000   1.0000   1.0000   1.0000   1.0000   1.0000   1.0000
     1.0000   1.0000   1.0000   1.0000   1.0007   1.0007   0.0000   0.0000
     0.0000   0.0000   0.0000   0.0000   0.0000   0.0000   0.0000   0.0000
     0.0000   0.0000   0.0000   0.0000   0.0000   0.0000   0.0000   0.0000
     0.0000   0.0000   0.0000   0.0000   0.0000   0.0000

          k = 0.0000-1.0585 0.4816 ( 11518 PWs)   bands (ev):

  -197.4726-197.4726-197.4079-197.4079-197.4079-197.4079-142.3809-142.3809
  -142.3809-142.3809-140.9324-140.9324-140.8633-140.8633-140.8612-140.8612
  -135.0666-135.0666-135.0459-135.0459-134.9997-134.9997-134.9977-134.9977
  -134.9735-134.9735-134.9716-134.9716 -98.9909 -98.9909 -98.9909 -98.9909
   -74.2626 -74.2626 -74.2626 -74.2626 -74.2586 -74.2586 -74.2586 -74.2586
   -37.7193 -37.7193 -37.6926 -37.6926 -37.6401 -37.6401 -37.6373 -37.6373
   -37.6075 -37.6075 -37.6044 -37.6044 -36.8260 -36.8260 -36.8170 -36.8170
   -36.7919 -36.7919 -36.7476 -36.7476 -36.7439 -36.7439 -36.7338 -36.7338
   -36.7326 -36.7326 -36.7054 -36.7054 -36.7017 -36.7017 -13.9326 -13.9326
   -13.9323 -13.9323 -13.9213 -13.9213 -13.9193 -13.9193 -10.9487 -10.9487
   -10.9462 -10.9462 -10.9297 -10.9297 -10.9292 -10.9292 -10.9269 -10.9269
   -10.9255 -10.9255  -3.6258  -3.6258  -3.1781  -3.1781  -1.8787  -1.8787
     0.2424   0.2424   1.9092   1.9092   7.3628   7.3628   7.8671   7.8671
     8.2502   8.2502   8.6396   8.6396   8.7895   8.7895   9.0193   9.0193
     9.4779   9.4779   9.9460   9.9460  10.0364  10.0364  11.0065  11.0065
    11.3019  11.3019  12.3818  12.3818  12.7421  12.7421  13.6222  13.6222
    13.7849  13.7849  16.0619  16.0619  16.6871  16.6871  17.3682  17.3682
    17.5066  17.5066  17.7067  17.7067  18.7568  18.7568

     occupation numbers 
     1.0000   1.0000   1.0000   1.0000   1.0000   1.0000   1.0000   1.0000
     1.0000   1.0000   1.0000   1.0000   1.0000   1.0000   1.0000   1.0000
     1.0000   1.0000   1.0000   1.0000   1.0000   1.0000   1.0000   1.0000
     1.0000   1.0000   1.0000   1.0000   1.0000   1.0000   1.0000   1.0000
     1.0000   1.0000   1.0000   1.0000   1.0000   1.0000   1.0000   1.0000
     1.0000   1.0000   1.0000   1.0000   1.0000   1.0000   1.0000   1.0000
     1.0000   1.0000   1.0000   1.0000   1.0000   1.0000   1.0000   1.0000
     1.0000   1.0000   1.0000   1.0000   1.0000   1.0000   1.0000   1.0000
     1.0000   1.0000   1.0000   1.0000   1.0000   1.0000   1.0000   1.0000
     1.0000   1.0000   1.0000   1.0000   1.0000   1.0000   1.0000   1.0000
     1.0000   1.0000   1.0000   1.0000   1.0000   1.0000   1.0000   1.0000
     1.0000   1.0000   1.0000   1.0000   1.0000   1.0000   1.0000   1.0000
     1.0000   1.0000   1.0000   1.0000   1.0000   1.0000   1.0000   1.0000
     1.0000   1.0000   1.0000   1.0000   1.0000   1.0000   1.0000   1.0000
     1.0000   1.0000   1.0000   1.0000   1.0000   1.0000   0.0000   0.0000
     0.0000   0.0000   0.0000   0.0000   0.0000   0.0000   0.0000   0.0000
     0.0000   0.0000   0.0000   0.0000   0.0000   0.0000   0.0000   0.0000
     0.0000   0.0000   0.0000   0.0000   0.0000   0.0000

     the Fermi energy is    10.4093 ev
     (compare with:    10.4004 eV, computed in scf)

     Writing output data file ./wfc-out/bi2se3.save/
 
     init_run     :      0.34s CPU      0.42s WALL (       1 calls)
     electrons    :    862.84s CPU    902.43s WALL (       1 calls)

     Called by init_run:
     wfcinit      :      0.00s CPU      0.00s WALL (       1 calls)
     wfcinit:atom :      0.29s CPU      0.56s WALL (     288 calls)
     wfcinit:wfcr :     29.15s CPU     31.15s WALL (     288 calls)
     potinit      :      0.02s CPU      0.04s WALL (       1 calls)
     hinit0       :      0.19s CPU      0.24s WALL (       1 calls)

     Called by electrons:
     c_bands      :    862.79s CPU    902.29s WALL (       1 calls)
     v_of_rho     :      0.01s CPU      0.01s WALL (       1 calls)
     v_h          :      0.00s CPU      0.00s WALL (       1 calls)
     v_xc         :      0.01s CPU      0.01s WALL (       1 calls)

     Called by c_bands:
     init_us_2    :      0.13s CPU      0.18s WALL (     288 calls)
     cegterg      :    776.07s CPU    806.20s WALL (     688 calls)

     Called by sum_band:

     Called by *egterg:
     cdiaghg      :    210.36s CPU    211.56s WALL (   11715 calls)
     cegterg:over :     80.48s CPU     81.74s WALL (   11427 calls)
     cegterg:upda :     44.11s CPU     45.27s WALL (   11427 calls)
     cegterg:last :     62.36s CPU     62.92s WALL (    4514 calls)
     h_psi        :    366.93s CPU    387.33s WALL (   12403 calls)
     g_psi        :      2.31s CPU      2.36s WALL (   11427 calls)

     Called by h_psi:
     h_psi:calbec :     30.87s CPU     31.52s WALL (   12403 calls)
     vloc_psi     :    294.04s CPU    310.55s WALL (   12403 calls)
     add_vuspsi   :     37.58s CPU     38.51s WALL (   12403 calls)

     General routines
     calbec       :     30.80s CPU     31.47s WALL (   12403 calls)
     fft          :      0.04s CPU      0.09s WALL (      18 calls)
     ffts         :      0.00s CPU      0.00s WALL (       4 calls)
     fftw         :    240.13s CPU    253.70s WALL ( 2677136 calls)
     interpolate  :      0.00s CPU      0.00s WALL (       4 calls)
     davcio       :      0.23s CPU      7.45s WALL (     576 calls)
 
     Parallel routines
     fft_scatt_xy :     34.18s CPU     36.09s WALL ( 2677158 calls)
     fft_scatt_yz :    122.63s CPU    129.88s WALL ( 2677158 calls)
 
     PWSCF        :  14m51.93s CPU  17m34.64s WALL

 
   This run was terminated on:  13:58: 2   9May2023            

=------------------------------------------------------------------------------=
   JOB DONE.
=------------------------------------------------------------------------------=
