 vasp.5.4.4.18Apr17-6-g9f103f2a35 (build Sep 16 2021 13:51:27) complex          
  
 executed on             LinuxIFC date 2023.03.16  11:28:58
 running on   24 total cores
 distrk:  each k-point on   24 cores,    1 groups
 distr:  one band on NCORES_PER_BAND=  24 cores,    1 groups


--------------------------------------------------------------------------------------------------------


 INCAR:
 POTCAR:    PAW_PBE Sn 08Apr2002                  
 POTCAR:    PAW_PBE Se 06Sep2000                  

 ----------------------------------------------------------------------------- 
|                                                                             |
|           W    W    AA    RRRRR   N    N  II  N    N   GGGG   !!!           |
|           W    W   A  A   R    R  NN   N  II  NN   N  G    G  !!!           |
|           W    W  A    A  R    R  N N  N  II  N N  N  G       !!!           |
|           W WW W  AAAAAA  RRRRR   N  N N  II  N  N N  G  GGG   !            |
|           WW  WW  A    A  R   R   N   NN  II  N   NN  G    G                |
|           W    W  A    A  R    R  N    N  II  N    N   GGGG   !!!           |
|                                                                             |
|      For optimal performance we recommend to set                            |
|        NCORE= 4 - approx SQRT( number of cores)                             |
|      NCORE specifies how many cores store one orbital (NPAR=cpu/NCORE).     |
|      This setting can  greatly improve the performance of VASP for DFT.     |
|      The default,   NCORE=1            might be grossly inefficient         |
|      on modern multi-core architectures or massively parallel machines.     |
|      Do your own testing !!!!                                               |
|      Unfortunately you need to use the default for GW and RPA calculations. |
|      (for HF NCORE is supported but not extensively tested yet)             |
|                                                                             |
 ----------------------------------------------------------------------------- 

 POTCAR:    PAW_PBE Sn 08Apr2002                  
   VRHFIN =Sn: s2p2                                                             
   LEXCH  = PE                                                                  
   EATOM  =    94.0860 eV,    6.9151 Ry                                         
                                                                                
   TITEL  = PAW_PBE Sn 08Apr2002                                                
   LULTRA =        F    use ultrasoft PP ?                                      
   IUNSCR =        1    unscreen: 0-lin 1-nonlin 2-no                           
   RPACOR =    2.000    partial core radius                                     
   POMASS =  118.710; ZVAL   =    4.000    mass and valenz                      
   RCORE  =    3.000    outmost cutoff radius                                   
   RWIGS  =    2.960; RWIGS  =    1.566    wigner-seitz radius (au A)           
   ENMAX  =  103.236; ENMIN  =   77.427 eV                                      
   ICORE  =        3    local potential                                         
   LCOR   =        T    correct aug charges                                     
   LPAW   =        T    paw PP                                                  
   EAUG   =  263.585                                                            
   DEXC   =    0.000                                                            
   RMAX   =    3.078    core radius for proj-oper                               
   RAUG   =    1.300    factor for augmentation sphere                          
   RDEP   =    3.022    radius for radial grids                                 
   RDEPT  =    2.655    core radius for aug-charge                              
                                                                                
   Atomic configuration                                                         
   13 entries                                                                   
     n  l   j            E        occ.                                          
     1  0  0.50    -29007.2859   2.0000                                         
     2  0  0.50     -4378.8056   2.0000                                         
     2  1  1.50     -3930.4293   6.0000                                         
     3  0  0.50      -845.0264   2.0000                                         
     3  1  1.50      -698.5725   6.0000                                         
     3  2  2.50      -473.2839  10.0000                                         
     4  0  0.50      -133.9036   2.0000                                         
     4  1  1.50       -89.6752   6.0000                                         
     4  2  2.50       -25.8375  10.0000                                         
     5  0  0.50       -10.5484   2.0000                                         
     5  1  0.50        -3.6940   2.0000                                         
     5  2  1.50        -1.3606   0.0000                                         
     4  3  2.50        -4.0817   0.0000                                         
   Description                                                                  
     l       E           TYP  RCUT    TYP  RCUT                                 
     0    -10.5483727     23  3.000                                             
     0     27.2116520     23  3.000                                             
     1     -3.6939829     23  3.000                                             
     1      1.9821976     23  3.000                                             
     2     -1.3605826     23  3.000                                             
     3     -2.7211652     23  3.000                                             
  local pseudopotential read in
  partial core-charges read in
  partial kinetic energy density read in
  atomic valenz-charges read in
  non local Contribution for L=           0  read in
    real space projection operators read in
  non local Contribution for L=           0  read in
    real space projection operators read in
  non local Contribution for L=           1  read in
    real space projection operators read in
  non local Contribution for L=           1  read in
    real space projection operators read in
  non local Contribution for L=           2  read in
    real space projection operators read in
    PAW grid and wavefunctions read in
 
   number of l-projection  operators is LMAX  =           5
   number of lm-projection operators is LMMAX =          13
 
 POTCAR:    PAW_PBE Se 06Sep2000                  
   VRHFIN =Se: s2p4                                                             
   LEXCH  = PE                                                                  
   EATOM  =   257.1286 eV,   18.8984 Ry                                         
                                                                                
   TITEL  = PAW_PBE Se 06Sep2000                                                
   LULTRA =        F    use ultrasoft PP ?                                      
   IUNSCR =        1    unscreen: 0-lin 1-nonlin 2-no                           
   RPACOR =    1.900    partial core radius                                     
   POMASS =   78.960; ZVAL   =    6.000    mass and valenz                      
   RCORE  =    2.100    outmost cutoff radius                                   
   RWIGS  =    2.200; RWIGS  =    1.164    wigner-seitz radius (au A)           
   ENMAX  =  211.555; ENMIN  =  158.666 eV                                      
   ICORE  =        3    local potential                                         
   LCOR   =        T    correct aug charges                                     
   LPAW   =        T    paw PP                                                  
   EAUG   =  446.842                                                            
   DEXC   =    0.000                                                            
   RMAX   =    2.147    core radius for proj-oper                               
   RAUG   =    1.300    factor for augmentation sphere                          
   RDEP   =    2.177    radius for radial grids                                 
   RDEPT  =    1.928    core radius for aug-charge                              
                                                                                
   Atomic configuration                                                         
   10 entries                                                                   
     n  l   j            E        occ.                                          
     1  0  0.50    -12503.4787   2.0000                                         
     2  0  0.50     -1606.9547   2.0000                                         
     2  1  1.50     -1413.3140   6.0000                                         
     3  0  0.50      -213.4885   2.0000                                         
     3  1  1.50      -152.9538   6.0000                                         
     3  2  2.50       -53.1221  10.0000                                         
     4  0  0.50       -17.2865   2.0000                                         
     4  1  0.50        -6.5110   4.0000                                         
     4  2  2.50        -6.8029   0.0000                                         
     4  3  2.50        -6.8029   0.0000                                         
   Description                                                                  
     l       E           TYP  RCUT    TYP  RCUT                                 
     0    -17.2865377     23  2.100                                             
     0    -15.3094411     23  2.100                                             
     1     -6.5110275     23  2.100                                             
     1     -0.0695192     23  2.100                                             
     2     -6.8029130     23  2.100                                             
     3     -1.3605826      7  2.100                                             
  local pseudopotential read in
  partial core-charges read in
  partial kinetic energy density read in
  atomic valenz-charges read in
  non local Contribution for L=           0  read in
    real space projection operators read in
  non local Contribution for L=           0  read in
    real space projection operators read in
  non local Contribution for L=           1  read in
    real space projection operators read in
  non local Contribution for L=           1  read in
    real space projection operators read in
  non local Contribution for L=           2  read in
    real space projection operators read in
    PAW grid and wavefunctions read in
 
   number of l-projection  operators is LMAX  =           5
   number of lm-projection operators is LMMAX =          13
 
 WARNING: PSMAXN for non-local potential too small
          PSMAXN should be >   12.5490833729506       NTYP=           1
  PAW_PBE Sn 08Apr2002                  :
 energy of atom  1       EATOM=  -94.0860
 kinetic energy error for atom=    0.0000 (will be added to EATOM!!)
  PAW_PBE Se 06Sep2000                  :
 energy of atom  2       EATOM= -257.1286
 kinetic energy error for atom=    0.0006 (will be added to EATOM!!)
 
 
 POSCAR:  POSCAR with strain of -0.007           
  positions in direct lattice
  No initial velocities read in
 exchange correlation table for  LEXCH =        8
   RHO(1)=    0.500       N(1)  =     2000
   RHO(2)=  100.500       N(2)  =     4000
 


--------------------------------------------------------------------------------------------------------


 ion  position               nearest neighbor table
   1  0.581  0.750  0.569-   4 2.72   3 2.90   3 2.92   3 3.20   3 3.22
   2  0.081  0.250  0.431-   3 2.72   4 2.90   4 2.92   4 3.20   4 3.22
   3  0.033  0.250  0.567-   2 2.72   1 2.90   1 2.92   1 3.20   1 3.22
   4  0.533  0.750  0.433-   1 2.72   2 2.90   2 2.92   2 3.20   2 3.22
 
  Warning from LATTYP: Monoclinic adjustement (A1->A3, A2->A1, A3->A2)!
  Warning from LATTYP: Got some problem with cell dimensions!
  Tried to take original basis but could not verify dimensions!
  LATTYP: Found a simple monoclinic cell.
 ALAT       =     6.0879258584
 B/A-ratio  =     3.2851911251
 C/A-ratio  =     1.5886260724
 COS(beta)  =    -0.9483961312
  
  Lattice vectors:
  
 A1 = (  -4.3333922972,  -4.2760440193,   0.0000000000)
 A2 = (   0.0000000000,   0.0000000000, -20.0000000000)
 A3 = (   8.6828813864,   4.2596101815,   0.0000000000)


Analysis of symmetry for initial positions (statically):
=====================================================================
 Subroutine PRICEL returns:
 Original cell was already a primitive cell.
 

 Routine SETGRP: Setting up the symmetry group for a 
 simple monoclinic supercell.


 Subroutine GETGRP returns: Found  2 space group operations
 (whereof  1 operations were pure point group operations)
 out of a pool of  4 trial point group operations.


The static configuration has the point symmetry C_1 .
 The point group associated with its full space group is C_1h.


Analysis of symmetry for dynamics (positions and initial velocities):
=====================================================================
 Subroutine PRICEL returns:
 Original cell was already a primitive cell.
 

 Routine SETGRP: Setting up the symmetry group for a 
 simple monoclinic supercell.


 Subroutine GETGRP returns: Found  2 space group operations
 (whereof  1 operations were pure point group operations)
 out of a pool of  4 trial point group operations.


The dynamic configuration has the point symmetry C_1 .
 The point group associated with its full space group is C_1h.


 Subroutine INISYM returns: Found  2 space group operations
 (whereof  1 operations are pure point group operations),
 and found     1 'primitive' translations

 
 
 KPOINTS: KMesh Grid                              

Automatic generation of k-mesh.
Space group operators:
 irot       det(A)        alpha          n_x          n_y          n_z        tau_x        tau_y        tau_z
    1     1.000000     0.000000     1.000000     0.000000     0.000000     0.000000     0.000000     0.000000
    2    -1.000000   180.000000     0.000000     0.000000     1.000000    -0.500000    -0.500000     0.000000
 
 Subroutine IBZKPT returns following result:
 ===========================================
 
 Found    113 irreducible k-points:
 
 Following reciprocal coordinates:
            Coordinates               Weight
  0.000000  0.000000  0.000000      1.000000
  0.066667 -0.000000  0.000000      2.000000
  0.133333 -0.000000  0.000000      2.000000
  0.200000 -0.000000  0.000000      2.000000
  0.266667  0.000000  0.000000      2.000000
  0.333333 -0.000000  0.000000      2.000000
  0.400000 -0.000000  0.000000      2.000000
  0.466667 -0.000000  0.000000      2.000000
  0.000000  0.066667  0.000000      2.000000
  0.066667  0.066667  0.000000      2.000000
  0.133333  0.066667  0.000000      2.000000
  0.200000  0.066667  0.000000      2.000000
  0.266667  0.066667  0.000000      2.000000
  0.333333  0.066667  0.000000      2.000000
  0.400000  0.066667  0.000000      2.000000
  0.466667  0.066667  0.000000      2.000000
 -0.466667  0.066667  0.000000      2.000000
 -0.400000  0.066667  0.000000      2.000000
 -0.333333  0.066667  0.000000      2.000000
 -0.266667  0.066667  0.000000      2.000000
 -0.200000  0.066667  0.000000      2.000000
 -0.133333  0.066667  0.000000      2.000000
 -0.066667  0.066667  0.000000      2.000000
  0.000000  0.133333  0.000000      2.000000
  0.066667  0.133333  0.000000      2.000000
  0.133333  0.133333  0.000000      2.000000
  0.200000  0.133333  0.000000      2.000000
  0.266667  0.133333  0.000000      2.000000
  0.333333  0.133333  0.000000      2.000000
  0.400000  0.133333  0.000000      2.000000
  0.466667  0.133333  0.000000      2.000000
 -0.466667  0.133333  0.000000      2.000000
 -0.400000  0.133333  0.000000      2.000000
 -0.333333  0.133333  0.000000      2.000000
 -0.266667  0.133333  0.000000      2.000000
 -0.200000  0.133333  0.000000      2.000000
 -0.133333  0.133333  0.000000      2.000000
 -0.066667  0.133333  0.000000      2.000000
  0.000000  0.200000  0.000000      2.000000
  0.066667  0.200000  0.000000      2.000000
  0.133333  0.200000  0.000000      2.000000
  0.200000  0.200000  0.000000      2.000000
  0.266667  0.200000  0.000000      2.000000
  0.333333  0.200000  0.000000      2.000000
  0.400000  0.200000  0.000000      2.000000
  0.466667  0.200000  0.000000      2.000000
 -0.466667  0.200000  0.000000      2.000000
 -0.400000  0.200000  0.000000      2.000000
 -0.333333  0.200000  0.000000      2.000000
 -0.266667  0.200000  0.000000      2.000000
 -0.200000  0.200000  0.000000      2.000000
 -0.133333  0.200000  0.000000      2.000000
 -0.066667  0.200000  0.000000      2.000000
  0.000000  0.266667  0.000000      2.000000
  0.066667  0.266667  0.000000      2.000000
  0.133333  0.266667  0.000000      2.000000
  0.200000  0.266667  0.000000      2.000000
  0.266667  0.266667  0.000000      2.000000
  0.333333  0.266667  0.000000      2.000000
  0.400000  0.266667  0.000000      2.000000
  0.466667  0.266667  0.000000      2.000000
 -0.466667  0.266667  0.000000      2.000000
 -0.400000  0.266667  0.000000      2.000000
 -0.333333  0.266667  0.000000      2.000000
 -0.266667  0.266667  0.000000      2.000000
 -0.200000  0.266667  0.000000      2.000000
 -0.133333  0.266667  0.000000      2.000000
 -0.066667  0.266667  0.000000      2.000000
 -0.000000  0.333333  0.000000      2.000000
  0.066667  0.333333  0.000000      2.000000
  0.133333  0.333333  0.000000      2.000000
  0.200000  0.333333  0.000000      2.000000
  0.266667  0.333333  0.000000      2.000000
  0.333333  0.333333  0.000000      2.000000
  0.400000  0.333333  0.000000      2.000000
  0.466667  0.333333  0.000000      2.000000
 -0.466667  0.333333  0.000000      2.000000
 -0.400000  0.333333  0.000000      2.000000
 -0.333333  0.333333  0.000000      2.000000
 -0.266667  0.333333  0.000000      2.000000
 -0.200000  0.333333  0.000000      2.000000
 -0.133333  0.333333  0.000000      2.000000
 -0.066667  0.333333  0.000000      2.000000
  0.000000  0.400000  0.000000      2.000000
  0.066667  0.400000  0.000000      2.000000
  0.133333  0.400000  0.000000      2.000000
  0.200000  0.400000  0.000000      2.000000
  0.266667  0.400000  0.000000      2.000000
  0.333333  0.400000  0.000000      2.000000
  0.400000  0.400000  0.000000      2.000000
  0.466667  0.400000  0.000000      2.000000
 -0.466667  0.400000  0.000000      2.000000
 -0.400000  0.400000  0.000000      2.000000
 -0.333333  0.400000  0.000000      2.000000
 -0.266667  0.400000  0.000000      2.000000
 -0.200000  0.400000  0.000000      2.000000
 -0.133333  0.400000  0.000000      2.000000
 -0.066667  0.400000  0.000000      2.000000
  0.000000  0.466667  0.000000      2.000000
  0.066667  0.466667  0.000000      2.000000
  0.133333  0.466667  0.000000      2.000000
  0.200000  0.466667  0.000000      2.000000
  0.266667  0.466667  0.000000      2.000000
  0.333333  0.466667  0.000000      2.000000
  0.400000  0.466667  0.000000      2.000000
  0.466667  0.466667  0.000000      2.000000
 -0.466667  0.466667  0.000000      2.000000
 -0.400000  0.466667  0.000000      2.000000
 -0.333333  0.466667  0.000000      2.000000
 -0.266667  0.466667  0.000000      2.000000
 -0.200000  0.466667  0.000000      2.000000
 -0.133333  0.466667  0.000000      2.000000
 -0.066667  0.466667  0.000000      2.000000
 
 Following cartesian coordinates:
            Coordinates               Weight
  0.000000  0.000000  0.000000      1.000000
  0.015328  0.000057  0.000000      2.000000
  0.030655  0.000115  0.000000      2.000000
  0.045983  0.000172  0.000000      2.000000
  0.061311  0.000230  0.000000      2.000000
  0.076638  0.000287  0.000000      2.000000
  0.091966  0.000345  0.000000      2.000000
  0.107294  0.000402  0.000000      2.000000
  0.000059  0.015531  0.000000      2.000000
  0.015386  0.015589  0.000000      2.000000
  0.030714  0.015646  0.000000      2.000000
  0.046042  0.015704  0.000000      2.000000
  0.061369  0.015761  0.000000      2.000000
  0.076697  0.015819  0.000000      2.000000
  0.092025  0.015876  0.000000      2.000000
  0.107352  0.015934  0.000000      2.000000
 -0.107235  0.015129  0.000000      2.000000
 -0.091907  0.015186  0.000000      2.000000
 -0.076580  0.015244  0.000000      2.000000
 -0.061252  0.015301  0.000000      2.000000
 -0.045924  0.015359  0.000000      2.000000
 -0.030597  0.015416  0.000000      2.000000
 -0.015269  0.015474  0.000000      2.000000
  0.000117  0.031063  0.000000      2.000000
  0.015445  0.031120  0.000000      2.000000
  0.030773  0.031177  0.000000      2.000000
  0.046100  0.031235  0.000000      2.000000
  0.061428  0.031292  0.000000      2.000000
  0.076756  0.031350  0.000000      2.000000
  0.092083  0.031407  0.000000      2.000000
  0.107411  0.031465  0.000000      2.000000
 -0.107176  0.030660  0.000000      2.000000
 -0.091849  0.030718  0.000000      2.000000
 -0.076521  0.030775  0.000000      2.000000
 -0.061193  0.030833  0.000000      2.000000
 -0.045866  0.030890  0.000000      2.000000
 -0.030538  0.030948  0.000000      2.000000
 -0.015210  0.031005  0.000000      2.000000
  0.000176  0.046594  0.000000      2.000000
  0.015504  0.046651  0.000000      2.000000
  0.030831  0.046709  0.000000      2.000000
  0.046159  0.046766  0.000000      2.000000
  0.061487  0.046824  0.000000      2.000000
  0.076814  0.046881  0.000000      2.000000
  0.092142  0.046939  0.000000      2.000000
  0.107470  0.046996  0.000000      2.000000
 -0.107118  0.046191  0.000000      2.000000
 -0.091790  0.046249  0.000000      2.000000
 -0.076462  0.046306  0.000000      2.000000
 -0.061135  0.046364  0.000000      2.000000
 -0.045807  0.046421  0.000000      2.000000
 -0.030479  0.046479  0.000000      2.000000
 -0.015152  0.046536  0.000000      2.000000
  0.000235  0.062125  0.000000      2.000000
  0.015562  0.062183  0.000000      2.000000
  0.030890  0.062240  0.000000      2.000000
  0.046218  0.062297  0.000000      2.000000
  0.061545  0.062355  0.000000      2.000000
  0.076873  0.062412  0.000000      2.000000
  0.092201  0.062470  0.000000      2.000000
  0.107529  0.062527  0.000000      2.000000
 -0.107059  0.061723  0.000000      2.000000
 -0.091731  0.061780  0.000000      2.000000
 -0.076404  0.061838  0.000000      2.000000
 -0.061076  0.061895  0.000000      2.000000
 -0.045748  0.061953  0.000000      2.000000
 -0.030421  0.062010  0.000000      2.000000
 -0.015093  0.062068  0.000000      2.000000
  0.000293  0.077656  0.000000      2.000000
  0.015621  0.077714  0.000000      2.000000
  0.030949  0.077771  0.000000      2.000000
  0.046276  0.077829  0.000000      2.000000
  0.061604  0.077886  0.000000      2.000000
  0.076932  0.077944  0.000000      2.000000
  0.092260  0.078001  0.000000      2.000000
  0.107587  0.078059  0.000000      2.000000
 -0.107000  0.077254  0.000000      2.000000
 -0.091673  0.077311  0.000000      2.000000
 -0.076345  0.077369  0.000000      2.000000
 -0.061017  0.077426  0.000000      2.000000
 -0.045690  0.077484  0.000000      2.000000
 -0.030362  0.077541  0.000000      2.000000
 -0.015034  0.077599  0.000000      2.000000
  0.000352  0.093188  0.000000      2.000000
  0.015680  0.093245  0.000000      2.000000
  0.031007  0.093303  0.000000      2.000000
  0.046335  0.093360  0.000000      2.000000
  0.061663  0.093418  0.000000      2.000000
  0.076991  0.093475  0.000000      2.000000
  0.092318  0.093532  0.000000      2.000000
  0.107646  0.093590  0.000000      2.000000
 -0.106942  0.092785  0.000000      2.000000
 -0.091614  0.092843  0.000000      2.000000
 -0.076286  0.092900  0.000000      2.000000
 -0.060959  0.092958  0.000000      2.000000
 -0.045631  0.093015  0.000000      2.000000
 -0.030303  0.093073  0.000000      2.000000
 -0.014976  0.093130  0.000000      2.000000
  0.000411  0.108719  0.000000      2.000000
  0.015738  0.108776  0.000000      2.000000
  0.031066  0.108834  0.000000      2.000000
  0.046394  0.108891  0.000000      2.000000
  0.061722  0.108949  0.000000      2.000000
  0.077049  0.109006  0.000000      2.000000
  0.092377  0.109064  0.000000      2.000000
  0.107705  0.109121  0.000000      2.000000
 -0.106883  0.108317  0.000000      2.000000
 -0.091555  0.108374  0.000000      2.000000
 -0.076228  0.108431  0.000000      2.000000
 -0.060900  0.108489  0.000000      2.000000
 -0.045572  0.108546  0.000000      2.000000
 -0.030245  0.108604  0.000000      2.000000
 -0.014917  0.108661  0.000000      2.000000
 


--------------------------------------------------------------------------------------------------------




 Dimension of arrays:
   k-points           NKPTS =    113   k-points in BZ     NKDIM =    113   number of bands    NBANDS=     14
   number of dos      NEDOS =    301   number of ions     NIONS =      4
   non local maximal  LDIM  =      5   non local SUM 2l+1 LMDIM =     13
   total plane-waves  NPLWV = 207360
   max r-space proj   IRMAX =      1   max aug-charges    IRDMAX=  53649
   dimension x,y,z NGX =    36 NGY =   36 NGZ =  160
   dimension x,y,z NGXF=    72 NGYF=   72 NGZF=  320
   support grid    NGXF=    72 NGYF=   72 NGZF=  320
   ions per type =               2   2
   NGX,Y,Z   is equivalent  to a cutoff of  13.76, 13.94, 13.30 a.u.
   NGXF,Y,Z  is equivalent  to a cutoff of  27.52, 27.89, 26.60 a.u.

 SYSTEM =  SnSe                                    
 POSCAR =   POSCAR with strain of -0.007           

 Startparameter for this run:
   NWRITE =      2    write-flag & timer
   PREC   = accura    normal or accurate (medium, high low for compatibility)
   ISTART =      0    job   : 0-new  1-cont  2-samecut
   ICHARG =      2    charge: 1-file 2-atom 10-const
   ISPIN  =      1    spin polarized calculation?
   LNONCOLLINEAR =      F non collinear calculations
   LSORBIT =      F    spin-orbit coupling
   INIWAV =      1    electr: 0-lowe 1-rand  2-diag
   LASPH  =      F    aspherical Exc in radial PAW
   METAGGA=      F    non-selfconsistent MetaGGA calc.

 Electronic Relaxation 1
   ENCUT  =  600.0 eV  44.10 Ry    6.64 a.u.   8.69  8.57 39.94*2*pi/ulx,y,z
   ENINI  =  600.0     initial cutoff
   ENAUG  =  446.8 eV  augmentation charge cutoff
   NELM   =     60;   NELMIN=  2; NELMDL= -5     # of ELM steps 
   EDIFF  = 0.1E-05   stopping-criterion for ELM
   LREAL  =      F    real-space projection
   NLSPLINE    = F    spline interpolate recip. space projectors
   LCOMPAT=      F    compatible to vasp.4.4
   GGA_COMPAT  = T    GGA compatible to vasp.4.4-vasp.4.6
   LMAXPAW     = -100 max onsite density
   LMAXMIX     =    2 max onsite mixed and CHGCAR
   VOSKOWN=      0    Vosko Wilk Nusair interpolation
   ROPT   =    0.00000   0.00000
 Ionic relaxation
   EDIFFG = -.1E-02   stopping-criterion for IOM
   NSW    =    100    number of steps for IOM
   NBLOCK =      1;   KBLOCK =    100    inner block; outer block 
   IBRION =      2    ionic relax: 0-MD 1-quasi-New 2-CG
   NFREE  =      1    steps in history (QN), initial steepest desc. (CG)
   ISIF   =      2    stress and relaxation
   IWAVPR =     11    prediction:  0-non 1-charg 2-wave 3-comb
   ISYM   =      2    0-nonsym 1-usesym 2-fastsym
   LCORR  =      T    Harris-Foulkes like correction to forces

   POTIM  = 0.5000    time-step for ionic-motion
   TEIN   =    0.0    initial temperature
   TEBEG  =    0.0;   TEEND  =   0.0 temperature during run
   SMASS  =  -3.00    Nose mass-parameter (am)
   estimated Nose-frequenzy (Omega)   =  0.10E-29 period in steps =****** mass=  -0.432E-27a.u.
   SCALEE = 1.0000    scale energy and forces
   NPACO  =    256;   APACO  = 16.0  distance and # of slots for P.C.
   PSTRESS=    0.0 pullay stress

  Mass of Ions in am
   POMASS = 118.71 78.96
  Ionic Valenz
   ZVAL   =   4.00  6.00
  Atomic Wigner-Seitz radii
   RWIGS  =  -1.00 -1.00
  virtual crystal weights 
   VCA    =   1.00  1.00
   NELECT =      20.0000    total number of electrons
   NUPDOWN=      -1.0000    fix difference up-down

 DOS related values:
   EMIN   =  10.00;   EMAX   =-10.00  energy-range for DOS
   EFERMI =   0.00
   ISMEAR =     0;   SIGMA  =   0.10  broadening in eV -4-tet -1-fermi 0-gaus

 Electronic relaxation 2 (details)
   IALGO  =     38    algorithm
   LDIAG  =      T    sub-space diagonalisation (order eigenvalues)
   LSUBROT=      F    optimize rotation matrix (better conditioning)
   TURBO    =      0    0=normal 1=particle mesh
   IRESTART =      0    0=no restart 2=restart with 2 vectors
   NREBOOT  =      0    no. of reboots
   NMIN     =      0    reboot dimension
   EREF     =   0.00    reference energy to select bands
   IMIX   =      4    mixing-type and parameters
     AMIX     =   0.40;   BMIX     =  1.00
     AMIX_MAG =   1.60;   BMIX_MAG =  1.00
     AMIN     =   0.10
     WC   =   100.;   INIMIX=   1;  MIXPRE=   1;  MAXMIX= -45

 Intra band minimization:
   WEIMIN = 0.0010     energy-eigenvalue tresh-hold
   EBREAK =  0.18E-07  absolut break condition
   DEPER  =   0.30     relativ break condition  

   TIME   =   0.40     timestep for ELM

  volume/ion in A,a.u.               =      93.35       629.95
  Fermi-wavevector in a.u.,A,eV,Ry     =   0.617108  1.166166  5.181408  0.380823
  Thomas-Fermi vector in A             =   1.675076
 
 Write flags
   LWAVE        =      T    write WAVECAR
   LDOWNSAMPLE  =      F    k-point downsampling of WAVECAR
   LCHARG       =      T    write CHGCAR
   LVTOT        =      F    write LOCPOT, total local potential
   LVHAR        =      F    write LOCPOT, Hartree potential only
   LELF         =      F    write electronic localiz. function (ELF)
   LORBIT       =      0    0 simple, 1 ext, 2 COOP (PROOUT), +10 PAW based schemes


 Dipole corrections
   LMONO  =      F    monopole corrections only (constant potential shift)
   LDIPOL =      F    correct potential (dipole corrections)
   IDIPOL =      0    1-x, 2-y, 3-z, 4-all directions 
   EPSILON=  1.0000000 bulk dielectric constant

 Exchange correlation treatment:
   GGA     =    PE    GGA type
   LEXCH   =     8    internal setting for exchange type
   VOSKOWN=      0    Vosko Wilk Nusair interpolation
   LHFCALC =     F    Hartree Fock is set to
   LHFONE  =     F    Hartree Fock one center treatment
   AEXX    =    0.0000 exact exchange contribution

 Linear response parameters
   LEPSILON=     F    determine dielectric tensor
   LRPA    =     F    only Hartree local field effects (RPA)
   LNABLA  =     F    use nabla operator in PAW spheres
   LVEL    =     F    velocity operator in full k-point grid
   LINTERFAST=   F  fast interpolation
   KINTER  =     0    interpolate to denser k-point grid
   CSHIFT  =0.1000    complex shift for real part using Kramers Kronig
   OMEGAMAX=  -1.0    maximum frequency
   DEG_THRESHOLD= 0.2000000E-02 threshold for treating states as degnerate
   RTIME   =   -0.100 relaxation time in fs
  (WPLASMAI=    0.000 imaginary part of plasma frequency in eV, 0.658/RTIME)
   DFIELD  = 0.0000000 0.0000000 0.0000000 field for delta impulse in time
 
 Orbital magnetization related:
   ORBITALMAG=     F  switch on orbital magnetization
   LCHIMAG   =     F  perturbation theory with respect to B field
   DQ        =  0.001000  dq finite difference perturbation B field
   LLRAUG    =     F  two centre corrections for induced B field



--------------------------------------------------------------------------------------------------------


 conjugate gradient relaxation of ions
 charge density and potential will be updated during run
 non-spin polarized calculation
 Variant of blocked Davidson
 Davidson routine will perform the subspace rotation
 perform sub-space diagonalisation
    after iterative eigenvector-optimisation
 modified Broyden-mixing scheme, WC =      100.0
 initial mixing is a Kerker type mixing with AMIX =  0.4000 and BMIX =      1.0000
 Hartree-type preconditioning will be used
 using additional bands            4
 reciprocal scheme for non local part
 use partial core corrections
 calculate Harris-corrections to forces 
   (improved forces if not selfconsistent)
 use gradient corrections 
 use of overlap-Matrix (Vanderbilt PP)
 Gauss-broadening in eV      SIGMA  =   0.10


--------------------------------------------------------------------------------------------------------


  energy-cutoff  :      600.00
  volume of cell :      373.40
      direct lattice vectors                 reciprocal lattice vectors
     4.349489089 -0.016433838  0.000000000     0.229915318  0.000862182  0.000000000
    -0.016096792  4.292477857  0.000000000     0.000880235  0.232968976  0.000000000
     0.000000000  0.000000000 20.000000000     0.000000000  0.000000000  0.050000000

  length of vectors
     4.349520135  4.292508039 20.000000000     0.229916935  0.232970638  0.050000000


 
 k-points in units of 2pi/SCALE and weight: KMesh Grid                              
   0.00000000  0.00000000  0.00000000       0.004
   0.01532769  0.00005748  0.00000000       0.009
   0.03065538  0.00011496  0.00000000       0.009
   0.04598306  0.00017244  0.00000000       0.009
   0.06131075  0.00022992  0.00000000       0.009
   0.07663844  0.00028739  0.00000000       0.009
   0.09196613  0.00034487  0.00000000       0.009
   0.10729382  0.00040235  0.00000000       0.009
   0.00005868  0.01553127  0.00000000       0.009
   0.01538637  0.01558874  0.00000000       0.009
   0.03071406  0.01564622  0.00000000       0.009
   0.04604175  0.01570370  0.00000000       0.009
   0.06136943  0.01576118  0.00000000       0.009
   0.07669712  0.01581866  0.00000000       0.009
   0.09202481  0.01587614  0.00000000       0.009
   0.10735250  0.01593362  0.00000000       0.009
  -0.10723513  0.01512891  0.00000000       0.009
  -0.09190745  0.01518639  0.00000000       0.009
  -0.07657976  0.01524387  0.00000000       0.009
  -0.06125207  0.01530135  0.00000000       0.009
  -0.04592438  0.01535883  0.00000000       0.009
  -0.03059669  0.01541631  0.00000000       0.009
  -0.01526901  0.01547379  0.00000000       0.009
   0.00011736  0.03106253  0.00000000       0.009
   0.01544505  0.03112001  0.00000000       0.009
   0.03077274  0.03117749  0.00000000       0.009
   0.04610043  0.03123497  0.00000000       0.009
   0.06142812  0.03129245  0.00000000       0.009
   0.07675580  0.03134992  0.00000000       0.009
   0.09208349  0.03140740  0.00000000       0.009
   0.10741118  0.03146488  0.00000000       0.009
  -0.10717645  0.03066018  0.00000000       0.009
  -0.09184876  0.03071766  0.00000000       0.009
  -0.07652107  0.03077514  0.00000000       0.009
  -0.06119339  0.03083261  0.00000000       0.009
  -0.04586570  0.03089009  0.00000000       0.009
  -0.03053801  0.03094757  0.00000000       0.009
  -0.01521032  0.03100505  0.00000000       0.009
   0.00017605  0.04659380  0.00000000       0.009
   0.01550373  0.04665127  0.00000000       0.009
   0.03083142  0.04670875  0.00000000       0.009
   0.04615911  0.04676623  0.00000000       0.009
   0.06148680  0.04682371  0.00000000       0.009
   0.07681449  0.04688119  0.00000000       0.009
   0.09214217  0.04693867  0.00000000       0.009
   0.10746986  0.04699615  0.00000000       0.009
  -0.10711777  0.04619144  0.00000000       0.009
  -0.09179008  0.04624892  0.00000000       0.009
  -0.07646239  0.04630640  0.00000000       0.009
  -0.06113470  0.04636388  0.00000000       0.009
  -0.04580702  0.04642136  0.00000000       0.009
  -0.03047933  0.04647884  0.00000000       0.009
  -0.01515164  0.04653632  0.00000000       0.009
   0.00023473  0.06212506  0.00000000       0.009
   0.01556242  0.06218254  0.00000000       0.009
   0.03089011  0.06224002  0.00000000       0.009
   0.04621779  0.06229750  0.00000000       0.009
   0.06154548  0.06235498  0.00000000       0.009
   0.07687317  0.06241245  0.00000000       0.009
   0.09220086  0.06246993  0.00000000       0.009
   0.10752854  0.06252741  0.00000000       0.009
  -0.10705909  0.06172271  0.00000000       0.009
  -0.09173140  0.06178019  0.00000000       0.009
  -0.07640371  0.06183767  0.00000000       0.009
  -0.06107602  0.06189514  0.00000000       0.009
  -0.04574833  0.06195262  0.00000000       0.009
  -0.03042065  0.06201010  0.00000000       0.009
  -0.01509296  0.06206758  0.00000000       0.009
   0.00029341  0.07765633  0.00000000       0.009
   0.01562110  0.07771380  0.00000000       0.009
   0.03094879  0.07777128  0.00000000       0.009
   0.04627648  0.07782876  0.00000000       0.009
   0.06160416  0.07788624  0.00000000       0.009
   0.07693185  0.07794372  0.00000000       0.009
   0.09225954  0.07800120  0.00000000       0.009
   0.10758723  0.07805868  0.00000000       0.009
  -0.10700040  0.07725397  0.00000000       0.009
  -0.09167272  0.07731145  0.00000000       0.009
  -0.07634503  0.07736893  0.00000000       0.009
  -0.06101734  0.07742641  0.00000000       0.009
  -0.04568965  0.07748389  0.00000000       0.009
  -0.03036196  0.07754137  0.00000000       0.009
  -0.01503428  0.07759885  0.00000000       0.009
   0.00035209  0.09318759  0.00000000       0.009
   0.01567978  0.09324507  0.00000000       0.009
   0.03100747  0.09330255  0.00000000       0.009
   0.04633516  0.09336003  0.00000000       0.009
   0.06166285  0.09341751  0.00000000       0.009
   0.07699053  0.09347498  0.00000000       0.009
   0.09231822  0.09353246  0.00000000       0.009
   0.10764591  0.09358994  0.00000000       0.009
  -0.10694172  0.09278524  0.00000000       0.009
  -0.09161403  0.09284272  0.00000000       0.009
  -0.07628635  0.09290020  0.00000000       0.009
  -0.06095866  0.09295767  0.00000000       0.009
  -0.04563097  0.09301515  0.00000000       0.009
  -0.03030328  0.09307263  0.00000000       0.009
  -0.01497559  0.09313011  0.00000000       0.009
   0.00041078  0.10871886  0.00000000       0.009
   0.01573846  0.10877633  0.00000000       0.009
   0.03106615  0.10883381  0.00000000       0.009
   0.04639384  0.10889129  0.00000000       0.009
   0.06172153  0.10894877  0.00000000       0.009
   0.07704922  0.10900625  0.00000000       0.009
   0.09237690  0.10906373  0.00000000       0.009
   0.10770459  0.10912121  0.00000000       0.009
  -0.10688304  0.10831650  0.00000000       0.009
  -0.09155535  0.10837398  0.00000000       0.009
  -0.07622766  0.10843146  0.00000000       0.009
  -0.06089998  0.10848894  0.00000000       0.009
  -0.04557229  0.10854642  0.00000000       0.009
  -0.03024460  0.10860390  0.00000000       0.009
  -0.01491691  0.10866138  0.00000000       0.009
 
 k-points in reciprocal lattice and weights: KMesh Grid                              
   0.00000000  0.00000000  0.00000000       0.004
   0.06666667 -0.00000000  0.00000000       0.009
   0.13333333 -0.00000000  0.00000000       0.009
   0.20000000 -0.00000000  0.00000000       0.009
   0.26666667  0.00000000  0.00000000       0.009
   0.33333333 -0.00000000  0.00000000       0.009
   0.40000000 -0.00000000  0.00000000       0.009
   0.46666667 -0.00000000  0.00000000       0.009
   0.00000000  0.06666667  0.00000000       0.009
   0.06666667  0.06666667  0.00000000       0.009
   0.13333333  0.06666667  0.00000000       0.009
   0.20000000  0.06666667  0.00000000       0.009
   0.26666667  0.06666667  0.00000000       0.009
   0.33333333  0.06666667  0.00000000       0.009
   0.40000000  0.06666667  0.00000000       0.009
   0.46666667  0.06666667  0.00000000       0.009
  -0.46666667  0.06666667  0.00000000       0.009
  -0.40000000  0.06666667  0.00000000       0.009
  -0.33333333  0.06666667  0.00000000       0.009
  -0.26666667  0.06666667  0.00000000       0.009
  -0.20000000  0.06666667  0.00000000       0.009
  -0.13333333  0.06666667  0.00000000       0.009
  -0.06666667  0.06666667  0.00000000       0.009
   0.00000000  0.13333333  0.00000000       0.009
   0.06666667  0.13333333  0.00000000       0.009
   0.13333333  0.13333333  0.00000000       0.009
   0.20000000  0.13333333  0.00000000       0.009
   0.26666667  0.13333333  0.00000000       0.009
   0.33333333  0.13333333  0.00000000       0.009
   0.40000000  0.13333333  0.00000000       0.009
   0.46666667  0.13333333  0.00000000       0.009
  -0.46666667  0.13333333  0.00000000       0.009
  -0.40000000  0.13333333  0.00000000       0.009
  -0.33333333  0.13333333  0.00000000       0.009
  -0.26666667  0.13333333  0.00000000       0.009
  -0.20000000  0.13333333  0.00000000       0.009
  -0.13333333  0.13333333  0.00000000       0.009
  -0.06666667  0.13333333  0.00000000       0.009
   0.00000000  0.20000000  0.00000000       0.009
   0.06666667  0.20000000  0.00000000       0.009
   0.13333333  0.20000000  0.00000000       0.009
   0.20000000  0.20000000  0.00000000       0.009
   0.26666667  0.20000000  0.00000000       0.009
   0.33333333  0.20000000  0.00000000       0.009
   0.40000000  0.20000000  0.00000000       0.009
   0.46666667  0.20000000  0.00000000       0.009
  -0.46666667  0.20000000  0.00000000       0.009
  -0.40000000  0.20000000  0.00000000       0.009
  -0.33333333  0.20000000  0.00000000       0.009
  -0.26666667  0.20000000  0.00000000       0.009
  -0.20000000  0.20000000  0.00000000       0.009
  -0.13333333  0.20000000  0.00000000       0.009
  -0.06666667  0.20000000  0.00000000       0.009
   0.00000000  0.26666667  0.00000000       0.009
   0.06666667  0.26666667  0.00000000       0.009
   0.13333333  0.26666667  0.00000000       0.009
   0.20000000  0.26666667  0.00000000       0.009
   0.26666667  0.26666667  0.00000000       0.009
   0.33333333  0.26666667  0.00000000       0.009
   0.40000000  0.26666667  0.00000000       0.009
   0.46666667  0.26666667  0.00000000       0.009
  -0.46666667  0.26666667  0.00000000       0.009
  -0.40000000  0.26666667  0.00000000       0.009
  -0.33333333  0.26666667  0.00000000       0.009
  -0.26666667  0.26666667  0.00000000       0.009
  -0.20000000  0.26666667  0.00000000       0.009
  -0.13333333  0.26666667  0.00000000       0.009
  -0.06666667  0.26666667  0.00000000       0.009
  -0.00000000  0.33333333  0.00000000       0.009
   0.06666667  0.33333333  0.00000000       0.009
   0.13333333  0.33333333  0.00000000       0.009
   0.20000000  0.33333333  0.00000000       0.009
   0.26666667  0.33333333  0.00000000       0.009
   0.33333333  0.33333333  0.00000000       0.009
   0.40000000  0.33333333  0.00000000       0.009
   0.46666667  0.33333333  0.00000000       0.009
  -0.46666667  0.33333333  0.00000000       0.009
  -0.40000000  0.33333333  0.00000000       0.009
  -0.33333333  0.33333333  0.00000000       0.009
  -0.26666667  0.33333333  0.00000000       0.009
  -0.20000000  0.33333333  0.00000000       0.009
  -0.13333333  0.33333333  0.00000000       0.009
  -0.06666667  0.33333333  0.00000000       0.009
   0.00000000  0.40000000  0.00000000       0.009
   0.06666667  0.40000000  0.00000000       0.009
   0.13333333  0.40000000  0.00000000       0.009
   0.20000000  0.40000000  0.00000000       0.009
   0.26666667  0.40000000  0.00000000       0.009
   0.33333333  0.40000000  0.00000000       0.009
   0.40000000  0.40000000  0.00000000       0.009
   0.46666667  0.40000000  0.00000000       0.009
  -0.46666667  0.40000000  0.00000000       0.009
  -0.40000000  0.40000000  0.00000000       0.009
  -0.33333333  0.40000000  0.00000000       0.009
  -0.26666667  0.40000000  0.00000000       0.009
  -0.20000000  0.40000000  0.00000000       0.009
  -0.13333333  0.40000000  0.00000000       0.009
  -0.06666667  0.40000000  0.00000000       0.009
   0.00000000  0.46666667  0.00000000       0.009
   0.06666667  0.46666667  0.00000000       0.009
   0.13333333  0.46666667  0.00000000       0.009
   0.20000000  0.46666667  0.00000000       0.009
   0.26666667  0.46666667  0.00000000       0.009
   0.33333333  0.46666667  0.00000000       0.009
   0.40000000  0.46666667  0.00000000       0.009
   0.46666667  0.46666667  0.00000000       0.009
  -0.46666667  0.46666667  0.00000000       0.009
  -0.40000000  0.46666667  0.00000000       0.009
  -0.33333333  0.46666667  0.00000000       0.009
  -0.26666667  0.46666667  0.00000000       0.009
  -0.20000000  0.46666667  0.00000000       0.009
  -0.13333333  0.46666667  0.00000000       0.009
  -0.06666667  0.46666667  0.00000000       0.009
 
 position of ions in fractional coordinates (direct lattice) 
   0.58124336  0.75000000  0.56874314
   0.08124336  0.25000000  0.43125686
   0.03286064  0.25000000  0.56707387
   0.53286061  0.75000000  0.43292613
 
 position of ions in cartesian coordinates  (Angst):
   2.51603905  3.20980633 11.37486283
   0.34934290  1.07178432  8.62513717
   0.13890281  1.07257944 11.34147733
   2.30559884  3.21060145  8.65852267
 


--------------------------------------------------------------------------------------------------------


 k-point  1 :   0.0000 0.0000 0.0000  plane waves:   12521
 k-point  2 :   0.0667-0.0000 0.0000  plane waves:   12508
 k-point  3 :   0.1333-0.0000 0.0000  plane waves:   12475
 k-point  4 :   0.2000-0.0000 0.0000  plane waves:   12456
 k-point  5 :   0.2667 0.0000 0.0000  plane waves:   12451
 k-point  6 :   0.3333-0.0000 0.0000  plane waves:   12467
 k-point  7 :   0.4000-0.0000 0.0000  plane waves:   12496
 k-point  8 :   0.4667-0.0000 0.0000  plane waves:   12486
 k-point  9 :   0.0000 0.0667 0.0000  plane waves:   12493
 k-point 10 :   0.0667 0.0667 0.0000  plane waves:   12510
 k-point 11 :   0.1333 0.0667 0.0000  plane waves:   12480
 k-point 12 :   0.2000 0.0667 0.0000  plane waves:   12471
 k-point 13 :   0.2667 0.0667 0.0000  plane waves:   12489
 k-point 14 :   0.3333 0.0667 0.0000  plane waves:   12471
 k-point 15 :   0.4000 0.0667 0.0000  plane waves:   12510
 k-point 16 :   0.4667 0.0667 0.0000  plane waves:   12497
 k-point 17 :  -0.4667 0.0667 0.0000  plane waves:   12476
 k-point 18 :  -0.4000 0.0667 0.0000  plane waves:   12496
 k-point 19 :  -0.3333 0.0667 0.0000  plane waves:   12479
 k-point 20 :  -0.2667 0.0667 0.0000  plane waves:   12462
 k-point 21 :  -0.2000 0.0667 0.0000  plane waves:   12453
 k-point 22 :  -0.1333 0.0667 0.0000  plane waves:   12461
 k-point 23 :  -0.0667 0.0667 0.0000  plane waves:   12467
 k-point 24 :   0.0000 0.1333 0.0000  plane waves:   12485
 k-point 25 :   0.0667 0.1333 0.0000  plane waves:   12460
 k-point 26 :   0.1333 0.1333 0.0000  plane waves:   12483
 k-point 27 :   0.2000 0.1333 0.0000  plane waves:   12465
 k-point 28 :   0.2667 0.1333 0.0000  plane waves:   12475
 k-point 29 :   0.3333 0.1333 0.0000  plane waves:   12469
 k-point 30 :   0.4000 0.1333 0.0000  plane waves:   12486
 k-point 31 :   0.4667 0.1333 0.0000  plane waves:   12488
 k-point 32 :  -0.4667 0.1333 0.0000  plane waves:   12468
 k-point 33 :  -0.4000 0.1333 0.0000  plane waves:   12461
 k-point 34 :  -0.3333 0.1333 0.0000  plane waves:   12474
 k-point 35 :  -0.2667 0.1333 0.0000  plane waves:   12461
 k-point 36 :  -0.2000 0.1333 0.0000  plane waves:   12429
 k-point 37 :  -0.1333 0.1333 0.0000  plane waves:   12445
 k-point 38 :  -0.0667 0.1333 0.0000  plane waves:   12477
 k-point 39 :   0.0000 0.2000 0.0000  plane waves:   12480
 k-point 40 :   0.0667 0.2000 0.0000  plane waves:   12484
 k-point 41 :   0.1333 0.2000 0.0000  plane waves:   12490
 k-point 42 :   0.2000 0.2000 0.0000  plane waves:   12478
 k-point 43 :   0.2667 0.2000 0.0000  plane waves:   12458
 k-point 44 :   0.3333 0.2000 0.0000  plane waves:   12477
 k-point 45 :   0.4000 0.2000 0.0000  plane waves:   12460
 k-point 46 :   0.4667 0.2000 0.0000  plane waves:   12471
 k-point 47 :  -0.4667 0.2000 0.0000  plane waves:   12468
 k-point 48 :  -0.4000 0.2000 0.0000  plane waves:   12469
 k-point 49 :  -0.3333 0.2000 0.0000  plane waves:   12457
 k-point 50 :  -0.2667 0.2000 0.0000  plane waves:   12462
 k-point 51 :  -0.2000 0.2000 0.0000  plane waves:   12457
 k-point 52 :  -0.1333 0.2000 0.0000  plane waves:   12472
 k-point 53 :  -0.0667 0.2000 0.0000  plane waves:   12474
 k-point 54 :   0.0000 0.2667 0.0000  plane waves:   12465
 k-point 55 :   0.0667 0.2667 0.0000  plane waves:   12477
 k-point 56 :   0.1333 0.2667 0.0000  plane waves:   12472
 k-point 57 :   0.2000 0.2667 0.0000  plane waves:   12466
 k-point 58 :   0.2667 0.2667 0.0000  plane waves:   12447
 k-point 59 :   0.3333 0.2667 0.0000  plane waves:   12460
 k-point 60 :   0.4000 0.2667 0.0000  plane waves:   12452
 k-point 61 :   0.4667 0.2667 0.0000  plane waves:   12468
 k-point 62 :  -0.4667 0.2667 0.0000  plane waves:   12462
 k-point 63 :  -0.4000 0.2667 0.0000  plane waves:   12437
 k-point 64 :  -0.3333 0.2667 0.0000  plane waves:   12458
 k-point 65 :  -0.2667 0.2667 0.0000  plane waves:   12458
 k-point 66 :  -0.2000 0.2667 0.0000  plane waves:   12448
 k-point 67 :  -0.1333 0.2667 0.0000  plane waves:   12463
 k-point 68 :  -0.0667 0.2667 0.0000  plane waves:   12478
 k-point 69 :  -0.0000 0.3333 0.0000  plane waves:   12441
 k-point 70 :   0.0667 0.3333 0.0000  plane waves:   12463
 k-point 71 :   0.1333 0.3333 0.0000  plane waves:   12460
 k-point 72 :   0.2000 0.3333 0.0000  plane waves:   12475
 k-point 73 :   0.2667 0.3333 0.0000  plane waves:   12443
 k-point 74 :   0.3333 0.3333 0.0000  plane waves:   12434
 k-point 75 :   0.4000 0.3333 0.0000  plane waves:   12442
 k-point 76 :   0.4667 0.3333 0.0000  plane waves:   12452
 k-point 77 :  -0.4667 0.3333 0.0000  plane waves:   12446
 k-point 78 :  -0.4000 0.3333 0.0000  plane waves:   12454
 k-point 79 :  -0.3333 0.3333 0.0000  plane waves:   12442
 k-point 80 :  -0.2667 0.3333 0.0000  plane waves:   12441
 k-point 81 :  -0.2000 0.3333 0.0000  plane waves:   12448
 k-point 82 :  -0.1333 0.3333 0.0000  plane waves:   12467
 k-point 83 :  -0.0667 0.3333 0.0000  plane waves:   12443
 k-point 84 :   0.0000 0.4000 0.0000  plane waves:   12427
 k-point 85 :   0.0667 0.4000 0.0000  plane waves:   12458
 k-point 86 :   0.1333 0.4000 0.0000  plane waves:   12451
 k-point 87 :   0.2000 0.4000 0.0000  plane waves:   12458
 k-point 88 :   0.2667 0.4000 0.0000  plane waves:   12449
 k-point 89 :   0.3333 0.4000 0.0000  plane waves:   12437
 k-point 90 :   0.4000 0.4000 0.0000  plane waves:   12429
 k-point 91 :   0.4667 0.4000 0.0000  plane waves:   12430
 k-point 92 :  -0.4667 0.4000 0.0000  plane waves:   12433
 k-point 93 :  -0.4000 0.4000 0.0000  plane waves:   12435
 k-point 94 :  -0.3333 0.4000 0.0000  plane waves:   12431
 k-point 95 :  -0.2667 0.4000 0.0000  plane waves:   12433
 k-point 96 :  -0.2000 0.4000 0.0000  plane waves:   12462
 k-point 97 :  -0.1333 0.4000 0.0000  plane waves:   12464
 k-point 98 :  -0.0667 0.4000 0.0000  plane waves:   12443
 k-point 99 :   0.0000 0.4667 0.0000  plane waves:   12452
 k-point ** :   0.0667 0.4667 0.0000  plane waves:   12465
 k-point ** :   0.1333 0.4667 0.0000  plane waves:   12462
 k-point ** :   0.2000 0.4667 0.0000  plane waves:   12430
 k-point ** :   0.2667 0.4667 0.0000  plane waves:   12435
 k-point ** :   0.3333 0.4667 0.0000  plane waves:   12419
 k-point ** :   0.4000 0.4667 0.0000  plane waves:   12411
 k-point ** :   0.4667 0.4667 0.0000  plane waves:   12426
 k-point ** :  -0.4667 0.4667 0.0000  plane waves:   12428
 k-point ** :  -0.4000 0.4667 0.0000  plane waves:   12434
 k-point ** :  -0.3333 0.4667 0.0000  plane waves:   12400
 k-point ** :  -0.2667 0.4667 0.0000  plane waves:   12436
 k-point ** :  -0.2000 0.4667 0.0000  plane waves:   12444
 k-point ** :  -0.1333 0.4667 0.0000  plane waves:   12452
 k-point ** :  -0.0667 0.4667 0.0000  plane waves:   12447

 maximum and minimum number of plane-waves per node :       540      500

 maximum number of plane-waves:     12521
 maximum index in each direction: 
   IXMAX=    9   IYMAX=    8   IZMAX=   39
   IXMIN=   -9   IYMIN=   -9   IZMIN=  -39


 parallel 3D FFT for wavefunctions:
    minimum data exchange during FFTs selected (reduces bandwidth)
 parallel 3D FFT for charge:
    minimum data exchange during FFTs selected (reduces bandwidth)


 total amount of memory used by VASP MPI-rank0    63318. kBytes
=======================================================================

   base      :      30000. kBytes
   nonl-proj :      12514. kBytes
   fftplans  :       2678. kBytes
   grid      :       4349. kBytes
   one-center:          8. kBytes
   wavefun   :      13769. kBytes
 
     INWAV:  cpu time    0.0003: real time    0.0003
 Broyden mixing: mesh for mixing (old mesh)
   NGX = 17   NGY = 17   NGZ = 79
  (NGX  = 72   NGY  = 72   NGZ  =320)
  gives a total of  22831 points

 initial charge density was supplied:
 charge density of overlapping atoms calculated
 number of electron      20.0000000 magnetization 
 keeping initial charge density in first step


--------------------------------------------------------------------------------------------------------


 Maximum index for augmentation-charges         2238 (set IRDMAX)


--------------------------------------------------------------------------------------------------------


 First call to EWALD:  gamma=   0.246
 Maximum number of real-space cells 4x 4x 1
 Maximum number of reciprocal cells 2x 2x 7

    FEWALD:  cpu time    0.0022: real time    0.0022


--------------------------------------- Iteration      1(   1)  ---------------------------------------


    POTLOK:  cpu time    0.1615: real time    0.4049
    SETDIJ:  cpu time    0.0155: real time    0.0159
     EDDAV:  cpu time    5.2662: real time    5.2829
       DOS:  cpu time    0.0045: real time    0.0045
    --------------------------------------------
      LOOP:  cpu time    5.4477: real time    5.7082

 eigenvalue-minimisations  :  3164
 total energy-change (2. order) : 0.1452941E+03  (-0.6287774E+03)
 number of electron      20.0000000 magnetization 
 augmentation part       20.0000000 magnetization 

 Free energy of the ion-electron system (eV)
  ---------------------------------------------------
  alpha Z        PSCENC =         9.57617351
  Ewald energy   TEWEN  =      1164.89321359
  -Hartree energ DENC   =     -1766.93300628
  -exchange      EXHF   =         0.00000000
  -V(xc)+E(xc)   XCENC  =      -238.53558794
  PAW double counting   =       799.43158084     -524.17639913
  entropy T*S    EENTRO =        -0.01005185
  eigenvalues    EBANDS =        -1.37967358
  atomic energy  EATOM  =       702.42789710
  Solvation  Ediel_sol  =         0.00000000
  ---------------------------------------------------
  free energy    TOTEN  =       145.29414627 eV

  energy without entropy =      145.30419812  energy(sigma->0) =      145.29917220


--------------------------------------------------------------------------------------------------------




--------------------------------------- Iteration      1(   2)  ---------------------------------------


     EDDAV:  cpu time    5.9732: real time    5.9829
       DOS:  cpu time    0.0047: real time    0.0047
    --------------------------------------------
      LOOP:  cpu time    5.9779: real time    5.9876

 eigenvalue-minimisations  :  5220
 total energy-change (2. order) :-0.1405789E+03  (-0.1362300E+03)
 number of electron      20.0000000 magnetization 
 augmentation part       20.0000000 magnetization 

 Free energy of the ion-electron system (eV)
  ---------------------------------------------------
  alpha Z        PSCENC =         9.57617351
  Ewald energy   TEWEN  =      1164.89321359
  -Hartree energ DENC   =     -1766.93300628
  -exchange      EXHF   =         0.00000000
  -V(xc)+E(xc)   XCENC  =      -238.53558794
  PAW double counting   =       799.43158084     -524.17639913
  entropy T*S    EENTRO =        -0.00111930
  eigenvalues    EBANDS =      -141.96749880
  atomic energy  EATOM  =       702.42789710
  Solvation  Ediel_sol  =         0.00000000
  ---------------------------------------------------
  free energy    TOTEN  =         4.71525360 eV

  energy without entropy =        4.71637290  energy(sigma->0) =        4.71581325


--------------------------------------------------------------------------------------------------------




--------------------------------------- Iteration      1(   3)  ---------------------------------------


     EDDAV:  cpu time    6.2496: real time    6.2602
       DOS:  cpu time    0.0033: real time    0.0033
    --------------------------------------------
      LOOP:  cpu time    6.2530: real time    6.2636

 eigenvalue-minimisations  :  4004
 total energy-change (2. order) :-0.2067184E+02  (-0.2050352E+02)
 number of electron      20.0000000 magnetization 
 augmentation part       20.0000000 magnetization 

 Free energy of the ion-electron system (eV)
  ---------------------------------------------------
  alpha Z        PSCENC =         9.57617351
  Ewald energy   TEWEN  =      1164.89321359
  -Hartree energ DENC   =     -1766.93300628
  -exchange      EXHF   =         0.00000000
  -V(xc)+E(xc)   XCENC  =      -238.53558794
  PAW double counting   =       799.43158084     -524.17639913
  entropy T*S    EENTRO =        -0.00000000
  eigenvalues    EBANDS =      -162.64045451
  atomic energy  EATOM  =       702.42789710
  Solvation  Ediel_sol  =         0.00000000
  ---------------------------------------------------
  free energy    TOTEN  =       -15.95658281 eV

  energy without entropy =      -15.95658281  energy(sigma->0) =      -15.95658281


--------------------------------------------------------------------------------------------------------




--------------------------------------- Iteration      1(   4)  ---------------------------------------


     EDDAV:  cpu time    9.8339: real time    9.8534
       DOS:  cpu time    0.0032: real time    0.0032
    --------------------------------------------
      LOOP:  cpu time    9.8370: real time    9.8565

 eigenvalue-minimisations  :  4596
 total energy-change (2. order) :-0.8134614E+00  (-0.8112018E+00)
 number of electron      20.0000000 magnetization 
 augmentation part       20.0000000 magnetization 

 Free energy of the ion-electron system (eV)
  ---------------------------------------------------
  alpha Z        PSCENC =         9.57617351
  Ewald energy   TEWEN  =      1164.89321359
  -Hartree energ DENC   =     -1766.93300628
  -exchange      EXHF   =         0.00000000
  -V(xc)+E(xc)   XCENC  =      -238.53558794
  PAW double counting   =       799.43158084     -524.17639913
  entropy T*S    EENTRO =        -0.00000000
  eigenvalues    EBANDS =      -163.45391590
  atomic energy  EATOM  =       702.42789710
  Solvation  Ediel_sol  =         0.00000000
  ---------------------------------------------------
  free energy    TOTEN  =       -16.77004420 eV

  energy without entropy =      -16.77004420  energy(sigma->0) =      -16.77004420


--------------------------------------------------------------------------------------------------------




--------------------------------------- Iteration      1(   5)  ---------------------------------------


     EDDAV:  cpu time    7.6052: real time    7.6163
       DOS:  cpu time    0.0033: real time    0.0033
    CHARGE:  cpu time    0.4849: real time    0.4854
    MIXING:  cpu time    0.0148: real time    0.0150
    --------------------------------------------
      LOOP:  cpu time    8.1082: real time    8.1199

 eigenvalue-minimisations  :  4150
 total energy-change (2. order) :-0.1698323E-01  (-0.1697123E-01)
 number of electron      20.0000000 magnetization 
 augmentation part       -4.5250648 magnetization 

 Broyden mixing:
  rms(total) = 0.45496E+00    rms(broyden)= 0.45496E+00
  rms(prec ) = 0.49460E+00
  weight for this iteration     100.00

 Free energy of the ion-electron system (eV)
  ---------------------------------------------------
  alpha Z        PSCENC =         9.57617351
  Ewald energy   TEWEN  =      1164.89321359
  -Hartree energ DENC   =     -1766.93300628
  -exchange      EXHF   =         0.00000000
  -V(xc)+E(xc)   XCENC  =      -238.53558794
  PAW double counting   =       799.43158084     -524.17639913
  entropy T*S    EENTRO =        -0.00000000
  eigenvalues    EBANDS =      -163.47089913
  atomic energy  EATOM  =       702.42789710
  Solvation  Ediel_sol  =         0.00000000
  ---------------------------------------------------
  free energy    TOTEN  =       -16.78702743 eV

  energy without entropy =      -16.78702743  energy(sigma->0) =      -16.78702743


--------------------------------------------------------------------------------------------------------




--------------------------------------- Iteration      1(   6)  ---------------------------------------


    POTLOK:  cpu time    0.1606: real time    0.1608
    SETDIJ:  cpu time    0.0129: real time    0.0129
     EDDAV:  cpu time    7.5727: real time    7.5828
       DOS:  cpu time    0.0033: real time    0.0033
    CHARGE:  cpu time    0.3477: real time    0.3481
    MIXING:  cpu time    0.0038: real time    0.0038
    --------------------------------------------
      LOOP:  cpu time    8.1009: real time    8.1116

 eigenvalue-minimisations  :  4020
 total energy-change (2. order) : 0.4825490E+00  (-0.1218224E+00)
 number of electron      20.0000000 magnetization 
 augmentation part       -4.4927358 magnetization 

 Broyden mixing:
  rms(total) = 0.27965E+00    rms(broyden)= 0.27965E+00
  rms(prec ) = 0.28876E+00
  weight for this iteration     100.00

 eigenvalues of (default mixing * dielectric matrix)
  average eigenvalue GAMMA=   1.8280
  1.8280

 Free energy of the ion-electron system (eV)
  ---------------------------------------------------
  alpha Z        PSCENC =         9.57617351
  Ewald energy   TEWEN  =      1164.89321359
  -Hartree energ DENC   =     -1774.79480526
  -exchange      EXHF   =         0.00000000
  -V(xc)+E(xc)   XCENC  =      -238.05447511
  PAW double counting   =       926.06171034     -650.99254717
  entropy T*S    EENTRO =        -0.00000000
  eigenvalues    EBANDS =      -155.42164545
  atomic energy  EATOM  =       702.42789710
  Solvation  Ediel_sol  =         0.00000000
  ---------------------------------------------------
  free energy    TOTEN  =       -16.30447845 eV

  energy without entropy =      -16.30447845  energy(sigma->0) =      -16.30447845


--------------------------------------------------------------------------------------------------------




--------------------------------------- Iteration      1(   7)  ---------------------------------------


    POTLOK:  cpu time    0.1076: real time    0.1078
    SETDIJ:  cpu time    0.0080: real time    0.0080
     EDDAV:  cpu time    5.1473: real time    5.1538
       DOS:  cpu time    0.0034: real time    0.0034
    CHARGE:  cpu time    0.3621: real time    0.3625
    MIXING:  cpu time    0.0034: real time    0.0036
    --------------------------------------------
      LOOP:  cpu time    5.6317: real time    5.6391

 eigenvalue-minimisations  :  4054
 total energy-change (2. order) : 0.2869883E-01  (-0.3166264E-01)
 number of electron      20.0000000 magnetization 
 augmentation part       -4.4837615 magnetization 

 Broyden mixing:
  rms(total) = 0.10375E+00    rms(broyden)= 0.10375E+00
  rms(prec ) = 0.10921E+00
  weight for this iteration     100.00

 eigenvalues of (default mixing * dielectric matrix)
  average eigenvalue GAMMA=   1.7368
  1.3761  2.0974

 Free energy of the ion-electron system (eV)
  ---------------------------------------------------
  alpha Z        PSCENC =         9.57617351
  Ewald energy   TEWEN  =      1164.89321359
  -Hartree energ DENC   =     -1779.95684592
  -exchange      EXHF   =         0.00000000
  -V(xc)+E(xc)   XCENC  =      -237.72345927
  PAW double counting   =      1071.70375518     -796.78014049
  entropy T*S    EENTRO =        -0.00000000
  eigenvalues    EBANDS =      -150.41637330
  atomic energy  EATOM  =       702.42789710
  Solvation  Ediel_sol  =         0.00000000
  ---------------------------------------------------
  free energy    TOTEN  =       -16.27577961 eV

  energy without entropy =      -16.27577961  energy(sigma->0) =      -16.27577961


--------------------------------------------------------------------------------------------------------




--------------------------------------- Iteration      1(   8)  ---------------------------------------


    POTLOK:  cpu time    0.0970: real time    0.0971
    SETDIJ:  cpu time    0.0072: real time    0.0072
     EDDAV:  cpu time    5.1291: real time    5.1360
       DOS:  cpu time    0.0032: real time    0.0032
    CHARGE:  cpu time    0.3490: real time    0.3494
    MIXING:  cpu time    0.0025: real time    0.0025
    --------------------------------------------
      LOOP:  cpu time    5.5879: real time    5.5954

 eigenvalue-minimisations  :  4480
 total energy-change (2. order) : 0.9915690E-02  (-0.3914113E-02)
 number of electron      20.0000000 magnetization 
 augmentation part       -4.4879107 magnetization 

 Broyden mixing:
  rms(total) = 0.20377E-01    rms(broyden)= 0.20377E-01
  rms(prec ) = 0.27822E-01
  weight for this iteration     100.00

 eigenvalues of (default mixing * dielectric matrix)
  average eigenvalue GAMMA=   1.7182
  2.5405  1.3071  1.3071

 Free energy of the ion-electron system (eV)
  ---------------------------------------------------
  alpha Z        PSCENC =         9.57617351
  Ewald energy   TEWEN  =      1164.89321359
  -Hartree energ DENC   =     -1781.65069320
  -exchange      EXHF   =         0.00000000
  -V(xc)+E(xc)   XCENC  =      -237.64640080
  PAW double counting   =      1137.20709243     -862.32280497
  entropy T*S    EENTRO =        -0.00000000
  eigenvalues    EBANDS =      -148.75034158
  atomic energy  EATOM  =       702.42789710
  Solvation  Ediel_sol  =         0.00000000
  ---------------------------------------------------
  free energy    TOTEN  =       -16.26586392 eV

  energy without entropy =      -16.26586392  energy(sigma->0) =      -16.26586392


--------------------------------------------------------------------------------------------------------




--------------------------------------- Iteration      1(   9)  ---------------------------------------


    POTLOK:  cpu time    0.0769: real time    0.0773
    SETDIJ:  cpu time    0.0055: real time    0.0055
     EDDAV:  cpu time    4.7402: real time    4.7473
       DOS:  cpu time    0.0033: real time    0.0033
    CHARGE:  cpu time    0.3408: real time    0.3413
    MIXING:  cpu time    0.0022: real time    0.0022
    --------------------------------------------
      LOOP:  cpu time    5.1689: real time    5.1768

 eigenvalue-minimisations  :  4324
 total energy-change (2. order) : 0.3784161E-02  (-0.6643363E-03)
 number of electron      20.0000000 magnetization 
 augmentation part       -4.4859648 magnetization 

 Broyden mixing:
  rms(total) = 0.10105E-01    rms(broyden)= 0.10105E-01
  rms(prec ) = 0.15658E-01
  weight for this iteration     100.00

 eigenvalues of (default mixing * dielectric matrix)
  average eigenvalue GAMMA=   1.6978
  2.2019  2.2019  1.1936  1.1936

 Free energy of the ion-electron system (eV)
  ---------------------------------------------------
  alpha Z        PSCENC =         9.57617351
  Ewald energy   TEWEN  =      1164.89321359
  -Hartree energ DENC   =     -1783.66500956
  -exchange      EXHF   =         0.00000000
  -V(xc)+E(xc)   XCENC  =      -237.57241495
  PAW double counting   =      1155.73761028     -880.86570875
  entropy T*S    EENTRO =        -0.00000000
  eigenvalues    EBANDS =      -146.79384098
  atomic energy  EATOM  =       702.42789710
  Solvation  Ediel_sol  =         0.00000000
  ---------------------------------------------------
  free energy    TOTEN  =       -16.26207976 eV

  energy without entropy =      -16.26207976  energy(sigma->0) =      -16.26207976


--------------------------------------------------------------------------------------------------------




--------------------------------------- Iteration      1(  10)  ---------------------------------------


    POTLOK:  cpu time    0.0720: real time    0.0722
    SETDIJ:  cpu time    0.0048: real time    0.0048
     EDDAV:  cpu time    7.4230: real time    7.4352
       DOS:  cpu time    0.0035: real time    0.0036
    CHARGE:  cpu time    0.4835: real time    0.4841
    MIXING:  cpu time    0.0067: real time    0.0067
    --------------------------------------------
      LOOP:  cpu time    7.9936: real time    8.0066

 eigenvalue-minimisations  :  4376
 total energy-change (2. order) : 0.1223087E-02  (-0.1151074E-03)
 number of electron      20.0000000 magnetization 
 augmentation part       -4.4847350 magnetization 

 Broyden mixing:
  rms(total) = 0.51724E-02    rms(broyden)= 0.51724E-02
  rms(prec ) = 0.94886E-02
  weight for this iteration     100.00

 eigenvalues of (default mixing * dielectric matrix)
  average eigenvalue GAMMA=   1.8768
  3.3781  2.5987  1.2485  1.2485  0.9103

 Free energy of the ion-electron system (eV)
  ---------------------------------------------------
  alpha Z        PSCENC =         9.57617351
  Ewald energy   TEWEN  =      1164.89321359
  -Hartree energ DENC   =     -1784.90207431
  -exchange      EXHF   =         0.00000000
  -V(xc)+E(xc)   XCENC  =      -237.56225701
  PAW double counting   =      1145.06502988     -870.18270010
  entropy T*S    EENTRO =        -0.00000000
  eigenvalues    EBANDS =      -145.57613932
  atomic energy  EATOM  =       702.42789710
  Solvation  Ediel_sol  =         0.00000000
  ---------------------------------------------------
  free energy    TOTEN  =       -16.26085667 eV

  energy without entropy =      -16.26085667  energy(sigma->0) =      -16.26085667


--------------------------------------------------------------------------------------------------------




--------------------------------------- Iteration      1(  11)  ---------------------------------------


    POTLOK:  cpu time    0.1967: real time    0.1973
    SETDIJ:  cpu time    0.0139: real time    0.0140
     EDDAV:  cpu time    8.1988: real time    8.2140
       DOS:  cpu time    0.0035: real time    0.0035
    CHARGE:  cpu time    0.4405: real time    0.4413
    MIXING:  cpu time    0.0076: real time    0.0076
    --------------------------------------------
      LOOP:  cpu time    8.8611: real time    8.8776

 eigenvalue-minimisations  :  4286
 total energy-change (2. order) : 0.7528185E-03  (-0.1336277E-03)
 number of electron      20.0000000 magnetization 
 augmentation part       -4.4832968 magnetization 

 Broyden mixing:
  rms(total) = 0.33504E-02    rms(broyden)= 0.33504E-02
  rms(prec ) = 0.50264E-02
  weight for this iteration     100.00

 eigenvalues of (default mixing * dielectric matrix)
  average eigenvalue GAMMA=   1.8436
  3.4001  2.1919  2.1919  1.2002  1.2002  0.8770

 Free energy of the ion-electron system (eV)
  ---------------------------------------------------
  alpha Z        PSCENC =         9.57617351
  Ewald energy   TEWEN  =      1164.89321359
  -Hartree energ DENC   =     -1786.56252948
  -exchange      EXHF   =         0.00000000
  -V(xc)+E(xc)   XCENC  =      -237.52996363
  PAW double counting   =      1146.39924179     -871.51576602
  entropy T*S    EENTRO =        -0.00000000
  eigenvalues    EBANDS =      -143.94837071
  atomic energy  EATOM  =       702.42789710
  Solvation  Ediel_sol  =         0.00000000
  ---------------------------------------------------
  free energy    TOTEN  =       -16.26010385 eV

  energy without entropy =      -16.26010385  energy(sigma->0) =      -16.26010385


--------------------------------------------------------------------------------------------------------




--------------------------------------- Iteration      1(  12)  ---------------------------------------


    POTLOK:  cpu time    0.1651: real time    0.1655
    SETDIJ:  cpu time    0.0122: real time    0.0123
     EDDAV:  cpu time    7.2781: real time    7.2887
       DOS:  cpu time    0.0034: real time    0.0034
    CHARGE:  cpu time    0.4559: real time    0.4563
    MIXING:  cpu time    0.0058: real time    0.0058
    --------------------------------------------
      LOOP:  cpu time    7.9206: real time    7.9319

 eigenvalue-minimisations  :  3586
 total energy-change (2. order) :-0.8274370E-03  (-0.3097597E-04)
 number of electron      20.0000000 magnetization 
 augmentation part       -4.4826690 magnetization 

 Broyden mixing:
  rms(total) = 0.19445E-02    rms(broyden)= 0.19445E-02
  rms(prec ) = 0.29077E-02
  weight for this iteration     100.00

 eigenvalues of (default mixing * dielectric matrix)
  average eigenvalue GAMMA=   2.0716
  4.6074  3.0901  2.5005  1.2152  1.2152  1.0311  0.8417

 Free energy of the ion-electron system (eV)
  ---------------------------------------------------
  alpha Z        PSCENC =         9.57617351
  Ewald energy   TEWEN  =      1164.89321359
  -Hartree energ DENC   =     -1787.18116144
  -exchange      EXHF   =         0.00000000
  -V(xc)+E(xc)   XCENC  =      -237.52047844
  PAW double counting   =      1148.43240671     -873.55194028
  entropy T*S    EENTRO =        -0.00000000
  eigenvalues    EBANDS =      -143.33704204
  atomic energy  EATOM  =       702.42789710
  Solvation  Ediel_sol  =         0.00000000
  ---------------------------------------------------
  free energy    TOTEN  =       -16.26093129 eV

  energy without entropy =      -16.26093129  energy(sigma->0) =      -16.26093129


--------------------------------------------------------------------------------------------------------




--------------------------------------- Iteration      1(  13)  ---------------------------------------


    POTLOK:  cpu time    0.1545: real time    0.1548
    SETDIJ:  cpu time    0.0126: real time    0.0126
     EDDAV:  cpu time    7.1274: real time    7.1370
       DOS:  cpu time    0.0033: real time    0.0033
    CHARGE:  cpu time    0.3519: real time    0.3524
    MIXING:  cpu time    0.0042: real time    0.0042
    --------------------------------------------
      LOOP:  cpu time    7.6539: real time    7.6643

 eigenvalue-minimisations  :  3710
 total energy-change (2. order) :-0.4348877E-03  (-0.8382407E-05)
 number of electron      20.0000000 magnetization 
 augmentation part       -4.4824693 magnetization 

 Broyden mixing:
  rms(total) = 0.11964E-02    rms(broyden)= 0.11964E-02
  rms(prec ) = 0.15601E-02
  weight for this iteration     100.00

 eigenvalues of (default mixing * dielectric matrix)
  average eigenvalue GAMMA=   2.2262
  5.5380  3.3249  2.4807  2.1636  1.1668  1.1668  1.0568  0.9120

 Free energy of the ion-electron system (eV)
  ---------------------------------------------------
  alpha Z        PSCENC =         9.57617351
  Ewald energy   TEWEN  =      1164.89321359
  -Hartree energ DENC   =     -1787.59635844
  -exchange      EXHF   =         0.00000000
  -V(xc)+E(xc)   XCENC  =      -237.51939511
  PAW double counting   =      1147.11860229     -872.23680207
  entropy T*S    EENTRO =        -0.00000000
  eigenvalues    EBANDS =      -142.92469705
  atomic energy  EATOM  =       702.42789710
  Solvation  Ediel_sol  =         0.00000000
  ---------------------------------------------------
  free energy    TOTEN  =       -16.26136618 eV

  energy without entropy =      -16.26136618  energy(sigma->0) =      -16.26136618


--------------------------------------------------------------------------------------------------------




--------------------------------------- Iteration      1(  14)  ---------------------------------------


    POTLOK:  cpu time    0.1013: real time    0.1014
    SETDIJ:  cpu time    0.0068: real time    0.0068
     EDDAV:  cpu time    5.2493: real time    5.2555
       DOS:  cpu time    0.0033: real time    0.0033
    CHARGE:  cpu time    0.3588: real time    0.3592
    MIXING:  cpu time    0.0045: real time    0.0045
    --------------------------------------------
      LOOP:  cpu time    5.7241: real time    5.7308

 eigenvalue-minimisations  :  3950
 total energy-change (2. order) :-0.2634237E-03  (-0.4270322E-05)
 number of electron      20.0000000 magnetization 
 augmentation part       -4.4824482 magnetization 

 Broyden mixing:
  rms(total) = 0.40739E-03    rms(broyden)= 0.40739E-03
  rms(prec ) = 0.62687E-03
  weight for this iteration     100.00

 eigenvalues of (default mixing * dielectric matrix)
  average eigenvalue GAMMA=   2.2420
  6.7282  3.0784  2.5271  2.5271  1.1917  1.1917  1.0635  0.9353  0.9353

 Free energy of the ion-electron system (eV)
  ---------------------------------------------------
  alpha Z        PSCENC =         9.57617351
  Ewald energy   TEWEN  =      1164.89321359
  -Hartree energ DENC   =     -1787.80377316
  -exchange      EXHF   =         0.00000000
  -V(xc)+E(xc)   XCENC  =      -237.51925159
  PAW double counting   =      1147.41160991     -872.52923546
  entropy T*S    EENTRO =        -0.00000000
  eigenvalues    EBANDS =      -142.71826351
  atomic energy  EATOM  =       702.42789710
  Solvation  Ediel_sol  =         0.00000000
  ---------------------------------------------------
  free energy    TOTEN  =       -16.26162960 eV

  energy without entropy =      -16.26162960  energy(sigma->0) =      -16.26162960


--------------------------------------------------------------------------------------------------------




--------------------------------------- Iteration      1(  15)  ---------------------------------------


    POTLOK:  cpu time    0.1038: real time    0.1040
    SETDIJ:  cpu time    0.0076: real time    0.0076
     EDDAV:  cpu time    4.5707: real time    4.5771
       DOS:  cpu time    0.0034: real time    0.0033
    CHARGE:  cpu time    0.3336: real time    0.3340
    MIXING:  cpu time    0.0031: real time    0.0031
    --------------------------------------------
      LOOP:  cpu time    5.0222: real time    5.0292

 eigenvalue-minimisations  :  3782
 total energy-change (2. order) :-0.5599091E-04  (-0.1981308E-06)
 number of electron      20.0000000 magnetization 
 augmentation part       -4.4824642 magnetization 

 Broyden mixing:
  rms(total) = 0.34383E-03    rms(broyden)= 0.34383E-03
  rms(prec ) = 0.51410E-03
  weight for this iteration     100.00

 eigenvalues of (default mixing * dielectric matrix)
  average eigenvalue GAMMA=   2.3579
  6.5247  4.2855  2.7064  2.7064  1.9807  1.1462  1.1462  1.2097  0.9363  0.9363

 Free energy of the ion-electron system (eV)
  ---------------------------------------------------
  alpha Z        PSCENC =         9.57617351
  Ewald energy   TEWEN  =      1164.89321359
  -Hartree energ DENC   =     -1787.82028120
  -exchange      EXHF   =         0.00000000
  -V(xc)+E(xc)   XCENC  =      -237.51955647
  PAW double counting   =      1147.25054139     -872.36805013
  entropy T*S    EENTRO =        -0.00000000
  eigenvalues    EBANDS =      -142.70162338
  atomic energy  EATOM  =       702.42789710
  Solvation  Ediel_sol  =         0.00000000
  ---------------------------------------------------
  free energy    TOTEN  =       -16.26168559 eV

  energy without entropy =      -16.26168559  energy(sigma->0) =      -16.26168559


--------------------------------------------------------------------------------------------------------




--------------------------------------- Iteration      1(  16)  ---------------------------------------


    POTLOK:  cpu time    0.0778: real time    0.0779
    SETDIJ:  cpu time    0.0055: real time    0.0055
     EDDAV:  cpu time    4.1698: real time    4.1761
       DOS:  cpu time    0.0032: real time    0.0032
    CHARGE:  cpu time    0.3319: real time    0.3322
    MIXING:  cpu time    0.0048: real time    0.0048
    --------------------------------------------
      LOOP:  cpu time    4.5930: real time    4.5997

[...]
  band No.  band energies     occupation 
      1     -14.5492      2.00000
      2     -14.2815      2.00000
      3      -8.7980      2.00000
      4      -8.5904      2.00000
      5      -6.0873      2.00000
      6      -5.1230      2.00000
      7      -4.7825      2.00000
      8      -4.0860      2.00000
      9      -3.9096      2.00000
     10      -3.0809      2.00000
     11       0.1604      0.00000
     12       1.1085      0.00000
     13       1.2211      0.00000
     14       1.6302      0.00000

 k-point    96 :      -0.2000    0.4000    0.0000
  band No.  band energies     occupation 
      1     -14.6204      2.00000
      2     -14.3080      2.00000
      3      -8.9744      2.00000
      4      -8.6982      2.00000
      5      -5.6271      2.00000
      6      -4.8236      2.00000
      7      -4.5329      2.00000
      8      -3.9458      2.00000
      9      -3.5090      2.00000
     10      -2.7014      2.00000
     11      -0.3150      0.00000
     12       0.6277      0.00000
     13       0.7241      0.00000
     14       1.2546      0.00000

 k-point    97 :      -0.1333    0.4000    0.0000
  band No.  band energies     occupation 
      1     -14.6769      2.00000
      2     -14.3341      2.00000
      3      -9.1111      2.00000
      4      -8.7882      2.00000
      5      -5.0870      2.00000
      6      -4.7567      2.00000
      7      -4.1270      2.00000
      8      -3.9007      2.00000
      9      -2.9077      2.00000
     10      -2.4554      2.00000
     11      -0.6105      0.00000
     12      -0.1167      0.00000
     13       0.4934      0.00000
     14       0.8437      0.00000

 k-point    98 :      -0.0667    0.4000    0.0000
  band No.  band energies     occupation 
      1     -14.7126      2.00000
      2     -14.3530      2.00000
      3      -9.1975      2.00000
      4      -8.8479      2.00000
      5      -4.7640      2.00000
      6      -4.5324      2.00000
      7      -3.9255      2.00000
      8      -3.7029      2.00000
      9      -2.6130      2.00000
     10      -2.3012      2.00000
     11      -0.7300      0.00000
     12      -0.3708      0.00000
     13       0.2744      0.00000
     14       0.3709      0.00000

 k-point    99 :       0.0000    0.4667    0.0000
  band No.  band energies     occupation 
      1     -14.5783      2.00000
      2     -14.4533      2.00000
      3      -9.2156      2.00000
      4      -9.0922      2.00000
      5      -4.5198      2.00000
      6      -4.2904      2.00000
      7      -3.8073      2.00000
      8      -3.6070      2.00000
      9      -2.4958      2.00000
     10      -2.1343      2.00000
     11      -0.8681      0.00000
     12      -0.4154      0.00000
     13      -0.0621      0.00000
     14       0.1394      0.00000

 k-point   100 :       0.0667    0.4667    0.0000
  band No.  band energies     occupation 
      1     -14.5661      2.00000
      2     -14.4463      2.00000
      3      -9.1882      2.00000
      4      -9.0668      2.00000
      5      -4.5263      2.00000
      6      -4.4077      2.00000
      7      -3.9776      2.00000
      8      -3.8214      2.00000
      9      -2.3758      2.00000
     10      -2.3160      2.00000
     11      -0.7767      0.00000
     12      -0.6687      0.00000
     13       0.3192      0.00000
     14       0.6087      0.00000

 k-point   101 :       0.1333    0.4667    0.0000
  band No.  band energies     occupation 
      1     -14.5338      2.00000
      2     -14.4238      2.00000
      3      -9.1046      2.00000
      4      -8.9903      2.00000
      5      -4.8281      2.00000
      6      -4.6163      2.00000
      7      -4.2274      2.00000
      8      -4.0986      2.00000
      9      -2.8049      2.00000
     10      -2.5561      2.00000
     11      -0.5119      0.00000
     12      -0.2822      0.00000
     13       0.7974      0.00000
     14       0.9139      0.00000

 k-point   102 :       0.2000    0.4667    0.0000
  band No.  band energies     occupation 
      1     -14.4856      2.00000
      2     -14.3897      2.00000
      3      -8.9688      2.00000
      4      -8.8665      2.00000
      5      -5.3514      2.00000
      6      -4.9997      2.00000
      7      -4.4290      2.00000
      8      -4.1645      2.00000
      9      -3.3341      2.00000
     10      -3.0288      2.00000
     11       0.0357      0.00000
     12       0.3756      0.00000
     13       1.0388      0.00000
     14       1.2541      0.00000

 k-point   103 :       0.2667    0.4667    0.0000
  band No.  band energies     occupation 
      1     -14.4277      2.00000
      2     -14.3505      2.00000
      3      -8.7892      2.00000
      4      -8.7031      2.00000
      5      -5.8327      2.00000
      6      -5.4848      2.00000
      7      -4.6258      2.00000
      8      -4.3194      2.00000
      9      -3.6801      2.00000
     10      -3.4409      2.00000
     11       0.5400      0.00000
     12       0.8792      0.00000
     13       1.4820      0.00000
     14       1.7074      0.00000

 k-point   104 :       0.3333    0.4667    0.0000
  band No.  band energies     occupation 
      1     -14.3685      2.00000
      2     -14.3142      2.00000
      3      -8.5830      2.00000
      4      -8.5148      2.00000
      5      -6.2233      2.00000
      6      -5.9319      2.00000
      7      -4.9313      2.00000
      8      -4.6304      2.00000
      9      -3.7850      2.00000
     10      -3.6414      2.00000
     11       0.8715      0.00000
     12       1.1429      0.00000
     13       2.0742      0.00000
     14       2.3083      0.00000

 k-point   105 :       0.4000    0.4667    0.0000
  band No.  band energies     occupation 
      1     -14.3170      2.00000
      2     -14.2891      2.00000
      3      -8.3848      2.00000
      4      -8.3292      2.00000
      5      -6.4889      2.00000
      6      -6.3124      2.00000
      7      -5.1935      2.00000
      8      -4.9754      2.00000
      9      -3.7748      2.00000
     10      -3.7138      2.00000
     11       1.1021      0.00000
     12       1.2915      0.00000
     13       2.5662      0.00000
     14       2.7539      0.00000

 k-point   106 :       0.4667    0.4667    0.0000
  band No.  band energies     occupation 
      1     -14.2821      2.00000
      2     -14.2814      2.00000
      3      -8.2549      2.00000
      4      -8.1980      2.00000
      5      -6.5892      2.00000
      6      -6.5869      2.00000
      7      -5.3041      2.00000
      8      -5.2220      2.00000
      9      -3.7548      2.00000
     10      -3.7347      2.00000
     11       1.2535      0.00000
     12       1.3472      0.00000
     13       2.7198      0.00000
     14       2.7599      0.00000

 k-point   107 :      -0.4667    0.4667    0.0000
  band No.  band energies     occupation 
      1     -14.2967      2.00000
      2     -14.2670      2.00000
      3      -8.2503      2.00000
      4      -8.1949      2.00000
      5      -6.6790      2.00000
      6      -6.4986      2.00000
      7      -5.3000      2.00000
      8      -5.2343      2.00000
      9      -3.7960      2.00000
     10      -3.6942      2.00000
     11       1.2886      0.00000
     12       1.3110      0.00000
     13       2.6899      0.00000
     14       2.8060      0.00000

 k-point   108 :      -0.4000    0.4667    0.0000
  band No.  band energies     occupation 
      1     -14.3317      2.00000
      2     -14.2749      2.00000
      3      -8.3607      2.00000
      4      -8.3373      2.00000
      5      -6.5515      2.00000
      6      -6.2529      2.00000
      7      -5.1820      2.00000
      8      -5.0048      2.00000
      9      -3.8364      2.00000
     10      -3.6550      2.00000
     11       1.1205      0.00000
     12       1.2714      0.00000
     13       2.5369      0.00000
     14       2.8140      0.00000

 k-point   109 :      -0.3333    0.4667    0.0000
  band No.  band energies     occupation 
      1     -14.3820      2.00000
      2     -14.3016      2.00000
      3      -8.5520      2.00000
      4      -8.5291      2.00000
      5      -6.2530      2.00000
      6      -5.9089      2.00000
      7      -4.9005      2.00000
      8      -4.6759      2.00000
      9      -3.8462      2.00000
     10      -3.5892      2.00000
     11       0.8705      0.00000
     12       1.1426      0.00000
     13       2.0343      0.00000
     14       2.3600      0.00000

 k-point   110 :      -0.2667    0.4667    0.0000
  band No.  band energies     occupation 
      1     -14.4393      2.00000
      2     -14.3399      2.00000
      3      -8.7702      2.00000
      4      -8.7074      2.00000
      5      -5.8355      2.00000
      6      -5.4931      2.00000
      7      -4.5823      2.00000
      8      -4.3627      2.00000
      9      -3.7307      2.00000
     10      -3.4142      2.00000
     11       0.5219      0.00000
     12       0.8973      0.00000
     13       1.4556      0.00000
     14       1.7383      0.00000

 k-point   111 :      -0.2000    0.4667    0.0000
  band No.  band energies     occupation 
      1     -14.4947      2.00000
      2     -14.3815      2.00000
      3      -8.9575      2.00000
      4      -8.8661      2.00000
      5      -5.3337      2.00000
      6      -5.0306      2.00000
      7      -4.3974      2.00000
      8      -4.1879      2.00000
      9      -3.3505      2.00000
     10      -3.0465      2.00000
     11       0.0109      0.00000
     12       0.4052      0.00000
     13       1.0266      0.00000
     14       1.2662      0.00000

 k-point   112 :      -0.1333    0.4667    0.0000
  band No.  band energies     occupation 
      1     -14.5401      2.00000
      2     -14.4182      2.00000
      3      -9.0983      2.00000
      4      -8.9886      2.00000
      5      -4.7960      2.00000
      6      -4.6465      2.00000
      7      -4.2200      2.00000
      8      -4.1114      2.00000
      9      -2.7904      2.00000
     10      -2.6096      2.00000
     11      -0.5246      0.00000
     12      -0.2615      0.00000
     13       0.7892      0.00000
     14       0.9124      0.00000

 k-point   113 :      -0.0667    0.4667    0.0000
  band No.  band energies     occupation 
      1     -14.5693      2.00000
      2     -14.4435      2.00000
      3      -9.1854      2.00000
      4      -9.0656      2.00000
      5      -4.5352      2.00000
      6      -4.3814      2.00000
      7      -3.9786      2.00000
      8      -3.8375      2.00000
      9      -2.4333      2.00000
     10      -2.2841      2.00000
     11      -0.7771      0.00000
     12      -0.6748      0.00000
     13       0.3131      0.00000
     14       0.6160      0.00000


--------------------------------------------------------------------------------------------------------


 soft charge-density along one line, spin component           1
         0         1         2         3         4         5         6         7         8         9
 total charge-density along one line
 
 pseudopotential strength for first ion, spin component:           1
 30.072 -23.427  -0.006  -0.089   0.029  -0.009  -0.140   0.046
-23.427  28.112   0.003   0.050  -0.016   0.005   0.082  -0.027
 -0.006   0.003   6.329  -0.000  -0.000   9.792  -0.000  -0.000
 -0.089   0.050  -0.000   6.327   0.001  -0.000   9.788   0.002
  0.029  -0.016  -0.000   0.001   6.329  -0.000   0.002   9.791
 -0.009   0.005   9.792  -0.000  -0.000  15.219  -0.001  -0.000
 -0.140   0.082  -0.000   9.788   0.002  -0.001  15.213   0.003
  0.046  -0.027  -0.000   0.002   9.791  -0.000   0.003  15.218
 -0.000  -0.000   0.006  -0.000  -0.001   0.009  -0.000  -0.002
 -0.000   0.000  -0.020  -0.001  -0.000  -0.031  -0.002  -0.000
 -0.002   0.003   0.001  -0.023  -0.004   0.001  -0.035  -0.006
  0.003  -0.001  -0.000   0.007  -0.020  -0.000   0.011  -0.031
 -0.000   0.000   0.001  -0.000   0.007   0.002  -0.000   0.011
 total augmentation occupancy for first ion, spin component:           1
  2.026  -0.015   0.014   0.237  -0.074  -0.003  -0.042   0.013  -0.002  -0.000   0.024   0.002   0.000
 -0.015   0.009  -0.004  -0.073   0.023   0.001   0.018  -0.005   0.000  -0.000  -0.002   0.001  -0.000
  0.014  -0.004   1.510  -0.002  -0.004  -0.406   0.003   0.001   0.105  -0.042   0.013   0.000  -0.002
  0.237  -0.073  -0.002   1.839  -0.000   0.003  -0.486  -0.012   0.001   0.004  -0.268  -0.015  -0.000
 -0.074   0.023  -0.004  -0.000   1.498   0.001  -0.012  -0.399  -0.021   0.000  -0.067  -0.044  -0.005
 -0.003   0.001  -0.406   0.003   0.001   0.118  -0.001  -0.000  -0.028   0.012  -0.004  -0.000   0.001
 -0.042   0.018   0.003  -0.486  -0.012  -0.001   0.140   0.006  -0.000  -0.001   0.074   0.004   0.000
  0.013  -0.005   0.001  -0.012  -0.399  -0.000   0.006   0.115   0.006  -0.000   0.018   0.012   0.002
 -0.002   0.000   0.105   0.001  -0.021  -0.028  -0.000   0.006   0.078   0.000  -0.001  -0.000  -0.000
 -0.000  -0.000  -0.042   0.004   0.000   0.012  -0.001  -0.000   0.000   0.021  -0.001  -0.000   0.000
  0.024  -0.002   0.013  -0.268  -0.067  -0.004   0.074   0.018  -0.001  -0.001   0.078   0.005   0.001
  0.002   0.001   0.000  -0.015  -0.044  -0.000   0.004   0.012  -0.000  -0.000   0.005   0.022   0.000
  0.000  -0.000  -0.002  -0.000  -0.005   0.001   0.000   0.002  -0.000   0.000   0.001   0.000   0.017


------------------------ aborting loop because EDIFF is reached ----------------------------------------


    CHARGE:  cpu time    0.4539: real time    0.4543
    FORLOC:  cpu time    0.0024: real time    0.0024
    FORNL :  cpu time    0.5455: real time    0.5462
    STRESS:  cpu time    2.8911: real time    2.8976
    FORCOR:  cpu time    0.1627: real time    0.1631
    FORHAR:  cpu time    0.0441: real time    0.0441
    MIXING:  cpu time    0.0047: real time    0.0047
    OFIELD:  cpu time    0.0001: real time    0.0001

  FORCE on cell =-STRESS in cart. coord.  units (eV):
  Direction    XX          YY          ZZ          XY          YZ          ZX
  --------------------------------------------------------------------------------------
  Alpha Z     9.57617     9.57617     9.57617
  Ewald    1619.37310  1622.43279 -2078.39137     1.18351    -0.00000     0.00000
  Hartree  1739.18406  1740.27211 -1692.81932     0.43308     0.00000     0.00000
  E(xc)     -77.69556   -77.70382   -78.92734     0.02023    -0.00000     0.00000
  Local   -3611.30364 -3615.05442  3516.31639    -1.65125     0.00000     0.00000
  n-local   162.61435   162.74389   167.25778    -0.07165    -0.00000     0.00000
  augment   -31.87509   -31.83356   -32.80221     0.00857     0.00000     0.00000
  Kinetic   190.32389   189.75227   189.79070     0.23555    -0.00000    -0.00000
  Fock        0.00000     0.00000     0.00000     0.00000     0.00000     0.00000
  -------------------------------------------------------------------------------------
  Total       0.19728     0.18544     0.00080     0.15803     0.00000     0.00000
  in kB       0.84651     0.79571     0.00342     0.67807     0.00000     0.00000
  external pressure =        0.55 kB  Pullay stress =        0.00 kB


 VOLUME and BASIS-vectors are now :
 -----------------------------------------------------------------------------
  energy-cutoff  :      600.00
  volume of cell :      373.40
      direct lattice vectors                 reciprocal lattice vectors
     4.349489089 -0.016433838  0.000000000     0.229915318  0.000862182  0.000000000
    -0.016096792  4.292477857  0.000000000     0.000880235  0.232968976  0.000000000
     0.000000000  0.000000000 20.000000000     0.000000000  0.000000000  0.050000000

  length of vectors
     4.349520135  4.292508039 20.000000000     0.229916935  0.232970638  0.050000000


 FORCES acting on ions
    electron-ion (+dipol)            ewald-force                    non-local-force                 convergence-correction
 -----------------------------------------------------------------------------------------------
   0.351E+01 -.680E+00 -.145E+03   -.477E+01 0.926E+00 0.149E+03   0.126E+01 -.246E+00 -.380E+01   -.194E-04 -.588E-04 0.676E-03
   0.351E+01 -.680E+00 0.145E+03   -.477E+01 0.926E+00 -.149E+03   0.126E+01 -.246E+00 0.380E+01   -.194E-04 -.588E-04 -.676E-03
   -.440E+01 0.858E+00 -.208E+03   0.477E+01 -.926E+00 0.210E+03   -.369E+00 0.672E-01 -.203E+01   0.895E-03 0.713E-03 0.249E-02
   -.440E+01 0.858E+00 0.208E+03   0.477E+01 -.926E+00 -.210E+03   -.369E+00 0.672E-01 0.203E+01   0.895E-03 0.713E-03 -.249E-02
 -----------------------------------------------------------------------------------------------
   -.178E+01 0.356E+00 -.353E-06   0.000E+00 0.000E+00 0.000E+00   0.178E+01 -.357E+00 0.000E+00   0.175E-02 0.131E-02 0.172E-10
 
 
 POSITION                                       TOTAL-FORCE (eV/Angst)
 -----------------------------------------------------------------------------------
      2.49914      3.19036     11.37385        -0.000497      0.000542      0.000518
      0.33244      1.05234      8.62615        -0.000497      0.000542     -0.000518
      0.15580      1.09202     11.34494         0.000497     -0.000542     -0.000121
      2.32250      3.23004      8.65506         0.000497     -0.000542      0.000121
 -----------------------------------------------------------------------------------
    total drift:                                0.000243      0.000131     -0.000000


--------------------------------------------------------------------------------------------------------



  FREE ENERGIE OF THE ION-ELECTRON SYSTEM (eV)
  ---------------------------------------------------
  free  energy   TOTEN  =       -16.26308208 eV

  energy  without entropy=      -16.26308208  energy(sigma->0) =      -16.26308208
 
 d Force = 0.6191466E-06[ 0.152E-06, 0.109E-05]  d Energy = 0.7428440E-06-0.124E-06
 d Force =-0.1249743E+00[-0.125E+00,-0.125E+00]  d Ewald  =-0.1249743E+00 0.133E-08


--------------------------------------------------------------------------------------------------------


    POTLOK:  cpu time    0.1859: real time    0.1862


--------------------------------------------------------------------------------------------------------


 Conjugate gradient step on ions:
 trial-energy change:   -0.000001  1 .order   -0.000001   -0.000001   -0.000000
  (g-gl).g = 0.259E-06      g.g   = 0.242E-06  gl.gl    = 0.342E-06
 g(Force)  = 0.242E-06   g(Stress)= 0.000E+00 ortho     =-0.416E-07
 gamma     =   0.75584
 trial     =   5.14925
 opt step  =   5.98974  (harmonic =   5.98974) maximal distance =0.00046666
 next E    =   -16.263082   (d E  =  -0.00000)


--------------------------------------------------------------------------------------------------------


  
 reached required accuracy - stopping structural energy minimisation
 writing wavefunctions
     LOOP+:  cpu time   31.9011: real time   32.5884
    4ORBIT:  cpu time    0.0000: real time    0.0000

 total amount of memory used by VASP MPI-rank0    63318. kBytes
=======================================================================

   base      :      30000. kBytes
   nonl-proj :      12514. kBytes
   fftplans  :       2678. kBytes
   grid      :       4349. kBytes
   one-center:          8. kBytes
   wavefun   :      13769. kBytes
 
  
  
 General timing and accounting informations for this job:
 ========================================================
  
                  Total CPU time used (sec):      725.269
                            User time (sec):      721.816
                          System time (sec):        3.454
                         Elapsed time (sec):      741.196
  
                   Maximum memory used (kb):      212540.
                   Average memory used (kb):           0.
  
                          Minor page faults:       949457
                          Major page faults:          105
                 Voluntary context switches:        10488
