Pristine 1T-MoS2

6  atoms 
2  atom types
0.0      6.16  xlo xhi
0.0      3.55  ylo yhi
0.0      20.0  zlo zhi


Atoms 

     1   1 0.4145031371718631         1.027311197    1.779355049      10.000060797
     2   1 0.4145010606353445         4.109244787    0.000000000      10.000060797
     3   2 -0.20987617179555196       5.136555708    1.779355049       8.190385103
     4   2 -0.20985636281669895       2.054622210    0.000000000       8.190385103
     5   2 -0.20462599863229589       0.000000000    0.000000000      11.809737682
     6   2 -0.20464587295567863       3.081890329    1.779355049      11.809737682
