
     Program PWSCF v.6.6 starts on 12Dec2022 at 17:27:51 

     This program is part of the open-source Quantum ESPRESSO suite
     for quantum simulation of materials; please cite
         "P. Giannozzi et al., J. Phys.:Condens. Matter 21 395502 (2009);
         "P. Giannozzi et al., J. Phys.:Condens. Matter 29 465901 (2017);
          URL http://www.quantum-espresso.org", 
     in publications or presentations arising from this work. More details at
     http://www.quantum-espresso.org/quote

     Parallel version (MPI), running on    24 processors

     MPI processes distributed on     1 nodes
     R & G space division:  proc/nbgrp/npool/nimage =      24
     Fft bands division:     nmany     =       1
     Reading input from INCAR-scf.pw
Warning: card &CELL ignored
Warning: card     CELL_DYNAMICS  = "BFGS" ignored
Warning: card     ! CELL_DOFREE = "XY" ignored
Warning: card / ignored

     Current dimensions of program PWSCF are:
     Max number of different atomic species (ntypx) = 10
     Max number of k-points (npk) =  40000
     Max angular momentum in pseudopotentials (lmaxx) =  3

     Subspace diagonalization in iterative solution of the eigenvalue problem:
     a serial algorithm will be used

     Found symmetry operation: I + ( -0.5000 -0.5000  0.0000)
     This is a supercell, fractional translations are disabled
     Message from routine setup:
     using ibrav=0 with symmetry is DISCOURAGED, use correct ibrav instead
 
     Parallelization info
     --------------------
     sticks:   dense  smooth     PW     G-vecs:    dense   smooth      PW
     Min          64      30      9                11490     3812     629
     Max          65      31     10                11506     3835     650
     Sum        1539     739    219               275959    91837   15201
 


     bravais-lattice index     =            0
     lattice parameter (alat)  =       8.1817  a.u.
     unit-cell volume          =    1460.6701 (a.u.)^3
     number of atoms/cell      =            4
     number of atomic types    =            2
     number of electrons       =        16.00
     number of Kohn-Sham states=            8
     kinetic-energy cutoff     =      60.0000  Ry
     charge density cutoff     =     500.0000  Ry
     convergence threshold     =      1.0E-10
     mixing beta               =       0.7000
     number of iterations used =            8  plain     mixing
     Exchange-correlation= PBE
                           (   1   4   3   4   0   0   0)
     nstep                     =          100


     celldm(1)=   8.181696  celldm(2)=   0.000000  celldm(3)=   0.000000
     celldm(4)=   0.000000  celldm(5)=   0.000000  celldm(6)=   0.000000

     crystal axes: (cart. coord. in units of alat)
               a(1) = (   1.000000   0.000000   0.000000 )  
               a(2) = (   0.000000   0.577347   0.000000 )  
               a(3) = (   0.000000   0.000000   4.619400 )  

     reciprocal axes: (cart. coord. in units 2 pi/alat)
               b(1) = (  1.000000  0.000000  0.000000 )  
               b(2) = (  0.000000  1.732062  0.000000 )  
               b(3) = (  0.000000  0.000000  0.216478 )  


     PseudoPot. # 1 for B  read from file:
     ./B_pbe_v1.01.uspp.F.UPF
     MD5 check sum: d081ebb89d0c768e112975f650467a00
     Pseudo is Ultrasoft + core correction, Zval =  3.0
     Generated by new atomic code, or converted to UPF format
     Using radial grid of  781 points,  4 beta functions with: 
                l(1) =   0
                l(2) =   0
                l(3) =   1
                l(4) =   1
     Q(r) pseudized with  8 coefficients,  rinner =    1.100   1.100   1.100


     PseudoPot. # 2 for N  read from file:
     ./N.oncvpsp.upf
     MD5 check sum: 563d65bfb082928f0c9eb97172f6c357
     Pseudo is Norm-conserving + core correction, Zval =  5.0
     Generated using ONCVPSP code by D. R. Hamann
     Using radial grid of 1058 points,  4 beta functions with: 
                l(1) =   0
                l(2) =   0
                l(3) =   1
                l(4) =   1

     atomic species   valence    mass     pseudopotential
        B              3.00    10.81100     B ( 1.00)
        N              5.00    14.00674     N ( 1.00)

      4 Sym. Ops. (no inversion) found



   Cartesian axes

     site n.     atom                  positions (alat units)
         1           N   tau(   1) = (   0.0000144   0.0000000   2.3096999  )
         2           B   tau(   2) = (   0.3333441   0.0000000   2.3096999  )
         3           N   tau(   3) = (   0.5000146   0.2886733   2.3096999  )
         4           B   tau(   4) = (   0.8333439   0.2886733   2.3096999  )

     number of k points=    64
                       cart. coord. in units 2pi/alat
        k(    1) = (   0.0000000   0.0000000   0.0000000), wk =   0.0102041
        k(    2) = (   0.0000000   0.1237187   0.0000000), wk =   0.0204082
        k(    3) = (   0.0000000   0.2474374   0.0000000), wk =   0.0204082
        k(    4) = (   0.0000000   0.3711561   0.0000000), wk =   0.0204082
        k(    5) = (   0.0000000   0.4948748   0.0000000), wk =   0.0204082
        k(    6) = (   0.0000000   0.6185935   0.0000000), wk =   0.0204082
        k(    7) = (   0.0000000   0.7423121   0.0000000), wk =   0.0204082
        k(    8) = (   0.0000000  -0.8660308   0.0000000), wk =   0.0102041
        k(    9) = (   0.0714286   0.0000000   0.0000000), wk =   0.0204082
        k(   10) = (   0.0714286   0.1237187   0.0000000), wk =   0.0408163
        k(   11) = (   0.0714286   0.2474374   0.0000000), wk =   0.0408163
        k(   12) = (   0.0714286   0.3711561   0.0000000), wk =   0.0408163
        k(   13) = (   0.0714286   0.4948748   0.0000000), wk =   0.0408163
        k(   14) = (   0.0714286   0.6185935   0.0000000), wk =   0.0408163
        k(   15) = (   0.0714286   0.7423121   0.0000000), wk =   0.0408163
        k(   16) = (   0.0714286  -0.8660308   0.0000000), wk =   0.0204082
        k(   17) = (   0.1428571   0.0000000   0.0000000), wk =   0.0204082
        k(   18) = (   0.1428571   0.1237187   0.0000000), wk =   0.0408163
        k(   19) = (   0.1428571   0.2474374   0.0000000), wk =   0.0408163
        k(   20) = (   0.1428571   0.3711561   0.0000000), wk =   0.0408163
        k(   21) = (   0.1428571   0.4948748   0.0000000), wk =   0.0408163
        k(   22) = (   0.1428571   0.6185935   0.0000000), wk =   0.0408163
        k(   23) = (   0.1428571   0.7423121   0.0000000), wk =   0.0408163
        k(   24) = (   0.1428571  -0.8660308   0.0000000), wk =   0.0204082
        k(   25) = (   0.2142857   0.0000000   0.0000000), wk =   0.0204082
        k(   26) = (   0.2142857   0.1237187   0.0000000), wk =   0.0408163
        k(   27) = (   0.2142857   0.2474374   0.0000000), wk =   0.0408163
        k(   28) = (   0.2142857   0.3711561   0.0000000), wk =   0.0408163
        k(   29) = (   0.2142857   0.4948748   0.0000000), wk =   0.0408163
        k(   30) = (   0.2142857   0.6185935   0.0000000), wk =   0.0408163
        k(   31) = (   0.2142857   0.7423121   0.0000000), wk =   0.0408163
        k(   32) = (   0.2142857  -0.8660308   0.0000000), wk =   0.0204082
        k(   33) = (   0.2857143   0.0000000   0.0000000), wk =   0.0204082
        k(   34) = (   0.2857143   0.1237187   0.0000000), wk =   0.0408163
        k(   35) = (   0.2857143   0.2474374   0.0000000), wk =   0.0408163
        k(   36) = (   0.2857143   0.3711561   0.0000000), wk =   0.0408163
        k(   37) = (   0.2857143   0.4948748   0.0000000), wk =   0.0408163
        k(   38) = (   0.2857143   0.6185935   0.0000000), wk =   0.0408163
        k(   39) = (   0.2857143   0.7423121   0.0000000), wk =   0.0408163
        k(   40) = (   0.2857143  -0.8660308   0.0000000), wk =   0.0204082
        k(   41) = (   0.3571429   0.0000000   0.0000000), wk =   0.0204082
        k(   42) = (   0.3571429   0.1237187   0.0000000), wk =   0.0408163
        k(   43) = (   0.3571429   0.2474374   0.0000000), wk =   0.0408163
        k(   44) = (   0.3571429   0.3711561   0.0000000), wk =   0.0408163
        k(   45) = (   0.3571429   0.4948748   0.0000000), wk =   0.0408163
        k(   46) = (   0.3571429   0.6185935   0.0000000), wk =   0.0408163
        k(   47) = (   0.3571429   0.7423121   0.0000000), wk =   0.0408163
        k(   48) = (   0.3571429  -0.8660308   0.0000000), wk =   0.0204082
        k(   49) = (   0.4285714   0.0000000   0.0000000), wk =   0.0204082
        k(   50) = (   0.4285714   0.1237187   0.0000000), wk =   0.0408163
        k(   51) = (   0.4285714   0.2474374   0.0000000), wk =   0.0408163
        k(   52) = (   0.4285714   0.3711561   0.0000000), wk =   0.0408163
        k(   53) = (   0.4285714   0.4948748   0.0000000), wk =   0.0408163
        k(   54) = (   0.4285714   0.6185935   0.0000000), wk =   0.0408163
        k(   55) = (   0.4285714   0.7423121   0.0000000), wk =   0.0408163
        k(   56) = (   0.4285714  -0.8660308   0.0000000), wk =   0.0204082
        k(   57) = (  -0.5000000   0.0000000   0.0000000), wk =   0.0102041
        k(   58) = (  -0.5000000   0.1237187   0.0000000), wk =   0.0204082
        k(   59) = (  -0.5000000   0.2474374   0.0000000), wk =   0.0204082
        k(   60) = (  -0.5000000   0.3711561   0.0000000), wk =   0.0204082
        k(   61) = (  -0.5000000   0.4948748   0.0000000), wk =   0.0204082
        k(   62) = (  -0.5000000   0.6185935   0.0000000), wk =   0.0204082
        k(   63) = (  -0.5000000   0.7423121   0.0000000), wk =   0.0204082
        k(   64) = (  -0.5000000  -0.8660308   0.0000000), wk =   0.0102041

     Dense  grid:   275959 G-vectors     FFT dimensions: (  60,  36, 270)

     Smooth grid:    91837 G-vectors     FFT dimensions: (  45,  24, 192)

     Estimated max dynamical RAM per process >      20.23 MB

     Estimated total dynamical RAM >     485.50 MB

     Check: negative core charge=   -0.000004

     Initial potential from superposition of free atoms

     starting charge   15.99942, renormalised to   16.00000

     negative rho (up, down):  1.560E-05 0.000E+00
     Starting wfcs are   16 randomized atomic wfcs

     total cpu time spent up to now is        1.2 secs

     Self-consistent Calculation

     iteration #  1     ecut=    60.00 Ry     beta= 0.70
     Davidson diagonalization with overlap
     ethr =  1.00E-02,  avg # of iterations =  2.0

     negative rho (up, down):  5.724E-07 0.000E+00

     total cpu time spent up to now is        1.9 secs

     total energy              =     -54.59307596 Ry
     estimated scf accuracy    <       0.80282001 Ry

     iteration #  2     ecut=    60.00 Ry     beta= 0.70
     Davidson diagonalization with overlap
     ethr =  5.02E-03,  avg # of iterations =  2.9

     negative rho (up, down):  7.355E-06 0.000E+00

     total cpu time spent up to now is        2.9 secs

     total energy              =     -54.84546562 Ry
     estimated scf accuracy    <       0.21998228 Ry

     iteration #  3     ecut=    60.00 Ry     beta= 0.70
     Davidson diagonalization with overlap
     ethr =  1.37E-03,  avg # of iterations =  2.0

     negative rho (up, down):  2.022E-05 0.000E+00

     total cpu time spent up to now is        3.6 secs

     total energy              =     -54.84945293 Ry
     estimated scf accuracy    <       0.02557053 Ry

     iteration #  4     ecut=    60.00 Ry     beta= 0.70
     Davidson diagonalization with overlap
     ethr =  1.60E-04,  avg # of iterations =  6.3

     negative rho (up, down):  1.042E-05 0.000E+00

     total cpu time spent up to now is        4.7 secs

     total energy              =     -54.86673762 Ry
     estimated scf accuracy    <       0.07742996 Ry

     iteration #  5     ecut=    60.00 Ry     beta= 0.70
     Davidson diagonalization with overlap
     ethr =  1.60E-04,  avg # of iterations =  2.0

     negative rho (up, down):  1.059E-05 0.000E+00

     total cpu time spent up to now is        5.4 secs

     total energy              =     -54.87024399 Ry
     estimated scf accuracy    <       0.01825055 Ry

     iteration #  6     ecut=    60.00 Ry     beta= 0.70
     Davidson diagonalization with overlap
     ethr =  1.14E-04,  avg # of iterations =  1.0

     negative rho (up, down):  9.950E-06 0.000E+00

     total cpu time spent up to now is        6.0 secs

     total energy              =     -54.86532744 Ry
     estimated scf accuracy    <       0.01445394 Ry

     iteration #  7     ecut=    60.00 Ry     beta= 0.70
     Davidson diagonalization with overlap
     ethr =  9.03E-05,  avg # of iterations =  3.0

     negative rho (up, down):  9.484E-06 0.000E+00

     total cpu time spent up to now is        6.8 secs

     total energy              =     -54.86780460 Ry
     estimated scf accuracy    <       0.00103676 Ry

     iteration #  8     ecut=    60.00 Ry     beta= 0.70
     Davidson diagonalization with overlap
     ethr =  6.48E-06,  avg # of iterations =  4.6

     negative rho (up, down):  9.562E-06 0.000E+00

     total cpu time spent up to now is        7.7 secs

     total energy              =     -54.86856802 Ry
     estimated scf accuracy    <       0.00001062 Ry

     iteration #  9     ecut=    60.00 Ry     beta= 0.70
     Davidson diagonalization with overlap
     ethr =  6.64E-08,  avg # of iterations =  6.8

     negative rho (up, down):  9.440E-06 0.000E+00

     total cpu time spent up to now is        8.8 secs

     total energy              =     -54.86852052 Ry
     estimated scf accuracy    <       0.00019126 Ry

     iteration # 10     ecut=    60.00 Ry     beta= 0.70
     Davidson diagonalization with overlap
     ethr =  6.64E-08,  avg # of iterations =  6.2

     negative rho (up, down):  9.451E-06 0.000E+00

     total cpu time spent up to now is       10.0 secs

     total energy              =     -54.86857292 Ry
     estimated scf accuracy    <       0.00000539 Ry

     iteration # 11     ecut=    60.00 Ry     beta= 0.70
     Davidson diagonalization with overlap
     ethr =  3.37E-08,  avg # of iterations =  3.7

     negative rho (up, down):  9.447E-06 0.000E+00

     total cpu time spent up to now is       10.8 secs

     total energy              =     -54.86857699 Ry
     estimated scf accuracy    <       0.00002762 Ry

     iteration # 12     ecut=    60.00 Ry     beta= 0.70
     Davidson diagonalization with overlap
     ethr =  3.37E-08,  avg # of iterations =  1.0

     negative rho (up, down):  9.457E-06 0.000E+00

     total cpu time spent up to now is       11.4 secs

     total energy              =     -54.86857006 Ry
     estimated scf accuracy    <       0.00003127 Ry

     iteration # 13     ecut=    60.00 Ry     beta= 0.70
     Davidson diagonalization with overlap
     ethr =  3.37E-08,  avg # of iterations =  1.5

     negative rho (up, down):  9.456E-06 0.000E+00

     total cpu time spent up to now is       12.1 secs

     total energy              =     -54.86856749 Ry
     estimated scf accuracy    <       0.00001734 Ry

     iteration # 14     ecut=    60.00 Ry     beta= 0.70
     Davidson diagonalization with overlap
     ethr =  3.37E-08,  avg # of iterations =  2.0

     negative rho (up, down):  9.452E-06 0.000E+00

     total cpu time spent up to now is       12.7 secs

     total energy              =     -54.86856385 Ry
     estimated scf accuracy    <       0.00000898 Ry

     iteration # 15     ecut=    60.00 Ry     beta= 0.70
     Davidson diagonalization with overlap
     ethr =  3.37E-08,  avg # of iterations =  2.9

     negative rho (up, down):  9.456E-06 0.000E+00

     total cpu time spent up to now is       13.5 secs

     total energy              =     -54.86856606 Ry
     estimated scf accuracy    <       0.00000019 Ry

     iteration # 16     ecut=    60.00 Ry     beta= 0.70
     Davidson diagonalization with overlap
     ethr =  1.18E-09,  avg # of iterations =  4.7

     negative rho (up, down):  9.451E-06 0.000E+00

     total cpu time spent up to now is       14.3 secs

     total energy              =     -54.86856620 Ry
     estimated scf accuracy    <       0.00000002 Ry

     iteration # 17     ecut=    60.00 Ry     beta= 0.70
     Davidson diagonalization with overlap
     ethr =  1.29E-10,  avg # of iterations =  6.1

     negative rho (up, down):  9.449E-06 0.000E+00

     total cpu time spent up to now is       15.6 secs

     total energy              =     -54.86856618 Ry
     estimated scf accuracy    <       0.00000008 Ry

     iteration # 18     ecut=    60.00 Ry     beta= 0.70
     Davidson diagonalization with overlap
     ethr =  1.29E-10,  avg # of iterations =  5.8

     negative rho (up, down):  9.449E-06 0.000E+00

     total cpu time spent up to now is       16.6 secs

     total energy              =     -54.86856619 Ry
     estimated scf accuracy    <       0.00000007 Ry

     iteration # 19     ecut=    60.00 Ry     beta= 0.70
     Davidson diagonalization with overlap
     ethr =  1.29E-10,  avg # of iterations =  4.2

     negative rho (up, down):  9.448E-06 0.000E+00

     total cpu time spent up to now is       17.5 secs

     total energy              =     -54.86856621 Ry
     estimated scf accuracy    <          2.5E-09 Ry

     iteration # 20     ecut=    60.00 Ry     beta= 0.70
     Davidson diagonalization with overlap
     ethr =  1.56E-11,  avg # of iterations =  2.3

     negative rho (up, down):  9.448E-06 0.000E+00

     total cpu time spent up to now is       18.2 secs

     total energy              =     -54.86856621 Ry
     estimated scf accuracy    <          2.1E-10 Ry

     iteration # 21     ecut=    60.00 Ry     beta= 0.70
     Davidson diagonalization with overlap
     ethr =  1.32E-12,  avg # of iterations =  4.5

     negative rho (up, down):  9.448E-06 0.000E+00

     total cpu time spent up to now is       19.0 secs

     End of self-consistent calculation

          k = 0.0000 0.0000 0.0000 ( 11455 PWs)   bands (ev):

   -21.7333 -18.6358 -12.9652  -9.3158  -8.2131  -5.4068  -5.4065  -4.9582

          k = 0.0000 0.1237 0.0000 ( 11457 PWs)   bands (ev):

   -21.6593 -18.5870 -12.9062  -9.2163  -8.5031  -5.7177  -5.5560  -4.8867

          k = 0.0000 0.2474 0.0000 ( 11431 PWs)   bands (ev):

   -21.4397 -18.4506 -12.7314  -9.2489  -8.9201  -6.5352  -5.9824  -4.6834

          k = 0.0000 0.3712 0.0000 ( 11430 PWs)   bands (ev):

   -21.0812 -18.2623 -12.4506 -10.1831  -8.4348  -7.6316  -6.6301  -4.3940

          k = 0.0000 0.4949 0.0000 ( 11440 PWs)   bands (ev):

   -20.5974 -18.0946 -12.1155 -10.9990  -8.8141  -7.7759  -7.4213  -4.1251

          k = 0.0000 0.6186 0.0000 ( 11472 PWs)   bands (ev):

   -20.0138 -18.0639 -12.0231 -11.1705  -9.9522  -8.2793  -6.9717  -4.0742

          k = 0.0000 0.7423 0.0000 ( 11488 PWs)   bands (ev):

   -19.3745 -18.2844 -12.0458 -10.9419 -10.6577  -9.1379  -6.0723  -4.4379

          k = 0.0000-0.8660 0.0000 ( 11536 PWs)   bands (ev):

   -18.7585 -18.7585 -11.6786 -11.6786  -9.9459  -9.9459  -5.1729  -5.1729

          k = 0.0714 0.0000 0.0000 ( 11429 PWs)   bands (ev):

   -21.7085 -18.7099 -12.8496  -9.2825  -8.1863  -5.5130  -5.4559  -5.0743

          k = 0.0714 0.1237 0.0000 ( 11433 PWs)   bands (ev):

   -21.6347 -18.6600 -12.7930  -9.1832  -8.4761  -5.8212  -5.5992  -5.0013

          k = 0.0714 0.2474 0.0000 ( 11432 PWs)   bands (ev):

   -21.4155 -18.5201 -12.6267  -9.2194  -8.8874  -6.6406  -6.0008  -4.7941

          k = 0.0714 0.3712 0.0000 ( 11436 PWs)   bands (ev):

   -21.0577 -18.3245 -12.3678 -10.1431  -8.4029  -7.7401  -6.6141  -4.4956

          k = 0.0714 0.4949 0.0000 ( 11434 PWs)   bands (ev):

   -20.5754 -18.1440 -12.0997 -10.9095  -8.9260  -7.7455  -7.3707  -4.2078

          k = 0.0714 0.6186 0.0000 ( 11472 PWs)   bands (ev):

   -19.9942 -18.0946 -12.1155 -10.9991 -10.0660  -8.1975  -6.9442  -4.1251

          k = 0.0714 0.7423 0.0000 ( 11467 PWs)   bands (ev):

   -19.3597 -18.2942 -12.1508 -11.0558 -10.5037  -9.0295  -6.0506  -4.4519

          k = 0.0714-0.8660 0.0000 ( 11468 PWs)   bands (ev):

   -18.7525 -18.7525 -11.7893 -11.7893  -9.8146  -9.8145  -5.1625  -5.1625

          k = 0.1429 0.0000 0.0000 ( 11456 PWs)   bands (ev):

   -21.6347 -18.9143 -12.5221  -9.1832  -8.1076  -5.8215  -5.5989  -5.3873

          k = 0.1429 0.1237 0.0000 ( 11457 PWs)   bands (ev):

   -21.5613 -18.8615 -12.4721  -9.0843  -8.3957  -6.1044  -5.7446  -5.3109

          k = 0.1429 0.2474 0.0000 ( 11445 PWs)   bands (ev):

   -21.3432 -18.7124 -12.3300  -9.1310  -8.7897  -6.9125  -6.0937  -5.0934

          k = 0.1429 0.3712 0.0000 ( 11441 PWs)   bands (ev):

   -20.9877 -18.4981 -12.1342 -10.0213  -8.3077  -8.0138  -6.6191  -4.7721

          k = 0.1429 0.4949 0.0000 ( 11457 PWs)   bands (ev):

   -20.5095 -18.2844 -12.0458 -10.6577  -9.2038  -7.6550  -7.2805  -4.4379

          k = 0.1429 0.6186 0.0000 ( 11466 PWs)   bands (ev):

   -19.9360 -18.1838 -12.2667 -10.6152 -10.3446  -8.0204  -6.8622  -4.2707

          k = 0.1429 0.7423 0.0000 ( 11483 PWs)   bands (ev):

   -19.3161 -18.3244 -12.3678 -11.3283 -10.1432  -8.7791  -5.9864  -4.4956

          k = 0.1429-0.8660 0.0000 ( 11466 PWs)   bands (ev):

   -18.7362 -18.7362 -12.0430 -12.0430  -9.5033  -9.5033  -5.1347  -5.1346

          k = 0.2143 0.0000 0.0000 ( 11446 PWs)   bands (ev):

   -21.5125 -19.2076 -12.0254  -9.0184  -7.9779  -6.3013  -5.8222  -5.8188

          k = 0.2143 0.1237 0.0000 ( 11456 PWs)   bands (ev):

   -21.4397 -19.1514 -11.9858  -8.9201  -8.2633  -6.5354  -5.9822  -5.7425

          k = 0.2143 0.2474 0.0000 ( 11444 PWs)   bands (ev):

   -21.2234 -18.9906 -11.8818  -8.9841  -8.6276  -7.2895  -6.2995  -5.5119

          k = 0.2143 0.3712 0.0000 ( 11442 PWs)   bands (ev):

   -20.8718 -18.7526 -11.7893  -9.8144  -8.3758  -8.1500  -6.7170  -5.1625

          k = 0.2143 0.4949 0.0000 ( 11471 PWs)   bands (ev):

   -20.4009 -18.4956 -11.9439 -10.2794  -9.5607  -7.5055  -7.2444  -4.7711

          k = 0.2143 0.6186 0.0000 ( 11471 PWs)   bands (ev):

   -19.8405 -18.3244 -12.3677 -10.6939 -10.1432  -7.8532  -6.7277  -4.4956

          k = 0.2143 0.7423 0.0000 ( 11477 PWs)   bands (ev):

   -19.2454 -18.3763 -12.5786 -11.6578  -9.7023  -8.4983  -5.8822  -4.5719

          k = 0.2143-0.8660 0.0000 ( 11494 PWs)   bands (ev):

   -18.7123 -18.7123 -12.3299 -12.3299  -9.1312  -9.1312  -5.0934  -5.0934

          k = 0.2857 0.0000 0.0000 ( 11450 PWs)   bands (ev):

   -21.3432 -19.5480 -11.4060  -8.7897  -7.8001  -6.9127  -6.3132  -6.0934

          k = 0.2857 0.1237 0.0000 ( 11469 PWs)   bands (ev):

   -21.2712 -19.4884 -11.3802  -8.6923  -8.0813  -7.0902  -6.2826  -6.2297

          k = 0.2857 0.2474 0.0000 ( 11463 PWs)   bands (ev):

   -21.0578 -19.3161 -11.3284  -8.7789  -8.4029  -7.7402  -6.6140  -5.9864

          k = 0.2857 0.3712 0.0000 ( 11457 PWs)   bands (ev):

   -20.7117 -19.0542 -11.3789  -9.5190  -8.7805  -7.9317  -6.9392  -5.6099

          k = 0.2857 0.4949 0.0000 ( 11474 PWs)   bands (ev):

   -20.2512 -18.7526 -11.7892  -9.9454  -9.8145  -7.3184  -7.2989  -5.1625

          k = 0.2857 0.6186 0.0000 ( 11479 PWs)   bands (ev):

   -19.7099 -18.5051 -12.3899 -11.0577  -9.6363  -7.7667  -6.5433  -4.7778

          k = 0.2857 0.7423 0.0000 ( 11489 PWs)   bands (ev):

   -19.1513 -18.4506 -12.7313 -11.9857  -9.2490  -8.2635  -5.7425  -4.6834

          k = 0.2857-0.8660 0.0000 ( 11512 PWs)   bands (ev):

   -18.6851 -18.6851 -12.5901 -12.5901  -8.7723  -8.7723  -5.0459  -5.0459

          k = 0.3571 0.0000 0.0000 ( 11446 PWs)   bands (ev):

   -21.1286 -19.9032 -10.7026  -8.4991  -7.6159  -7.5781  -6.8149  -6.3997

          k = 0.3571 0.1237 0.0000 ( 11451 PWs)   bands (ev):

   -21.0578 -19.8405 -10.6940  -8.4029  -7.8530  -7.7403  -6.7277  -6.6139

          k = 0.3571 0.2474 0.0000 ( 11443 PWs)   bands (ev):

   -20.8480 -19.6578 -10.7109  -8.5159  -8.2501  -8.1178  -7.0028  -6.4730

          k = 0.3571 0.3712 0.0000 ( 11457 PWs)   bands (ev):

   -20.5095 -19.3745 -10.9420  -9.2038  -9.1378  -7.6550  -7.2805  -6.0723

          k = 0.3571 0.4949 0.0000 ( 11479 PWs)   bands (ev):

   -20.0630 -19.0324 -11.5829 -10.3286  -9.3018  -7.5232  -7.0381  -5.5763

          k = 0.3571 0.6186 0.0000 ( 11499 PWs)   bands (ev):

   -19.5480 -18.7123 -12.3299 -11.4059  -9.1312  -7.8003  -6.3132  -5.0934

          k = 0.3571 0.7423 0.0000 ( 11511 PWs)   bands (ev):

   -19.0388 -18.5464 -12.8052 -12.2805  -8.8277  -8.1233  -5.5745  -4.8285

          k = 0.3571-0.8660 0.0000 ( 11490 PWs)   bands (ev):

   -18.6599 -18.6599 -12.7929 -12.7929  -8.4763  -8.4763  -5.0014  -5.0013

          k = 0.4286 0.0000 0.0000 ( 11448 PWs)   bands (ev):

   -20.8719 -20.2512  -9.9456  -8.3760  -8.1500  -7.3182  -7.2989  -6.7167

          k = 0.4286 0.1237 0.0000 ( 11427 PWs)   bands (ev):

   -20.8024 -20.1857  -9.9592  -8.4547  -8.0555  -7.5836  -7.2087  -6.9525

          k = 0.4286 0.2474 0.0000 ( 11438 PWs)   bands (ev):

   -20.5974 -19.9943 -10.0662  -8.8142  -8.1974  -7.7759  -7.4211  -6.9442

          k = 0.4286 0.3712 0.0000 ( 11471 PWs)   bands (ev):

   -20.2688 -19.6928 -10.5019  -9.6338  -8.6865  -7.7137  -7.3240  -6.5231

          k = 0.4286 0.4949 0.0000 ( 11498 PWs)   bands (ev):

   -19.8405 -19.3161 -11.3283 -10.6939  -8.7791  -7.8532  -6.7277  -5.9864

          k = 0.4286 0.6186 0.0000 ( 11517 PWs)   bands (ev):

   -19.3596 -18.9320 -12.1924 -11.7199  -8.6620  -7.9683  -6.0435  -5.4211

          k = 0.4286 0.7423 0.0000 ( 11513 PWs)   bands (ev):

   -18.9142 -18.6599 -12.7929 -12.5221  -8.4763  -8.1078  -5.3874  -5.0013

          k = 0.4286-0.8660 0.0000 ( 11492 PWs)   bands (ev):

   -18.6421 -18.6421 -12.9212 -12.9212  -8.2813  -8.2813  -4.9698  -4.9698

          k =-0.5000 0.0000 0.0000 ( 11412 PWs)   bands (ev):

   -20.5772 -20.5771  -9.1613  -9.1613  -7.7475  -7.7474  -7.0272  -7.0272

          k =-0.5000 0.1237 0.0000 ( 11426 PWs)   bands (ev):

   -20.5096 -20.5095  -9.2039  -9.2039  -7.6550  -7.6550  -7.2803  -7.2803

          k =-0.5000 0.2474 0.0000 ( 11456 PWs)   bands (ev):

   -20.3108 -20.3108  -9.4254  -9.4254  -7.8280  -7.8280  -7.3823  -7.3823

          k =-0.5000 0.3712 0.0000 ( 11468 PWs)   bands (ev):

   -19.9943 -19.9942 -10.0660 -10.0660  -8.1975  -8.1975  -6.9442  -6.9442

          k =-0.5000 0.4949 0.0000 ( 11494 PWs)   bands (ev):

   -19.5890 -19.5889 -11.0296 -11.0296  -8.2835  -8.2835  -6.3743  -6.3743

          k =-0.5000 0.6186 0.0000 ( 11514 PWs)   bands (ev):

   -19.1513 -19.1513 -11.9857 -11.9857  -8.2635  -8.2635  -5.7425  -5.7425

          k =-0.5000 0.7423 0.0000 ( 11508 PWs)   bands (ev):

   -18.7852 -18.7852 -12.6964 -12.6964  -8.2282  -8.2282  -5.1919  -5.1919

          k =-0.5000-0.8660 0.0000 ( 11504 PWs)   bands (ev):

   -18.6358 -18.6358 -12.9651 -12.9651  -8.2133  -8.2133  -4.9583  -4.9583

     highest occupied level (ev):    -4.0742

!    total energy              =     -54.86856621 Ry
     estimated scf accuracy    <          6.1E-12 Ry

     The total energy is the sum of the following terms:
     one-electron contribution =    -442.83561360 Ry
     hartree contribution      =     224.67511955 Ry
     xc contribution           =     -18.62912085 Ry
     ewald contribution        =     181.92104869 Ry

     convergence has been achieved in  21 iterations

     negative rho (up, down):  9.448E-06 0.000E+00

     Forces acting on atoms (cartesian axes, Ry/au):

     atom    1 type  2   force =     0.00000058    0.00000000    0.00000000
     atom    2 type  1   force =    -0.00000101    0.00000000    0.00000000
     atom    3 type  2   force =    -0.00000174    0.00000000    0.00000000
     atom    4 type  1   force =     0.00000218    0.00000000    0.00000000

     Total force =     0.000003     Total SCF correction =     0.000001
     SCF correction compared to forces is large: reduce conv_thr to get better values

     BFGS Geometry Optimization

     bfgs converged in   1 scf cycles and   0 bfgs steps
     (criteria: energy <  1.0E-06 Ry, force <  1.0E-04 Ry/Bohr)

     End of BFGS Geometry Optimization

     Final energy   =     -54.8685662112 Ry
Begin final coordinates

ATOMIC_POSITIONS (crystal)
N             0.0000143944        0.0000000000        0.5000000000
B             0.3333441428        0.0000000000        0.5000000000
N             0.5000145893        0.5000000000        0.5000000000
B             0.8333438735        0.5000000000        0.5000000000
End final coordinates



     Writing output data file ./wfc-out/pwscf.save/
 
     init_run     :      0.69s CPU      0.86s WALL (       1 calls)
     electrons    :     13.58s CPU     18.27s WALL (       1 calls)
     forces       :      0.19s CPU      0.19s WALL (       1 calls)

     Called by init_run:
     wfcinit      :      0.35s CPU      0.43s WALL (       1 calls)
     potinit      :      0.07s CPU      0.09s WALL (       1 calls)
     hinit0       :      0.14s CPU      0.18s WALL (       1 calls)

     Called by electrons:
     c_bands      :     11.25s CPU     15.42s WALL (      21 calls)
     sum_band     :      1.78s CPU      1.87s WALL (      21 calls)
     v_of_rho     :      0.29s CPU      0.31s WALL (      22 calls)
     newd         :      0.17s CPU      0.20s WALL (      22 calls)
     mix_rho      :      0.05s CPU      0.05s WALL (      21 calls)

     Called by c_bands:
     init_us_2    :      0.30s CPU      0.33s WALL (    2816 calls)
     cegterg      :     10.41s CPU     11.19s WALL (    1344 calls)

     Called by *egterg:
     cdiaghg      :      0.63s CPU      0.88s WALL (    6168 calls)
     h_psi        :      8.87s CPU      9.39s WALL (    6232 calls)
     s_psi        :      0.15s CPU      0.16s WALL (    6232 calls)
     g_psi        :      0.05s CPU      0.05s WALL (    4824 calls)

     Called by h_psi:
     h_psi:calbec :      0.52s CPU      0.57s WALL (    6232 calls)
     vloc_psi     :      8.11s CPU      8.56s WALL (    6232 calls)
     add_vuspsi   :      0.17s CPU      0.18s WALL (    6232 calls)

     General routines
     calbec       :      0.65s CPU      0.71s WALL (    7832 calls)
     fft          :      0.19s CPU      0.23s WALL (     295 calls)
     ffts         :      0.01s CPU      0.03s WALL (      43 calls)
     fftw         :      8.54s CPU      8.99s WALL (   86814 calls)
     interpolate  :      0.02s CPU      0.04s WALL (      22 calls)
 
     Parallel routines
     fft_scatt_xy :      1.02s CPU      1.07s WALL (   87152 calls)
     fft_scatt_yz :      3.67s CPU      3.87s WALL (   87152 calls)
 
     PWSCF        :     14.76s CPU     58.25s WALL

 
   This run was terminated on:  17:28:49  12Dec2022            

=------------------------------------------------------------------------------=
   JOB DONE.
=------------------------------------------------------------------------------=
