 vasp.5.4.4.18Apr17-6-g9f103f2a35 (build Oct 01 2024 10:11:53) complex          
  
 executed on              Shaheen date 2025.02.19  15:18:41
 running on  192 total cores
 distrk:  each k-point on  192 cores,    1 groups
 distr:  one band on NCORES_PER_BAND=  24 cores,    8 groups


--------------------------------------------------------------------------------------------------------


 INCAR:
 POTCAR:    PAW_PBE Mo 08Apr2002                  
 POTCAR:    PAW_PBE S 06Sep2000                   
 POTCAR:    PAW_PBE Te 08Apr2002                  
 POTCAR:    PAW_PBE Mo 08Apr2002                  
   VRHFIN =Mo: 4p5s4d                                                           
   LEXCH  = PE                                                                  
   EATOM  =   217.5176 eV,   15.9871 Ry                                         
                                                                                
   TITEL  = PAW_PBE Mo 08Apr2002                                                
   LULTRA =        F    use ultrasoft PP ?                                      
   IUNSCR =        1    unscreen: 0-lin 1-nonlin 2-no                           
   RPACOR =    2.200    partial core radius                                     
   POMASS =   95.940; ZVAL   =    6.000    mass and valenz                      
   RCORE  =    2.750    outmost cutoff radius                                   
   RWIGS  =    2.750; RWIGS  =    1.455    wigner-seitz radius (au A)           
   ENMAX  =  224.584; ENMIN  =  168.438 eV                                      
   RCLOC  =    2.111    cutoff for local pot                                    
   LCOR   =        T    correct aug charges                                     
   LPAW   =        T    paw PP                                                  
   EAUG   =  345.278                                                            
   DEXC   =    0.000                                                            
   RMAX   =    2.821    core radius for proj-oper                               
   RAUG   =    1.300    factor for augmentation sphere                          
   RDEP   =    2.815    radius for radial grids                                 
   RDEPT  =    2.211    core radius for aug-charge                              
                                                                                
   Atomic configuration                                                         
   12 entries                                                                   
     n  l   j            E        occ.                                          
     1  0  0.50    -19819.0341   2.0000                                         
     2  0  0.50     -2799.0127   2.0000                                         
     2  1  1.50     -2502.0276   6.0000                                         
     3  0  0.50      -476.4448   2.0000                                         
     3  1  1.50      -379.1496   6.0000                                         
     3  2  2.50      -220.9367  10.0000                                         
     4  0  0.50       -64.3378   2.0000                                         
     4  1  1.50       -38.4773   6.0000                                         
     4  2  2.50        -3.7535   5.0000                                         
     5  0  0.50        -4.0862   1.0000                                         
     5  1  0.50        -2.7701   0.0000                                         
     4  3  2.50        -1.3606   0.0000                                         
   Description                                                                  
     l       E           TYP  RCUT    TYP  RCUT                                 
     2     -3.7534765     23  2.500                                             
     2     -5.1140591     23  2.500                                             
     0     -4.0861560     23  2.600                                             
     0     13.6058260     23  2.600                                             
     1      5.4423304     23  2.750                                             
     1     27.2116520     23  2.750                                             
  local pseudopotential read in
  partial core-charges read in
  partial kinetic energy density read in
  atomic valenz-charges read in
  non local Contribution for L=           2  read in
    real space projection operators read in
  non local Contribution for L=           2  read in
    real space projection operators read in
  non local Contribution for L=           0  read in
    real space projection operators read in
  non local Contribution for L=           0  read in
    real space projection operators read in
  non local Contribution for L=           1  read in
    real space projection operators read in
  non local Contribution for L=           1  read in
    real space projection operators read in
    PAW grid and wavefunctions read in
 
   number of l-projection  operators is LMAX  =           6
   number of lm-projection operators is LMMAX =          18
 
 POTCAR:    PAW_PBE S 06Sep2000                   
   VRHFIN =S : s2p4                                                             
   LEXCH  = PE                                                                  
   EATOM  =   276.8230 eV,   20.3459 Ry                                         
                                                                                
   TITEL  = PAW_PBE S 06Sep2000                                                 
   LULTRA =        F    use ultrasoft PP ?                                      
   IUNSCR =        1    unscreen: 0-lin 1-nonlin 2-no                           
   RPACOR =    1.500    partial core radius                                     
   POMASS =   32.066; ZVAL   =    6.000    mass and valenz                      
   RCORE  =    1.900    outmost cutoff radius                                   
   RWIGS  =    2.200; RWIGS  =    1.164    wigner-seitz radius (au A)           
   ENMAX  =  258.689; ENMIN  =  194.016 eV                                      
   ICORE  =        2    local potential                                         
   LCOR   =        T    correct aug charges                                     
   LPAW   =        T    paw PP                                                  
   EAUG   =  335.092                                                            
   DEXC   =    0.000                                                            
   RMAX   =    1.942    core radius for proj-oper                               
   RAUG   =    1.300    factor for augmentation sphere                          
   RDEP   =    1.954    radius for radial grids                                 
   RDEPT  =    1.744    core radius for aug-charge                              
                                                                                
   Atomic configuration                                                         
    6 entries                                                                   
     n  l   j            E        occ.                                          
     1  0  0.50     -2405.8406   2.0000                                         
     2  0  0.50      -211.7007   2.0000                                         
     2  1  1.50      -156.4958   6.0000                                         
     3  0  0.50       -17.2562   2.0000                                         
     3  1  0.50        -7.0085   4.0000                                         
     3  2  1.50        -6.8029   0.0000                                         
   Description                                                                  
     l       E           TYP  RCUT    TYP  RCUT                                 
     0    -17.2561641     23  1.900                                             
     0    -15.8743224     23  1.900                                             
     1     -7.0085400     23  1.900                                             
     1     -2.7779785     23  1.900                                             
     2     -6.8029130     23  1.900                                             
  local pseudopotential read in
  partial core-charges read in
  partial kinetic energy density read in
  atomic valenz-charges read in
  non local Contribution for L=           0  read in
    real space projection operators read in
  non local Contribution for L=           0  read in
    real space projection operators read in
  non local Contribution for L=           1  read in
    real space projection operators read in
  non local Contribution for L=           1  read in
    real space projection operators read in
    PAW grid and wavefunctions read in
 
   number of l-projection  operators is LMAX  =           4
   number of lm-projection operators is LMMAX =           8
 
 POTCAR:    PAW_PBE Te 08Apr2002                  
   VRHFIN =Te: s2p4                                                             
   LEXCH  = PE                                                                  
   EATOM  =   223.2721 eV,   16.4100 Ry                                         
                                                                                
   TITEL  = PAW_PBE Te 08Apr2002                                                
   LULTRA =        F    use ultrasoft PP ?                                      
   IUNSCR =        1    unscreen: 0-lin 1-nonlin 2-no                           
   RPACOR =    2.200    partial core radius                                     
   POMASS =  127.600; ZVAL   =    6.000    mass and valenz                      
   RCORE  =    2.300    outmost cutoff radius                                   
   RWIGS  =    2.900; RWIGS  =    1.535    wigner-seitz radius (au A)           
   ENMAX  =  174.982; ENMIN  =  131.236 eV                                      
   ICORE  =        3    local potential                                         
   LCOR   =        T    correct aug charges                                     
   LPAW   =        T    paw PP                                                  
   EAUG   =  368.792                                                            
   DEXC   =    0.000                                                            
   RMAX   =    2.345    core radius for proj-oper                               
   RAUG   =    1.300    factor for augmentation sphere                          
   RDEP   =    2.397    radius for radial grids                                 
   RDEPT  =    2.174    core radius for aug-charge                              
                                                                                
   Atomic configuration                                                         
   13 entries                                                                   
     n  l   j            E        occ.                                          
     1  0  0.50    -31621.2075   2.0000                                         
     2  0  0.50     -4848.7941   2.0000                                         
     2  1  1.50     -4352.1960   6.0000                                         
     3  0  0.50      -964.9612   2.0000                                         
     3  1  1.50      -803.6179   6.0000                                         
     3  2  2.50      -559.8710  10.0000                                         
     4  0  0.50      -164.3522   2.0000                                         
     4  1  1.50      -114.3756   6.0000                                         
     4  2  2.50       -41.6483  10.0000                                         
     5  0  0.50       -15.1072   2.0000                                         
     5  1  0.50        -5.9526   4.0000                                         
     5  2  1.50        -5.4423   0.0000                                         
     4  3  2.50        -5.4423   0.0000                                         
   Description                                                                  
     l       E           TYP  RCUT    TYP  RCUT                                 
     0    -15.1072389     23  2.300                                             
     0    -16.4678215     23  2.300                                             
     1     -5.9526306     23  2.300                                             
     1     -2.4873968     23  2.300                                             
     2     -5.4423304     23  2.300                                             
     3     -1.3605826     23  2.300                                             
  local pseudopotential read in
  partial core-charges read in
  partial kinetic energy density read in
  atomic valenz-charges read in
  non local Contribution for L=           0  read in
    real space projection operators read in
  non local Contribution for L=           0  read in
    real space projection operators read in
  non local Contribution for L=           1  read in
    real space projection operators read in
  non local Contribution for L=           1  read in
    real space projection operators read in
  non local Contribution for L=           2  read in
    real space projection operators read in
    PAW grid and wavefunctions read in
 
   number of l-projection  operators is LMAX  =           5
   number of lm-projection operators is LMMAX =          13
 
  PAW_PBE Mo 08Apr2002                  :
 energy of atom  1       EATOM= -217.5176
 kinetic energy error for atom=    0.0005 (will be added to EATOM!!)
  PAW_PBE S 06Sep2000                   :
 energy of atom  2       EATOM= -276.8230
 kinetic energy error for atom=    0.0009 (will be added to EATOM!!)
  PAW_PBE Te 08Apr2002                  :
 energy of atom  3       EATOM= -223.2721
 kinetic energy error for atom=    0.0004 (will be added to EATOM!!)
 
 
 POSCAR: Generated by VASPKIT code               
  positions in direct lattice
  velocities in cartesian coordinates
 exchange correlation table for  LEXCH =        8
   RHO(1)=    0.500       N(1)  =     2000
   RHO(2)=  100.500       N(2)  =     4000
 


--------------------------------------------------------------------------------------------------------


 ion  position               nearest neighbor table
   1  0.500  0.167  0.507-   3 2.44   4 2.44   4 2.44   5 2.72   6 2.72   6 2.72   2 3.36   2 3.36
                             2 3.36   2 3.36
   2  0.000  0.667  0.507-   4 2.44   3 2.44   3 2.44   6 2.72   5 2.72   5 2.72   1 3.36   1 3.36
                             1 3.36   1 3.36
   3  0.500  0.833  0.580-   1 2.44   2 2.44   2 2.44
   4  0.000  0.333  0.580-   2 2.44   1 2.44   1 2.44
   5  0.500  0.833  0.413-   1 2.72   2 2.72   2 2.72   6 3.36   6 3.36   6 3.36   6 3.36
   6  0.000  0.333  0.413-   2 2.72   1 2.72   1 2.72   5 3.36   5 3.36   5 3.36   5 3.36
 

IMPORTANT INFORMATION: All symmetrisations will be switched off!
NOSYMM: (Re-)initialisation of all symmetry stuff for point group C_1.

 
 
 KPOINTS: K-Spacing Value to Generate K-Mesh: 0.01

Automatic generation of k-mesh.
Space group operators:
 irot       det(A)        alpha          n_x          n_y          n_z        tau_x        tau_y        tau_z
    1     1.000000     0.000000     1.000000     0.000000     0.000000     0.000000     0.000000     0.000000
 
 Subroutine IBZKPT returns following result:
 ===========================================
 
 Found    105 irreducible k-points:
 
 Following reciprocal coordinates:
            Coordinates               Weight
  0.000000  0.000000  0.000000      1.000000
  0.052632  0.000000  0.000000      2.000000
  0.105263  0.000000  0.000000      2.000000
  0.157895  0.000000  0.000000      2.000000
  0.210526  0.000000  0.000000      2.000000
  0.263158  0.000000  0.000000      2.000000
  0.315789  0.000000  0.000000      2.000000
  0.368421  0.000000  0.000000      2.000000
  0.421053  0.000000  0.000000      2.000000
  0.473684  0.000000  0.000000      2.000000
  0.000000  0.090909  0.000000      2.000000
  0.052632  0.090909  0.000000      2.000000
  0.105263  0.090909  0.000000      2.000000
  0.157895  0.090909  0.000000      2.000000
  0.210526  0.090909  0.000000      2.000000
  0.263158  0.090909  0.000000      2.000000
  0.315789  0.090909  0.000000      2.000000
  0.368421  0.090909  0.000000      2.000000
  0.421053  0.090909  0.000000      2.000000
  0.473684  0.090909  0.000000      2.000000
 -0.473684  0.090909  0.000000      2.000000
 -0.421053  0.090909  0.000000      2.000000
 -0.368421  0.090909  0.000000      2.000000
 -0.315789  0.090909  0.000000      2.000000
 -0.263158  0.090909  0.000000      2.000000
 -0.210526  0.090909  0.000000      2.000000
 -0.157895  0.090909  0.000000      2.000000
 -0.105263  0.090909  0.000000      2.000000
 -0.052632  0.090909  0.000000      2.000000
  0.000000  0.181818  0.000000      2.000000
  0.052632  0.181818  0.000000      2.000000
  0.105263  0.181818  0.000000      2.000000
  0.157895  0.181818  0.000000      2.000000
  0.210526  0.181818  0.000000      2.000000
  0.263158  0.181818  0.000000      2.000000
  0.315789  0.181818  0.000000      2.000000
  0.368421  0.181818  0.000000      2.000000
  0.421053  0.181818  0.000000      2.000000
  0.473684  0.181818  0.000000      2.000000
 -0.473684  0.181818  0.000000      2.000000
 -0.421053  0.181818  0.000000      2.000000
 -0.368421  0.181818  0.000000      2.000000
 -0.315789  0.181818  0.000000      2.000000
 -0.263158  0.181818  0.000000      2.000000
 -0.210526  0.181818  0.000000      2.000000
 -0.157895  0.181818  0.000000      2.000000
 -0.105263  0.181818  0.000000      2.000000
 -0.052632  0.181818  0.000000      2.000000
  0.000000  0.272727  0.000000      2.000000
  0.052632  0.272727  0.000000      2.000000
  0.105263  0.272727  0.000000      2.000000
  0.157895  0.272727  0.000000      2.000000
  0.210526  0.272727  0.000000      2.000000
  0.263158  0.272727  0.000000      2.000000
  0.315789  0.272727  0.000000      2.000000
  0.368421  0.272727  0.000000      2.000000
  0.421053  0.272727  0.000000      2.000000
  0.473684  0.272727  0.000000      2.000000
 -0.473684  0.272727  0.000000      2.000000
 -0.421053  0.272727  0.000000      2.000000
 -0.368421  0.272727  0.000000      2.000000
 -0.315789  0.272727  0.000000      2.000000
 -0.263158  0.272727  0.000000      2.000000
 -0.210526  0.272727  0.000000      2.000000
 -0.157895  0.272727  0.000000      2.000000
 -0.105263  0.272727  0.000000      2.000000
 -0.052632  0.272727  0.000000      2.000000
  0.000000  0.363636  0.000000      2.000000
  0.052632  0.363636  0.000000      2.000000
  0.105263  0.363636  0.000000      2.000000
  0.157895  0.363636  0.000000      2.000000
  0.210526  0.363636  0.000000      2.000000
  0.263158  0.363636  0.000000      2.000000
  0.315789  0.363636  0.000000      2.000000
  0.368421  0.363636  0.000000      2.000000
  0.421053  0.363636  0.000000      2.000000
  0.473684  0.363636  0.000000      2.000000
 -0.473684  0.363636  0.000000      2.000000
 -0.421053  0.363636  0.000000      2.000000
 -0.368421  0.363636  0.000000      2.000000
 -0.315789  0.363636  0.000000      2.000000
 -0.263158  0.363636  0.000000      2.000000
 -0.210526  0.363636  0.000000      2.000000
 -0.157895  0.363636  0.000000      2.000000
 -0.105263  0.363636  0.000000      2.000000
 -0.052632  0.363636  0.000000      2.000000
  0.000000  0.454545  0.000000      2.000000
  0.052632  0.454545  0.000000      2.000000
  0.105263  0.454545  0.000000      2.000000
  0.157895  0.454545  0.000000      2.000000
  0.210526  0.454545  0.000000      2.000000
  0.263158  0.454545  0.000000      2.000000
  0.315789  0.454545  0.000000      2.000000
  0.368421  0.454545  0.000000      2.000000
  0.421053  0.454545  0.000000      2.000000
  0.473684  0.454545  0.000000      2.000000
 -0.473684  0.454545  0.000000      2.000000
 -0.421053  0.454545  0.000000      2.000000
 -0.368421  0.454545  0.000000      2.000000
 -0.315789  0.454545  0.000000      2.000000
 -0.263158  0.454545  0.000000      2.000000
 -0.210526  0.454545  0.000000      2.000000
 -0.157895  0.454545  0.000000      2.000000
 -0.105263  0.454545  0.000000      2.000000
 -0.052632  0.454545  0.000000      2.000000
 
 Following cartesian coordinates:
            Coordinates               Weight
  0.000000  0.000000  0.000000      1.000000
  0.015647  0.000000  0.000000      2.000000
  0.031295  0.000000  0.000000      2.000000
  0.046942  0.000000  0.000000      2.000000
  0.062590  0.000000  0.000000      2.000000
  0.078237  0.000000  0.000000      2.000000
  0.093884  0.000000  0.000000      2.000000
  0.109532  0.000000  0.000000      2.000000
  0.125179  0.000000  0.000000      2.000000
  0.140827  0.000000  0.000000      2.000000
  0.000000  0.015620  0.000000      2.000000
  0.015647  0.015620  0.000000      2.000000
  0.031295  0.015620  0.000000      2.000000
  0.046942  0.015620  0.000000      2.000000
  0.062590  0.015620  0.000000      2.000000
  0.078237  0.015620  0.000000      2.000000
  0.093884  0.015620  0.000000      2.000000
  0.109532  0.015620  0.000000      2.000000
  0.125179  0.015620  0.000000      2.000000
  0.140827  0.015620  0.000000      2.000000
 -0.140827  0.015620  0.000000      2.000000
 -0.125179  0.015620  0.000000      2.000000
 -0.109532  0.015620  0.000000      2.000000
 -0.093884  0.015620  0.000000      2.000000
 -0.078237  0.015620  0.000000      2.000000
 -0.062590  0.015620  0.000000      2.000000
 -0.046942  0.015620  0.000000      2.000000
 -0.031295  0.015620  0.000000      2.000000
 -0.015647  0.015620  0.000000      2.000000
  0.000000  0.031240  0.000000      2.000000
  0.015647  0.031240  0.000000      2.000000
  0.031295  0.031240  0.000000      2.000000
  0.046942  0.031240  0.000000      2.000000
  0.062590  0.031240  0.000000      2.000000
  0.078237  0.031240  0.000000      2.000000
  0.093884  0.031240  0.000000      2.000000
  0.109532  0.031240  0.000000      2.000000
  0.125179  0.031240  0.000000      2.000000
  0.140827  0.031240  0.000000      2.000000
 -0.140827  0.031240  0.000000      2.000000
 -0.125179  0.031240  0.000000      2.000000
 -0.109532  0.031240  0.000000      2.000000
 -0.093884  0.031240  0.000000      2.000000
 -0.078237  0.031240  0.000000      2.000000
 -0.062590  0.031240  0.000000      2.000000
 -0.046942  0.031240  0.000000      2.000000
 -0.031295  0.031240  0.000000      2.000000
 -0.015647  0.031240  0.000000      2.000000
  0.000000  0.046860  0.000000      2.000000
  0.015647  0.046860  0.000000      2.000000
  0.031295  0.046860  0.000000      2.000000
  0.046942  0.046860  0.000000      2.000000
  0.062590  0.046860  0.000000      2.000000
  0.078237  0.046860  0.000000      2.000000
  0.093884  0.046860  0.000000      2.000000
  0.109532  0.046860  0.000000      2.000000
  0.125179  0.046860  0.000000      2.000000
  0.140827  0.046860  0.000000      2.000000
 -0.140827  0.046860  0.000000      2.000000
 -0.125179  0.046860  0.000000      2.000000
 -0.109532  0.046860  0.000000      2.000000
 -0.093884  0.046860  0.000000      2.000000
 -0.078237  0.046860  0.000000      2.000000
 -0.062590  0.046860  0.000000      2.000000
 -0.046942  0.046860  0.000000      2.000000
 -0.031295  0.046860  0.000000      2.000000
 -0.015647  0.046860  0.000000      2.000000
  0.000000  0.062479  0.000000      2.000000
  0.015647  0.062479  0.000000      2.000000
  0.031295  0.062479  0.000000      2.000000
  0.046942  0.062479  0.000000      2.000000
  0.062590  0.062479  0.000000      2.000000
  0.078237  0.062479  0.000000      2.000000
  0.093884  0.062479  0.000000      2.000000
  0.109532  0.062479  0.000000      2.000000
  0.125179  0.062479  0.000000      2.000000
  0.140827  0.062479  0.000000      2.000000
 -0.140827  0.062479  0.000000      2.000000
 -0.125179  0.062479  0.000000      2.000000
 -0.109532  0.062479  0.000000      2.000000
 -0.093884  0.062479  0.000000      2.000000
 -0.078237  0.062479  0.000000      2.000000
 -0.062590  0.062479  0.000000      2.000000
 -0.046942  0.062479  0.000000      2.000000
 -0.031295  0.062479  0.000000      2.000000
 -0.015647  0.062479  0.000000      2.000000
  0.000000  0.078099  0.000000      2.000000
  0.015647  0.078099  0.000000      2.000000
  0.031295  0.078099  0.000000      2.000000
  0.046942  0.078099  0.000000      2.000000
  0.062590  0.078099  0.000000      2.000000
  0.078237  0.078099  0.000000      2.000000
  0.093884  0.078099  0.000000      2.000000
  0.109532  0.078099  0.000000      2.000000
  0.125179  0.078099  0.000000      2.000000
  0.140827  0.078099  0.000000      2.000000
 -0.140827  0.078099  0.000000      2.000000
 -0.125179  0.078099  0.000000      2.000000
 -0.109532  0.078099  0.000000      2.000000
 -0.093884  0.078099  0.000000      2.000000
 -0.078237  0.078099  0.000000      2.000000
 -0.062590  0.078099  0.000000      2.000000
 -0.046942  0.078099  0.000000      2.000000
 -0.031295  0.078099  0.000000      2.000000
 -0.015647  0.078099  0.000000      2.000000
 


--------------------------------------------------------------------------------------------------------




 Dimension of arrays:
   k-points           NKPTS =    105   k-points in BZ     NKDIM =    105   number of bands    NBANDS=     24
   number of dos      NEDOS =    301   number of ions     NIONS =      6
   non local maximal  LDIM  =      6   non local SUM 2l+1 LMDIM =     18
   total plane-waves  NPLWV = 217728
   max r-space proj   IRMAX =      1   max aug-charges    IRDMAX=  35454
   dimension x,y,z NGX =    28 NGY =   48 NGZ =  162
   dimension x,y,z NGXF=    56 NGYF=   96 NGZF=  324
   support grid    NGXF=    56 NGYF=   96 NGZF=  324
   ions per type =               2   2   2
   NGX,Y,Z   is equivalent  to a cutoff of  13.84, 13.71, 13.30 a.u.
   NGXF,Y,Z  is equivalent  to a cutoff of  27.68, 27.42, 26.60 a.u.

 SYSTEM =  unknown system                          
 POSCAR =  Generated by VASPKIT code               

 Startparameter for this run:
   NWRITE =      2    write-flag & timer
   PREC   = accura    normal or accurate (medium, high low for compatibility)
   ISTART =      0    job   : 0-new  1-cont  2-samecut
   ICHARG =      2    charge: 1-file 2-atom 10-const
   ISPIN  =      1    spin polarized calculation?
   LNONCOLLINEAR =      F non collinear calculations
   LSORBIT =      F    spin-orbit coupling
   INIWAV =      1    electr: 0-lowe 1-rand  2-diag
   LASPH  =      F    aspherical Exc in radial PAW
   METAGGA=      F    non-selfconsistent MetaGGA calc.

 Electronic Relaxation 1
   ENCUT  =  600.0 eV  44.10 Ry    6.64 a.u.   6.72 11.62 40.45*2*pi/ulx,y,z
   ENINI  =  600.0     initial cutoff
   ENAUG  =  368.8 eV  augmentation charge cutoff
   NELM   =     60;   NELMIN=  2; NELMDL= -5     # of ELM steps 
   EDIFF  = 0.1E-06   stopping-criterion for ELM
   LREAL  =      F    real-space projection
   NLSPLINE    = F    spline interpolate recip. space projectors
   LCOMPAT=      F    compatible to vasp.4.4
   GGA_COMPAT  = T    GGA compatible to vasp.4.4-vasp.4.6
   LMAXPAW     = -100 max onsite density
   LMAXMIX     =    2 max onsite mixed and CHGCAR
   VOSKOWN=      0    Vosko Wilk Nusair interpolation
   ROPT   =    0.00000   0.00000   0.00000
 Ionic relaxation
   EDIFFG = -.1E-02   stopping-criterion for IOM
   NSW    =    100    number of steps for IOM
   NBLOCK =      1;   KBLOCK =    100    inner block; outer block 
   IBRION =      2    ionic relax: 0-MD 1-quasi-New 2-CG
   NFREE  =      1    steps in history (QN), initial steepest desc. (CG)
   ISIF   =      2    stress and relaxation
   IWAVPR =     11    prediction:  0-non 1-charg 2-wave 3-comb
   ISYM   =      0    0-nonsym 1-usesym 2-fastsym
   LCORR  =      T    Harris-Foulkes like correction to forces

   POTIM  = 0.5000    time-step for ionic-motion
   TEIN   =    0.0    initial temperature
   TEBEG  =    0.0;   TEEND  =   0.0 temperature during run
   SMASS  =  -3.00    Nose mass-parameter (am)
   estimated Nose-frequenzy (Omega)   =  0.10E-29 period in steps =****** mass=  -0.259E-27a.u.
   SCALEE = 1.0000    scale energy and forces
   NPACO  =    256;   APACO  = 16.0  distance and # of slots for P.C.
   PSTRESS=    0.0 pullay stress

  Mass of Ions in am
   POMASS =  95.94 32.07127.60
  Ionic Valenz
   ZVAL   =   6.00  6.00  6.00
  Atomic Wigner-Seitz radii
   RWIGS  =  -1.00 -1.00 -1.00
  virtual crystal weights 
   VCA    =   1.00  1.00  1.00
   NELECT =      36.0000    total number of electrons
   NUPDOWN=      -1.0000    fix difference up-down

 DOS related values:
   EMIN   =  10.00;   EMAX   =-10.00  energy-range for DOS
   EFERMI =   0.00
   ISMEAR =     0;   SIGMA  =   0.10  broadening in eV -4-tet -1-fermi 0-gaus

 Electronic relaxation 2 (details)
   IALGO  =     38    algorithm
   LDIAG  =      T    sub-space diagonalisation (order eigenvalues)
   LSUBROT=      F    optimize rotation matrix (better conditioning)
   TURBO    =      0    0=normal 1=particle mesh
   IRESTART =      0    0=no restart 2=restart with 2 vectors
   NREBOOT  =      0    no. of reboots
   NMIN     =      0    reboot dimension
   EREF     =   0.00    reference energy to select bands
   IMIX   =      4    mixing-type and parameters
     AMIX     =   0.40;   BMIX     =  1.00
     AMIX_MAG =   1.60;   BMIX_MAG =  1.00
     AMIN     =   0.10
     WC   =   100.;   INIMIX=   1;  MIXPRE=   1;  MAXMIX= -45

 Intra band minimization:
   WEIMIN = 0.0010     energy-eigenvalue tresh-hold
   EBREAK =  0.10E-08  absolut break condition
   DEPER  =   0.30     relativ break condition  

   TIME   =   0.40     timestep for ELM

  volume/ion in A,a.u.               =      66.08       445.92
  Fermi-wavevector in a.u.,A,eV,Ry     =   0.735818  1.390495  7.366583  0.541429
  Thomas-Fermi vector in A             =   1.829107
 
 Write flags
   LWAVE        =      F    write WAVECAR
   LDOWNSAMPLE  =      F    k-point downsampling of WAVECAR
   LCHARG       =      T    write CHGCAR
   LVTOT        =      F    write LOCPOT, total local potential
   LVHAR        =      F    write LOCPOT, Hartree potential only
   LELF         =      F    write electronic localiz. function (ELF)
   LORBIT       =      0    0 simple, 1 ext, 2 COOP (PROOUT), +10 PAW based schemes


 Dipole corrections
   LMONO  =      F    monopole corrections only (constant potential shift)
   LDIPOL =      T    correct potential (dipole corrections)
   IDIPOL =      3    1-x, 2-y, 3-z, 4-all directions 
   EPSILON=  1.0000000 bulk dielectric constant

 Exchange correlation treatment:
   GGA     =    PE    GGA type
   LEXCH   =     8    internal setting for exchange type
   VOSKOWN=      0    Vosko Wilk Nusair interpolation
   LHFCALC =     F    Hartree Fock is set to
   LHFONE  =     F    Hartree Fock one center treatment
   AEXX    =    0.0000 exact exchange contribution

 Linear response parameters
   LEPSILON=     F    determine dielectric tensor
   LRPA    =     F    only Hartree local field effects (RPA)
   LNABLA  =     F    use nabla operator in PAW spheres
   LVEL    =     F    velocity operator in full k-point grid
   LINTERFAST=   F  fast interpolation
   KINTER  =     0    interpolate to denser k-point grid
   CSHIFT  =0.1000    complex shift for real part using Kramers Kronig
   OMEGAMAX=  -1.0    maximum frequency
   DEG_THRESHOLD= 0.2000000E-02 threshold for treating states as degnerate
   RTIME   =   -0.100 relaxation time in fs
  (WPLASMAI=    0.000 imaginary part of plasma frequency in eV, 0.658/RTIME)
   DFIELD  = 0.0000000 0.0000000 0.0000000 field for delta impulse in time
 
 Orbital magnetization related:
   ORBITALMAG=     F  switch on orbital magnetization
   LCHIMAG   =     F  perturbation theory with respect to B field
   DQ        =  0.001000  dq finite difference perturbation B field
   LLRAUG    =     F  two centre corrections for induced B field



--------------------------------------------------------------------------------------------------------


 conjugate gradient relaxation of ions
 charge density and potential will be updated during run
 non-spin polarized calculation
 Variant of blocked Davidson
 Davidson routine will perform the subspace rotation
 perform sub-space diagonalisation
    after iterative eigenvector-optimisation
 modified Broyden-mixing scheme, WC =      100.0
 initial mixing is a Kerker type mixing with AMIX =  0.4000 and BMIX =      1.0000
 Hartree-type preconditioning will be used
 using additional bands            6
 reciprocal scheme for non local part
 use partial core corrections
 calculate Harris-corrections to forces 
   (improved forces if not selfconsistent)
 use gradient corrections 
 use of overlap-Matrix (Vanderbilt PP)
 Gauss-broadening in eV      SIGMA  =   0.10


--------------------------------------------------------------------------------------------------------


  energy-cutoff  :      600.00
  volume of cell :      396.47
      direct lattice vectors                 reciprocal lattice vectors
     3.363599539  0.000000000  0.000000000     0.297300552  0.000000000  0.000000000
     0.000000000  5.820099901  0.000000000     0.000000000  0.171818357  0.000000000
     0.000000000  0.000000000 20.252588272     0.000000000  0.000000000  0.049376405

  length of vectors
     3.363599539  5.820099901 20.252588272     0.297300552  0.171818357  0.049376405


 
 k-points in units of 2pi/SCALE and weight: K-Spacing Value to Generate K-Mesh: 0.01
   0.00000000  0.00000000  0.00000000       0.005
   0.01564740  0.00000000  0.00000000       0.010
   0.03129479  0.00000000  0.00000000       0.010
   0.04694219  0.00000000  0.00000000       0.010
   0.06258959  0.00000000  0.00000000       0.010
   0.07823699  0.00000000  0.00000000       0.010
   0.09388438  0.00000000  0.00000000       0.010
   0.10953178  0.00000000  0.00000000       0.010
   0.12517918  0.00000000  0.00000000       0.010
   0.14082658  0.00000000  0.00000000       0.010
   0.00000000  0.01561985  0.00000000       0.010
   0.01564740  0.01561985  0.00000000       0.010
   0.03129479  0.01561985  0.00000000       0.010
   0.04694219  0.01561985  0.00000000       0.010
   0.06258959  0.01561985  0.00000000       0.010
   0.07823699  0.01561985  0.00000000       0.010
   0.09388438  0.01561985  0.00000000       0.010
   0.10953178  0.01561985  0.00000000       0.010
   0.12517918  0.01561985  0.00000000       0.010
   0.14082658  0.01561985  0.00000000       0.010
  -0.14082658  0.01561985  0.00000000       0.010
  -0.12517918  0.01561985  0.00000000       0.010
  -0.10953178  0.01561985  0.00000000       0.010
  -0.09388438  0.01561985  0.00000000       0.010
  -0.07823699  0.01561985  0.00000000       0.010
  -0.06258959  0.01561985  0.00000000       0.010
  -0.04694219  0.01561985  0.00000000       0.010
  -0.03129479  0.01561985  0.00000000       0.010
  -0.01564740  0.01561985  0.00000000       0.010
   0.00000000  0.03123970  0.00000000       0.010
   0.01564740  0.03123970  0.00000000       0.010
   0.03129479  0.03123970  0.00000000       0.010
   0.04694219  0.03123970  0.00000000       0.010
   0.06258959  0.03123970  0.00000000       0.010
   0.07823699  0.03123970  0.00000000       0.010
   0.09388438  0.03123970  0.00000000       0.010
   0.10953178  0.03123970  0.00000000       0.010
   0.12517918  0.03123970  0.00000000       0.010
   0.14082658  0.03123970  0.00000000       0.010
  -0.14082658  0.03123970  0.00000000       0.010
  -0.12517918  0.03123970  0.00000000       0.010
  -0.10953178  0.03123970  0.00000000       0.010
  -0.09388438  0.03123970  0.00000000       0.010
  -0.07823699  0.03123970  0.00000000       0.010
  -0.06258959  0.03123970  0.00000000       0.010
  -0.04694219  0.03123970  0.00000000       0.010
  -0.03129479  0.03123970  0.00000000       0.010
  -0.01564740  0.03123970  0.00000000       0.010
   0.00000000  0.04685955  0.00000000       0.010
   0.01564740  0.04685955  0.00000000       0.010
   0.03129479  0.04685955  0.00000000       0.010
   0.04694219  0.04685955  0.00000000       0.010
   0.06258959  0.04685955  0.00000000       0.010
   0.07823699  0.04685955  0.00000000       0.010
   0.09388438  0.04685955  0.00000000       0.010
   0.10953178  0.04685955  0.00000000       0.010
   0.12517918  0.04685955  0.00000000       0.010
   0.14082658  0.04685955  0.00000000       0.010
  -0.14082658  0.04685955  0.00000000       0.010
  -0.12517918  0.04685955  0.00000000       0.010
  -0.10953178  0.04685955  0.00000000       0.010
  -0.09388438  0.04685955  0.00000000       0.010
  -0.07823699  0.04685955  0.00000000       0.010
  -0.06258959  0.04685955  0.00000000       0.010
  -0.04694219  0.04685955  0.00000000       0.010
  -0.03129479  0.04685955  0.00000000       0.010
  -0.01564740  0.04685955  0.00000000       0.010
   0.00000000  0.06247940  0.00000000       0.010
   0.01564740  0.06247940  0.00000000       0.010
   0.03129479  0.06247940  0.00000000       0.010
   0.04694219  0.06247940  0.00000000       0.010
   0.06258959  0.06247940  0.00000000       0.010
   0.07823699  0.06247940  0.00000000       0.010
   0.09388438  0.06247940  0.00000000       0.010
   0.10953178  0.06247940  0.00000000       0.010
   0.12517918  0.06247940  0.00000000       0.010
   0.14082658  0.06247940  0.00000000       0.010
  -0.14082658  0.06247940  0.00000000       0.010
  -0.12517918  0.06247940  0.00000000       0.010
  -0.10953178  0.06247940  0.00000000       0.010
  -0.09388438  0.06247940  0.00000000       0.010
  -0.07823699  0.06247940  0.00000000       0.010
  -0.06258959  0.06247940  0.00000000       0.010
  -0.04694219  0.06247940  0.00000000       0.010
  -0.03129479  0.06247940  0.00000000       0.010
  -0.01564740  0.06247940  0.00000000       0.010
   0.00000000  0.07809925  0.00000000       0.010
   0.01564740  0.07809925  0.00000000       0.010
   0.03129479  0.07809925  0.00000000       0.010
   0.04694219  0.07809925  0.00000000       0.010
   0.06258959  0.07809925  0.00000000       0.010
   0.07823699  0.07809925  0.00000000       0.010
   0.09388438  0.07809925  0.00000000       0.010
   0.10953178  0.07809925  0.00000000       0.010
   0.12517918  0.07809925  0.00000000       0.010
   0.14082658  0.07809925  0.00000000       0.010
  -0.14082658  0.07809925  0.00000000       0.010
  -0.12517918  0.07809925  0.00000000       0.010
  -0.10953178  0.07809925  0.00000000       0.010
  -0.09388438  0.07809925  0.00000000       0.010
  -0.07823699  0.07809925  0.00000000       0.010
  -0.06258959  0.07809925  0.00000000       0.010
  -0.04694219  0.07809925  0.00000000       0.010
  -0.03129479  0.07809925  0.00000000       0.010
  -0.01564740  0.07809925  0.00000000       0.010
 
 k-points in reciprocal lattice and weights: K-Spacing Value to Generate K-Mesh: 0.01
   0.00000000  0.00000000  0.00000000       0.005
   0.05263158  0.00000000  0.00000000       0.010
   0.10526316  0.00000000  0.00000000       0.010
   0.15789474  0.00000000  0.00000000       0.010
   0.21052632  0.00000000  0.00000000       0.010
   0.26315789  0.00000000  0.00000000       0.010
   0.31578947  0.00000000  0.00000000       0.010
   0.36842105  0.00000000  0.00000000       0.010
   0.42105263  0.00000000  0.00000000       0.010
   0.47368421  0.00000000  0.00000000       0.010
   0.00000000  0.09090909  0.00000000       0.010
   0.05263158  0.09090909  0.00000000       0.010
   0.10526316  0.09090909  0.00000000       0.010
   0.15789474  0.09090909  0.00000000       0.010
   0.21052632  0.09090909  0.00000000       0.010
   0.26315789  0.09090909  0.00000000       0.010
   0.31578947  0.09090909  0.00000000       0.010
   0.36842105  0.09090909  0.00000000       0.010
   0.42105263  0.09090909  0.00000000       0.010
   0.47368421  0.09090909  0.00000000       0.010
  -0.47368421  0.09090909  0.00000000       0.010
  -0.42105263  0.09090909  0.00000000       0.010
  -0.36842105  0.09090909  0.00000000       0.010
  -0.31578947  0.09090909  0.00000000       0.010
  -0.26315789  0.09090909  0.00000000       0.010
  -0.21052632  0.09090909  0.00000000       0.010
  -0.15789474  0.09090909  0.00000000       0.010
  -0.10526316  0.09090909  0.00000000       0.010
  -0.05263158  0.09090909  0.00000000       0.010
   0.00000000  0.18181818  0.00000000       0.010
   0.05263158  0.18181818  0.00000000       0.010
   0.10526316  0.18181818  0.00000000       0.010
   0.15789474  0.18181818  0.00000000       0.010
   0.21052632  0.18181818  0.00000000       0.010
   0.26315789  0.18181818  0.00000000       0.010
   0.31578947  0.18181818  0.00000000       0.010
   0.36842105  0.18181818  0.00000000       0.010
   0.42105263  0.18181818  0.00000000       0.010
   0.47368421  0.18181818  0.00000000       0.010
  -0.47368421  0.18181818  0.00000000       0.010
  -0.42105263  0.18181818  0.00000000       0.010
  -0.36842105  0.18181818  0.00000000       0.010
  -0.31578947  0.18181818  0.00000000       0.010
  -0.26315789  0.18181818  0.00000000       0.010
  -0.21052632  0.18181818  0.00000000       0.010
  -0.15789474  0.18181818  0.00000000       0.010
  -0.10526316  0.18181818  0.00000000       0.010
  -0.05263158  0.18181818  0.00000000       0.010
   0.00000000  0.27272727  0.00000000       0.010
   0.05263158  0.27272727  0.00000000       0.010
   0.10526316  0.27272727  0.00000000       0.010
   0.15789474  0.27272727  0.00000000       0.010
   0.21052632  0.27272727  0.00000000       0.010
   0.26315789  0.27272727  0.00000000       0.010
   0.31578947  0.27272727  0.00000000       0.010
   0.36842105  0.27272727  0.00000000       0.010
   0.42105263  0.27272727  0.00000000       0.010
   0.47368421  0.27272727  0.00000000       0.010
  -0.47368421  0.27272727  0.00000000       0.010
  -0.42105263  0.27272727  0.00000000       0.010
  -0.36842105  0.27272727  0.00000000       0.010
  -0.31578947  0.27272727  0.00000000       0.010
  -0.26315789  0.27272727  0.00000000       0.010
  -0.21052632  0.27272727  0.00000000       0.010
  -0.15789474  0.27272727  0.00000000       0.010
  -0.10526316  0.27272727  0.00000000       0.010
  -0.05263158  0.27272727  0.00000000       0.010
   0.00000000  0.36363636  0.00000000       0.010
   0.05263158  0.36363636  0.00000000       0.010
   0.10526316  0.36363636  0.00000000       0.010
   0.15789474  0.36363636  0.00000000       0.010
   0.21052632  0.36363636  0.00000000       0.010
   0.26315789  0.36363636  0.00000000       0.010
   0.31578947  0.36363636  0.00000000       0.010
   0.36842105  0.36363636  0.00000000       0.010
   0.42105263  0.36363636  0.00000000       0.010
   0.47368421  0.36363636  0.00000000       0.010
  -0.47368421  0.36363636  0.00000000       0.010
  -0.42105263  0.36363636  0.00000000       0.010
  -0.36842105  0.36363636  0.00000000       0.010
  -0.31578947  0.36363636  0.00000000       0.010
  -0.26315789  0.36363636  0.00000000       0.010
  -0.21052632  0.36363636  0.00000000       0.010
  -0.15789474  0.36363636  0.00000000       0.010
  -0.10526316  0.36363636  0.00000000       0.010
  -0.05263158  0.36363636  0.00000000       0.010
   0.00000000  0.45454545  0.00000000       0.010
   0.05263158  0.45454545  0.00000000       0.010
   0.10526316  0.45454545  0.00000000       0.010
   0.15789474  0.45454545  0.00000000       0.010
   0.21052632  0.45454545  0.00000000       0.010
   0.26315789  0.45454545  0.00000000       0.010
   0.31578947  0.45454545  0.00000000       0.010
   0.36842105  0.45454545  0.00000000       0.010
   0.42105263  0.45454545  0.00000000       0.010
   0.47368421  0.45454545  0.00000000       0.010
  -0.47368421  0.45454545  0.00000000       0.010
  -0.42105263  0.45454545  0.00000000       0.010
  -0.36842105  0.45454545  0.00000000       0.010
  -0.31578947  0.45454545  0.00000000       0.010
  -0.26315789  0.45454545  0.00000000       0.010
  -0.21052632  0.45454545  0.00000000       0.010
  -0.15789474  0.45454545  0.00000000       0.010
  -0.10526316  0.45454545  0.00000000       0.010
  -0.05263158  0.45454545  0.00000000       0.010
 
 position of ions in fractional coordinates (direct lattice) 
   0.49999997  0.16666654  0.50703967
   0.00000000  0.66666651  0.50703967
   0.49999997  0.83333325  0.57974952
   0.00000000  0.33333322  0.57974952
   0.50000000  0.83333325  0.41321075
   0.00000000  0.33333325  0.41321075
 
 position of ions in cartesian coordinates  (Angst):
   1.68179967  0.97001590 10.26886559
   0.00000000  3.88006568 10.26886559
   1.68179967  4.85008279 11.74142843
   0.00000000  1.94003266 11.74142843
   1.68179977  4.85008279  8.36858719
   0.00000000  1.94003284  8.36858719
 


--------------------------------------------------------------------------------------------------------


 k-point  1 :   0.0000 0.0000 0.0000  plane waves:   13263
 k-point  2 :   0.0526 0.0000 0.0000  plane waves:   13269
 k-point  3 :   0.1053 0.0000 0.0000  plane waves:   13257
 k-point  4 :   0.1579 0.0000 0.0000  plane waves:   13259
 k-point  5 :   0.2105 0.0000 0.0000  plane waves:   13249
 k-point  6 :   0.2632 0.0000 0.0000  plane waves:   13211
 k-point  7 :   0.3158 0.0000 0.0000  plane waves:   13246
 k-point  8 :   0.3684 0.0000 0.0000  plane waves:   13230
 k-point  9 :   0.4211 0.0000 0.0000  plane waves:   13224
 k-point 10 :   0.4737 0.0000 0.0000  plane waves:   13202
 k-point 11 :   0.0000 0.0909 0.0000  plane waves:   13279
 k-point 12 :   0.0526 0.0909 0.0000  plane waves:   13265
 k-point 13 :   0.1053 0.0909 0.0000  plane waves:   13265
 k-point 14 :   0.1579 0.0909 0.0000  plane waves:   13251
 k-point 15 :   0.2105 0.0909 0.0000  plane waves:   13247
 k-point 16 :   0.2632 0.0909 0.0000  plane waves:   13240
 k-point 17 :   0.3158 0.0909 0.0000  plane waves:   13204
 k-point 18 :   0.3684 0.0909 0.0000  plane waves:   13224
 k-point 19 :   0.4211 0.0909 0.0000  plane waves:   13227
 k-point 20 :   0.4737 0.0909 0.0000  plane waves:   13223
 k-point 21 :  -0.4737 0.0909 0.0000  plane waves:   13223
 k-point 22 :  -0.4211 0.0909 0.0000  plane waves:   13227
 k-point 23 :  -0.3684 0.0909 0.0000  plane waves:   13224
 k-point 24 :  -0.3158 0.0909 0.0000  plane waves:   13204
 k-point 25 :  -0.2632 0.0909 0.0000  plane waves:   13240
 k-point 26 :  -0.2105 0.0909 0.0000  plane waves:   13247
 k-point 27 :  -0.1579 0.0909 0.0000  plane waves:   13251
 k-point 28 :  -0.1053 0.0909 0.0000  plane waves:   13265
 k-point 29 :  -0.0526 0.0909 0.0000  plane waves:   13265
 k-point 30 :   0.0000 0.1818 0.0000  plane waves:   13257
 k-point 31 :   0.0526 0.1818 0.0000  plane waves:   13265
 k-point 32 :   0.1053 0.1818 0.0000  plane waves:   13243
 k-point 33 :   0.1579 0.1818 0.0000  plane waves:   13227
 k-point 34 :   0.2105 0.1818 0.0000  plane waves:   13231
 k-point 35 :   0.2632 0.1818 0.0000  plane waves:   13209
 k-point 36 :   0.3158 0.1818 0.0000  plane waves:   13216
 k-point 37 :   0.3684 0.1818 0.0000  plane waves:   13237
 k-point 38 :   0.4211 0.1818 0.0000  plane waves:   13240
 k-point 39 :   0.4737 0.1818 0.0000  plane waves:   13227
 k-point 40 :  -0.4737 0.1818 0.0000  plane waves:   13227
 k-point 41 :  -0.4211 0.1818 0.0000  plane waves:   13240
 k-point 42 :  -0.3684 0.1818 0.0000  plane waves:   13237
 k-point 43 :  -0.3158 0.1818 0.0000  plane waves:   13216
 k-point 44 :  -0.2632 0.1818 0.0000  plane waves:   13209
 k-point 45 :  -0.2105 0.1818 0.0000  plane waves:   13231
 k-point 46 :  -0.1579 0.1818 0.0000  plane waves:   13227
 k-point 47 :  -0.1053 0.1818 0.0000  plane waves:   13243
 k-point 48 :  -0.0526 0.1818 0.0000  plane waves:   13265
 k-point 49 :   0.0000 0.2727 0.0000  plane waves:   13223
 k-point 50 :   0.0526 0.2727 0.0000  plane waves:   13246
 k-point 51 :   0.1053 0.2727 0.0000  plane waves:   13244
 k-point 52 :   0.1579 0.2727 0.0000  plane waves:   13231
 k-point 53 :   0.2105 0.2727 0.0000  plane waves:   13225
 k-point 54 :   0.2632 0.2727 0.0000  plane waves:   13225
 k-point 55 :   0.3158 0.2727 0.0000  plane waves:   13200
 k-point 56 :   0.3684 0.2727 0.0000  plane waves:   13218
 k-point 57 :   0.4211 0.2727 0.0000  plane waves:   13242
 k-point 58 :   0.4737 0.2727 0.0000  plane waves:   13239
 k-point 59 :  -0.4737 0.2727 0.0000  plane waves:   13239
 k-point 60 :  -0.4211 0.2727 0.0000  plane waves:   13242
 k-point 61 :  -0.3684 0.2727 0.0000  plane waves:   13218
 k-point 62 :  -0.3158 0.2727 0.0000  plane waves:   13200
 k-point 63 :  -0.2632 0.2727 0.0000  plane waves:   13225
 k-point 64 :  -0.2105 0.2727 0.0000  plane waves:   13225
 k-point 65 :  -0.1579 0.2727 0.0000  plane waves:   13231
 k-point 66 :  -0.1053 0.2727 0.0000  plane waves:   13244
 k-point 67 :  -0.0526 0.2727 0.0000  plane waves:   13246
 k-point 68 :   0.0000 0.3636 0.0000  plane waves:   13225
 k-point 69 :   0.0526 0.3636 0.0000  plane waves:   13232
 k-point 70 :   0.1053 0.3636 0.0000  plane waves:   13235
 k-point 71 :   0.1579 0.3636 0.0000  plane waves:   13218
 k-point 72 :   0.2105 0.3636 0.0000  plane waves:   13226
 k-point 73 :   0.2632 0.3636 0.0000  plane waves:   13212
 k-point 74 :   0.3158 0.3636 0.0000  plane waves:   13219
 k-point 75 :   0.3684 0.3636 0.0000  plane waves:   13220
 k-point 76 :   0.4211 0.3636 0.0000  plane waves:   13237
 k-point 77 :   0.4737 0.3636 0.0000  plane waves:   13240
 k-point 78 :  -0.4737 0.3636 0.0000  plane waves:   13240
 k-point 79 :  -0.4211 0.3636 0.0000  plane waves:   13237
 k-point 80 :  -0.3684 0.3636 0.0000  plane waves:   13220
 k-point 81 :  -0.3158 0.3636 0.0000  plane waves:   13219
 k-point 82 :  -0.2632 0.3636 0.0000  plane waves:   13212
 k-point 83 :  -0.2105 0.3636 0.0000  plane waves:   13226
 k-point 84 :  -0.1579 0.3636 0.0000  plane waves:   13218
 k-point 85 :  -0.1053 0.3636 0.0000  plane waves:   13235
 k-point 86 :  -0.0526 0.3636 0.0000  plane waves:   13232
 k-point 87 :   0.0000 0.4545 0.0000  plane waves:   13248
 k-point 88 :   0.0526 0.4545 0.0000  plane waves:   13208
 k-point 89 :   0.1053 0.4545 0.0000  plane waves:   13202
 k-point 90 :   0.1579 0.4545 0.0000  plane waves:   13199
 k-point 91 :   0.2105 0.4545 0.0000  plane waves:   13211
 k-point 92 :   0.2632 0.4545 0.0000  plane waves:   13218
 k-point 93 :   0.3158 0.4545 0.0000  plane waves:   13218
 k-point 94 :   0.3684 0.4545 0.0000  plane waves:   13224
 k-point 95 :   0.4211 0.4545 0.0000  plane waves:   13240
 k-point 96 :   0.4737 0.4545 0.0000  plane waves:   13274
 k-point 97 :  -0.4737 0.4545 0.0000  plane waves:   13274
 k-point 98 :  -0.4211 0.4545 0.0000  plane waves:   13240
 k-point 99 :  -0.3684 0.4545 0.0000  plane waves:   13224
 k-point ** :  -0.3158 0.4545 0.0000  plane waves:   13218
 k-point ** :  -0.2632 0.4545 0.0000  plane waves:   13218
 k-point ** :  -0.2105 0.4545 0.0000  plane waves:   13211
 k-point ** :  -0.1579 0.4545 0.0000  plane waves:   13199
 k-point ** :  -0.1053 0.4545 0.0000  plane waves:   13202
 k-point ** :  -0.0526 0.4545 0.0000  plane waves:   13208

 maximum and minimum number of plane-waves per node :       570      531

 maximum number of plane-waves:     13279
 maximum index in each direction: 
   IXMAX=    7   IYMAX=   11   IZMAX=   40
   IXMIN=   -7   IYMIN=  -12   IZMIN=  -40


 parallel 3D FFT for wavefunctions:
    minimum data exchange during FFTs selected (reduces bandwidth)
 parallel 3D FFT for charge:
    minimum data exchange during FFTs selected (reduces bandwidth)


 total amount of memory used by VASP MPI-rank0    62433. kBytes
=======================================================================

   base      :      30000. kBytes
   nonl-proj :      25455. kBytes
   fftplans  :       1397. kBytes
   grid      :       2623. kBytes
   one-center:         15. kBytes
   wavefun   :       2943. kBytes
 
     INWAV:  cpu time    0.0001: real time    0.0002
 Broyden mixing: mesh for mixing (old mesh)
   NGX = 13   NGY = 23   NGZ = 81
  (NGX  = 56   NGY  = 96   NGZ  =324)
  gives a total of  24219 points

 initial charge density was supplied:
 charge density of overlapping atoms calculated
 number of electron      36.0000000 magnetization 
 keeping initial charge density in first step


--------------------------------------------------------------------------------------------------------


 Maximum index for augmentation-charges         1253 (set IRDMAX)


--------------------------------------------------------------------------------------------------------


 First call to EWALD:  gamma=   0.241
 Maximum number of real-space cells 5x 3x 1
 Maximum number of reciprocal cells 2x 2x 7

    FEWALD:  cpu time    0.0015: real time    0.0015


--------------------------------------- Iteration      1(   1)  ---------------------------------------


    POTLOK:  cpu time    0.0220: real time    0.0559
    SETDIJ:  cpu time    0.0056: real time    0.0056
     EDDAV:  cpu time    1.2085: real time    1.2166
       DOS:  cpu time    0.0016: real time    0.0016
    --------------------------------------------
      LOOP:  cpu time    1.2377: real time    1.2796

 eigenvalue-minimisations  :  5040
 total energy-change (2. order) : 0.2741282E+03  (-0.1301381E+04)
 number of electron      36.0000000 magnetization 
 augmentation part       36.0000000 magnetization 

 DIPCOR: dipole corrections for dipol
 direction  3 min pos     1,
 dipolmoment           0.000000      0.000000      0.000002 electrons x Angstroem
 Tr[quadrupol]      -124.408451

 energy correction for charged system         0.000000 eV
 dipol+quadrupol energy correction           -0.000000 eV
 added-field ion interaction          0.000000 eV  (added to PSCEN)


 Free energy of the ion-electron system (eV)
  ---------------------------------------------------
  alpha Z        PSCENC =        26.13040667
  Ewald energy   TEWEN  =      4185.78706200
  -Hartree energ DENC   =     -5506.83307223
  -exchange      EXHF   =         0.00000000
  -V(xc)+E(xc)   XCENC  =      -153.07108512
  PAW double counting   =      1381.62273368    -1155.94054365
  entropy T*S    EENTRO =        -0.01493190
  eigenvalues    EBANDS =        61.22586757
  atomic energy  EATOM  =      1435.22174307
  Solvation  Ediel_sol  =         0.00000000
  ---------------------------------------------------
  free energy    TOTEN  =       274.12818009 eV

  energy without entropy =      274.14311199  energy(sigma->0) =      274.13564604


--------------------------------------------------------------------------------------------------------




--------------------------------------- Iteration      1(   2)  ---------------------------------------


     EDDAV:  cpu time    1.4116: real time    1.4119
       DOS:  cpu time    0.0015: real time    0.0015
    --------------------------------------------
      LOOP:  cpu time    1.4131: real time    1.4134

 eigenvalue-minimisations  :  7856
 total energy-change (2. order) :-0.2806630E+03  (-0.2725893E+03)
 number of electron      36.0000000 magnetization 
 augmentation part       36.0000000 magnetization 

 DIPCOR: dipole corrections for dipol
 direction  3 min pos     1,
 dipolmoment           0.000000      0.000000      0.000002 electrons x Angstroem
 Tr[quadrupol]      -124.408451

 energy correction for charged system         0.000000 eV
 dipol+quadrupol energy correction           -0.000000 eV
 added-field ion interaction          0.000000 eV  (added to PSCEN)


 Free energy of the ion-electron system (eV)
  ---------------------------------------------------
  alpha Z        PSCENC =        26.13040667
  Ewald energy   TEWEN  =      4185.78706200
  -Hartree energ DENC   =     -5506.83307223
  -exchange      EXHF   =         0.00000000
  -V(xc)+E(xc)   XCENC  =      -153.07108512
  PAW double counting   =      1381.62273368    -1155.94054365
  entropy T*S    EENTRO =        -0.00042071
  eigenvalues    EBANDS =      -219.45168230
  atomic energy  EATOM  =      1435.22174307
  Solvation  Ediel_sol  =         0.00000000
  ---------------------------------------------------
  free energy    TOTEN  =        -6.53485860 eV

  energy without entropy =       -6.53443788  energy(sigma->0) =       -6.53464824


--------------------------------------------------------------------------------------------------------




--------------------------------------- Iteration      1(   3)  ---------------------------------------


     EDDAV:  cpu time    1.3021: real time    1.3024
       DOS:  cpu time    0.0011: real time    0.0011
    --------------------------------------------
      LOOP:  cpu time    1.3032: real time    1.3035

 eigenvalue-minimisations  :  6632
 total energy-change (2. order) :-0.3420587E+02  (-0.3391587E+02)
 number of electron      36.0000000 magnetization 
 augmentation part       36.0000000 magnetization 

 DIPCOR: dipole corrections for dipol
 direction  3 min pos     1,
 dipolmoment           0.000000      0.000000      0.000002 electrons x Angstroem
 Tr[quadrupol]      -124.408451

 energy correction for charged system         0.000000 eV
 dipol+quadrupol energy correction           -0.000000 eV
 added-field ion interaction          0.000000 eV  (added to PSCEN)


 Free energy of the ion-electron system (eV)
  ---------------------------------------------------
  alpha Z        PSCENC =        26.13040667
  Ewald energy   TEWEN  =      4185.78706200
  -Hartree energ DENC   =     -5506.83307223
  -exchange      EXHF   =         0.00000000
  -V(xc)+E(xc)   XCENC  =      -153.07108512
  PAW double counting   =      1381.62273368    -1155.94054365
  entropy T*S    EENTRO =        -0.00000000
  eigenvalues    EBANDS =      -253.65797259
  atomic energy  EATOM  =      1435.22174307
  Solvation  Ediel_sol  =         0.00000000
  ---------------------------------------------------
  free energy    TOTEN  =       -40.74072817 eV

  energy without entropy =      -40.74072817  energy(sigma->0) =      -40.74072817


--------------------------------------------------------------------------------------------------------




--------------------------------------- Iteration      1(   4)  ---------------------------------------


     EDDAV:  cpu time    1.3430: real time    1.3436
       DOS:  cpu time    0.0011: real time    0.0011
    --------------------------------------------
      LOOP:  cpu time    1.3442: real time    1.3447

 eigenvalue-minimisations  :  7208
 total energy-change (2. order) :-0.1139269E+01  (-0.1133628E+01)
 number of electron      36.0000000 magnetization 
 augmentation part       36.0000000 magnetization 

 DIPCOR: dipole corrections for dipol
 direction  3 min pos     1,
 dipolmoment           0.000000      0.000000      0.000002 electrons x Angstroem
 Tr[quadrupol]      -124.408451

 energy correction for charged system         0.000000 eV
 dipol+quadrupol energy correction           -0.000000 eV
 added-field ion interaction          0.000000 eV  (added to PSCEN)


 Free energy of the ion-electron system (eV)
  ---------------------------------------------------
  alpha Z        PSCENC =        26.13040667
  Ewald energy   TEWEN  =      4185.78706200
  -Hartree energ DENC   =     -5506.83307223
  -exchange      EXHF   =         0.00000000
  -V(xc)+E(xc)   XCENC  =      -153.07108512
  PAW double counting   =      1381.62273368    -1155.94054365
  entropy T*S    EENTRO =        -0.00000000
  eigenvalues    EBANDS =      -254.79724166
  atomic energy  EATOM  =      1435.22174307
  Solvation  Ediel_sol  =         0.00000000
  ---------------------------------------------------
  free energy    TOTEN  =       -41.87999724 eV

  energy without entropy =      -41.87999724  energy(sigma->0) =      -41.87999724


--------------------------------------------------------------------------------------------------------




--------------------------------------- Iteration      1(   5)  ---------------------------------------


     EDDAV:  cpu time    1.3640: real time    1.3645
       DOS:  cpu time    0.0011: real time    0.0011
    CHARGE:  cpu time    0.0454: real time    0.0454
    MIXING:  cpu time    0.0005: real time    0.0005
    --------------------------------------------
      LOOP:  cpu time    1.4111: real time    1.4116

 eigenvalue-minimisations  :  7536
 total energy-change (2. order) :-0.3914518E-01  (-0.3912455E-01)
 number of electron      36.0000000 magnetization 
 augmentation part       -2.3383649 magnetization 

 DIPCOR: dipole corrections for dipol
 direction  3 min pos     1,
 dipolmoment           0.000000      0.000000      0.000002 electrons x Angstroem
 Tr[quadrupol]      -124.408451

 energy correction for charged system         0.000000 eV
 dipol+quadrupol energy correction           -0.000000 eV
 added-field ion interaction          0.000000 eV  (added to PSCEN)


 Broyden mixing:
  rms(total) = 0.27022E+01    rms(broyden)= 0.27022E+01
  rms(prec ) = 0.27427E+01
  weight for this iteration     100.00

 Free energy of the ion-electron system (eV)
  ---------------------------------------------------
  alpha Z        PSCENC =        26.13040667
  Ewald energy   TEWEN  =      4185.78706200
  -Hartree energ DENC   =     -5506.83307223
  -exchange      EXHF   =         0.00000000
  -V(xc)+E(xc)   XCENC  =      -153.07108512
  PAW double counting   =      1381.62273368    -1155.94054365
  entropy T*S    EENTRO =        -0.00000000
  eigenvalues    EBANDS =      -254.83638684
  atomic energy  EATOM  =      1435.22174307
  Solvation  Ediel_sol  =         0.00000000
  ---------------------------------------------------
  free energy    TOTEN  =       -41.91914242 eV

  energy without entropy =      -41.91914242  energy(sigma->0) =      -41.91914242


--------------------------------------------------------------------------------------------------------




--------------------------------------- Iteration      1(   6)  ---------------------------------------


    POTLOK:  cpu time    0.0132: real time    0.0132
    SETDIJ:  cpu time    0.0020: real time    0.0020
     EDDAV:  cpu time    1.3190: real time    1.3192
       DOS:  cpu time    0.0016: real time    0.0016
    CHARGE:  cpu time    0.0443: real time    0.0443
    MIXING:  cpu time    0.0003: real time    0.0003
    --------------------------------------------
      LOOP:  cpu time    1.3802: real time    1.3805

 eigenvalue-minimisations  :  7152
 total energy-change (2. order) : 0.1943155E+01  (-0.1190765E+01)
 number of electron      36.0000000 magnetization 
 augmentation part       -1.4139324 magnetization 

 DIPCOR: dipole corrections for dipol
 direction  3 min pos     1,
 dipolmoment           0.000000      0.000000      0.188706 electrons x Angstroem
 Tr[quadrupol]      -124.449599

 energy correction for charged system         0.000000 eV
 dipol+quadrupol energy correction           -0.008126 eV
 added-field ion interaction          0.000001 eV  (added to PSCEN)


 Broyden mixing:
  rms(total) = 0.11721E+01    rms(broyden)= 0.11721E+01
  rms(prec ) = 0.12052E+01
  weight for this iteration     100.00

 eigenvalues of (default mixing * dielectric matrix)
  average eigenvalue GAMMA=   1.2133
  1.2133

 Free energy of the ion-electron system (eV)
  ---------------------------------------------------
  alpha Z        PSCENC =        26.12228160
  Ewald energy   TEWEN  =      4185.78706200
  -Hartree energ DENC   =     -5506.32977922
  -exchange      EXHF   =         0.00000000
  -V(xc)+E(xc)   XCENC  =      -151.80480361
  PAW double counting   =      1937.27911102    -1713.09724393
  entropy T*S    EENTRO =        -0.00000019
  eigenvalues    EBANDS =      -253.15435827
  atomic energy  EATOM  =      1435.22174307
  Solvation  Ediel_sol  =         0.00000000
  ---------------------------------------------------
  free energy    TOTEN  =       -39.97598754 eV

  energy without entropy =      -39.97598735  energy(sigma->0) =      -39.97598744


--------------------------------------------------------------------------------------------------------




--------------------------------------- Iteration      1(   7)  ---------------------------------------


    POTLOK:  cpu time    0.0127: real time    0.0127
    SETDIJ:  cpu time    0.0020: real time    0.0020
     EDDAV:  cpu time    1.3120: real time    1.3125
       DOS:  cpu time    0.0013: real time    0.0013
    CHARGE:  cpu time    0.0446: real time    0.0446
    MIXING:  cpu time    0.0003: real time    0.0003
    --------------------------------------------
      LOOP:  cpu time    1.3729: real time    1.3734

 eigenvalue-minimisations  :  6856
 total energy-change (2. order) : 0.1895503E+00  (-0.6811540E+00)
 number of electron      36.0000000 magnetization 
 augmentation part       -2.0181899 magnetization 

 DIPCOR: dipole corrections for dipol
 direction  3 min pos     1,
 dipolmoment           0.000000      0.000000      0.185310 electrons x Angstroem
 Tr[quadrupol]      -125.217485

 energy correction for charged system         0.000000 eV
 dipol+quadrupol energy correction           -0.007836 eV
 added-field ion interaction          0.000001 eV  (added to PSCEN)


 Broyden mixing:
  rms(total) = 0.72611E+00    rms(broyden)= 0.72611E+00
  rms(prec ) = 0.75918E+00
  weight for this iteration     100.00

 eigenvalues of (default mixing * dielectric matrix)
  average eigenvalue GAMMA=   1.2052
  1.7972  0.6133

 Free energy of the ion-electron system (eV)
  ---------------------------------------------------
  alpha Z        PSCENC =        26.12257148
  Ewald energy   TEWEN  =      4185.78706200
  -Hartree energ DENC   =     -5521.60065707
  -exchange      EXHF   =         0.00000000
  -V(xc)+E(xc)   XCENC  =      -151.97765881
  PAW double counting   =      2479.48451325    -2255.91074685
  entropy T*S    EENTRO =        -0.00000000
  eigenvalues    EBANDS =      -236.91326435
  atomic energy  EATOM  =      1435.22174307
  Solvation  Ediel_sol  =         0.00000000
  ---------------------------------------------------
  free energy    TOTEN  =       -39.78643728 eV

  energy without entropy =      -39.78643728  energy(sigma->0) =      -39.78643728


--------------------------------------------------------------------------------------------------------




--------------------------------------- Iteration      1(   8)  ---------------------------------------


    POTLOK:  cpu time    0.0128: real time    0.0128
    SETDIJ:  cpu time    0.0021: real time    0.0021
     EDDAV:  cpu time    1.2828: real time    1.2834
       DOS:  cpu time    0.0012: real time    0.0012
    CHARGE:  cpu time    0.0440: real time    0.0440
    MIXING:  cpu time    0.0003: real time    0.0003
    --------------------------------------------
      LOOP:  cpu time    1.3433: real time    1.3438

 eigenvalue-minimisations  :  6816
 total energy-change (2. order) : 0.3447979E+00  (-0.1529324E+00)
 number of electron      36.0000000 magnetization 
 augmentation part       -1.7202110 magnetization 

 DIPCOR: dipole corrections for dipol
 direction  3 min pos     1,
 dipolmoment           0.000000      0.000000      0.136690 electrons x Angstroem
 Tr[quadrupol]      -125.184926

 energy correction for charged system         0.000000 eV
 dipol+quadrupol energy correction           -0.004264 eV
 added-field ion interaction          0.000001 eV  (added to PSCEN)


 Broyden mixing:
  rms(total) = 0.26503E+00    rms(broyden)= 0.26503E+00
  rms(prec ) = 0.27085E+00
  weight for this iteration     100.00

 eigenvalues of (default mixing * dielectric matrix)
  average eigenvalue GAMMA=   1.1003
  2.0536  0.6572  0.5901

 Free energy of the ion-electron system (eV)
  ---------------------------------------------------
  alpha Z        PSCENC =        26.12614377
  Ewald energy   TEWEN  =      4185.78706200
  -Hartree energ DENC   =     -5519.38650672
  -exchange      EXHF   =         0.00000000
  -V(xc)+E(xc)   XCENC  =      -151.50368498
  PAW double counting   =      2828.05950865    -2605.03986274
  entropy T*S    EENTRO =        -0.00000000
  eigenvalues    EBANDS =      -238.70604241
  atomic energy  EATOM  =      1435.22174307
  Solvation  Ediel_sol  =         0.00000000
  ---------------------------------------------------
  free energy    TOTEN  =       -39.44163935 eV

  energy without entropy =      -39.44163935  energy(sigma->0) =      -39.44163935


--------------------------------------------------------------------------------------------------------




--------------------------------------- Iteration      1(   9)  ---------------------------------------


    POTLOK:  cpu time    0.0129: real time    0.0129
    SETDIJ:  cpu time    0.0020: real time    0.0020
     EDDAV:  cpu time    1.2874: real time    1.2877
       DOS:  cpu time    0.0011: real time    0.0011
    CHARGE:  cpu time    0.0444: real time    0.0444
    MIXING:  cpu time    0.0004: real time    0.0004
    --------------------------------------------
      LOOP:  cpu time    1.3482: real time    1.3485

 eigenvalue-minimisations  :  6664
 total energy-change (2. order) : 0.1514704E-01  (-0.1050745E-01)
 number of electron      36.0000000 magnetization 
 augmentation part       -1.7113890 magnetization 

 DIPCOR: dipole corrections for dipol
 direction  3 min pos     1,
 dipolmoment           0.000000      0.000000      0.164376 electrons x Angstroem
 Tr[quadrupol]      -125.292607

 energy correction for charged system         0.000000 eV
 dipol+quadrupol energy correction           -0.006166 eV
 added-field ion interaction          0.000001 eV  (added to PSCEN)


 Broyden mixing:
  rms(total) = 0.98184E-01    rms(broyden)= 0.98184E-01
  rms(prec ) = 0.10073E+00
  weight for this iteration     100.00

 eigenvalues of (default mixing * dielectric matrix)
  average eigenvalue GAMMA=   1.1530
  2.0117  0.9976  0.9976  0.6051

 Free energy of the ion-electron system (eV)
  ---------------------------------------------------
  alpha Z        PSCENC =        26.12424183
  Ewald energy   TEWEN  =      4185.78706200
  -Hartree energ DENC   =     -5521.69146669
  -exchange      EXHF   =         0.00000000
  -V(xc)+E(xc)   XCENC  =      -151.39394500
  PAW double counting   =      2954.88290623    -2732.03889267
  entropy T*S    EENTRO =        -0.00000000
  eigenvalues    EBANDS =      -236.31814107
  atomic energy  EATOM  =      1435.22174307
  Solvation  Ediel_sol  =         0.00000000
  ---------------------------------------------------
  free energy    TOTEN  =       -39.42649231 eV

  energy without entropy =      -39.42649231  energy(sigma->0) =      -39.42649231


--------------------------------------------------------------------------------------------------------




--------------------------------------- Iteration      1(  10)  ---------------------------------------


    POTLOK:  cpu time    0.0128: real time    0.0131
    SETDIJ:  cpu time    0.0020: real time    0.0020
     EDDAV:  cpu time    1.3533: real time    1.3535
       DOS:  cpu time    0.0012: real time    0.0012
    CHARGE:  cpu time    0.0441: real time    0.0441
    MIXING:  cpu time    0.0004: real time    0.0004
    --------------------------------------------
      LOOP:  cpu time    1.4138: real time    1.4143

 eigenvalue-minimisations  :  7392
 total energy-change (2. order) : 0.2607293E-02  (-0.2185541E-02)
 number of electron      36.0000000 magnetization 
 augmentation part       -1.7316245 magnetization 

 DIPCOR: dipole corrections for dipol
 direction  3 min pos     1,
 dipolmoment           0.000000      0.000000      0.167725 electrons x Angstroem
 Tr[quadrupol]      -125.371474

 energy correction for charged system         0.000000 eV
 dipol+quadrupol energy correction           -0.006420 eV
 added-field ion interaction          0.000001 eV  (added to PSCEN)


 Broyden mixing:
  rms(total) = 0.83292E-01    rms(broyden)= 0.83292E-01
  rms(prec ) = 0.84362E-01
  weight for this iteration     100.00

 eigenvalues of (default mixing * dielectric matrix)
  average eigenvalue GAMMA=   1.3291
  2.1813  2.1813  1.0404  0.6213  0.6213

 Free energy of the ion-electron system (eV)
  ---------------------------------------------------
  alpha Z        PSCENC =        26.12398808
  Ewald energy   TEWEN  =      4185.78706200
  -Hartree energ DENC   =     -5523.55604323
  -exchange      EXHF   =         0.00000000
  -V(xc)+E(xc)   XCENC  =      -151.35266358
  PAW double counting   =      2975.73875348    -2752.95311520
  entropy T*S    EENTRO =        -0.00000000
  eigenvalues    EBANDS =      -234.43360965
  atomic energy  EATOM  =      1435.22174307
  Solvation  Ediel_sol  =         0.00000000
  ---------------------------------------------------
  free energy    TOTEN  =       -39.42388502 eV

  energy without entropy =      -39.42388502  energy(sigma->0) =      -39.42388502


--------------------------------------------------------------------------------------------------------




--------------------------------------- Iteration      1(  11)  ---------------------------------------


    POTLOK:  cpu time    0.0129: real time    0.0129
    SETDIJ:  cpu time    0.0021: real time    0.0021
     EDDAV:  cpu time    1.3933: real time    1.3936
       DOS:  cpu time    0.0012: real time    0.0012
    CHARGE:  cpu time    0.0443: real time    0.0443
    MIXING:  cpu time    0.0004: real time    0.0004
    --------------------------------------------
      LOOP:  cpu time    1.4542: real time    1.4545

 eigenvalue-minimisations  :  7408
 total energy-change (2. order) : 0.1371128E-02  (-0.3762410E-03)
 number of electron      36.0000000 magnetization 
 augmentation part       -1.7249383 magnetization 

 DIPCOR: dipole corrections for dipol
 direction  3 min pos     1,
 dipolmoment           0.000000      0.000000      0.159742 electrons x Angstroem
 Tr[quadrupol]      -125.443488

 energy correction for charged system         0.000000 eV
 dipol+quadrupol energy correction           -0.005823 eV
 added-field ion interaction          0.000001 eV  (added to PSCEN)


 Broyden mixing:
  rms(total) = 0.47207E-01    rms(broyden)= 0.47207E-01
  rms(prec ) = 0.48787E-01
  weight for this iteration     100.00

 eigenvalues of (default mixing * dielectric matrix)
  average eigenvalue GAMMA=   1.3152
  2.3641  2.3641  1.0467  0.6133  0.7515  0.7515

 Free energy of the ion-electron system (eV)
  ---------------------------------------------------
  alpha Z        PSCENC =        26.12458458
  Ewald energy   TEWEN  =      4185.78706200
  -Hartree energ DENC   =     -5525.08039212
  -exchange      EXHF   =         0.00000000
  -V(xc)+E(xc)   XCENC  =      -151.31100499
  PAW double counting   =      2993.92408894    -2771.18434372
  entropy T*S    EENTRO =        -0.00000000
  eigenvalues    EBANDS =      -232.90425164
  atomic energy  EATOM  =      1435.22174307
  Solvation  Ediel_sol  =         0.00000000
  ---------------------------------------------------
  free energy    TOTEN  =       -39.42251389 eV

  energy without entropy =      -39.42251389  energy(sigma->0) =      -39.42251389


--------------------------------------------------------------------------------------------------------




--------------------------------------- Iteration      1(  12)  ---------------------------------------


    POTLOK:  cpu time    0.0131: real time    0.0131
    SETDIJ:  cpu time    0.0020: real time    0.0020
     EDDAV:  cpu time    1.3355: real time    1.3362
       DOS:  cpu time    0.0012: real time    0.0012
    CHARGE:  cpu time    0.0441: real time    0.0441
    MIXING:  cpu time    0.0005: real time    0.0005
    --------------------------------------------
      LOOP:  cpu time    1.3964: real time    1.3971

 eigenvalue-minimisations  :  7160
 total energy-change (2. order) : 0.8740942E-03  (-0.3432307E-03)
 number of electron      36.0000000 magnetization 
 augmentation part       -1.7287933 magnetization 

 DIPCOR: dipole corrections for dipol
 direction  3 min pos     1,
 dipolmoment           0.000000      0.000000      0.164838 electrons x Angstroem
 Tr[quadrupol]      -125.507895

 energy correction for charged system         0.000000 eV
 dipol+quadrupol energy correction           -0.006201 eV
 added-field ion interaction          0.000001 eV  (added to PSCEN)


 Broyden mixing:
  rms(total) = 0.14597E-01    rms(broyden)= 0.14597E-01
  rms(prec ) = 0.16277E-01
  weight for this iteration     100.00

 eigenvalues of (default mixing * dielectric matrix)
  average eigenvalue GAMMA=   1.2844
  2.2621  2.2621  1.4035  0.9892  0.6561  0.6561  0.7616

 Free energy of the ion-electron system (eV)
  ---------------------------------------------------
  alpha Z        PSCENC =        26.12420709
  Ewald energy   TEWEN  =      4185.78706200
  -Hartree energ DENC   =     -5526.52265636
  -exchange      EXHF   =         0.00000000
  -V(xc)+E(xc)   XCENC  =      -151.28919853
  PAW double counting   =      2992.86017298    -2770.13201177
  entropy T*S    EENTRO =        -0.00000000
  eigenvalues    EBANDS =      -231.47095828
  atomic energy  EATOM  =      1435.22174307
  Solvation  Ediel_sol  =         0.00000000
  ---------------------------------------------------
  free energy    TOTEN  =       -39.42163980 eV

  energy without entropy =      -39.42163980  energy(sigma->0) =      -39.42163980


--------------------------------------------------------------------------------------------------------




--------------------------------------- Iteration      1(  13)  ---------------------------------------


    POTLOK:  cpu time    0.0130: real time    0.0130
    SETDIJ:  cpu time    0.0021: real time    0.0021
     EDDAV:  cpu time    1.2892: real time    1.2894
       DOS:  cpu time    0.0011: real time    0.0011
    CHARGE:  cpu time    0.0440: real time    0.0440
    MIXING:  cpu time    0.0005: real time    0.0005
    --------------------------------------------
      LOOP:  cpu time    1.3500: real time    1.3502

 eigenvalue-minimisations  :  6856
 total energy-change (2. order) : 0.1639876E-03  (-0.1655774E-03)
 number of electron      36.0000000 magnetization 
 augmentation part       -1.7192388 magnetization 

 DIPCOR: dipole corrections for dipol
 direction  3 min pos     1,
 dipolmoment           0.000000      0.000000      0.163607 electrons x Angstroem
 Tr[quadrupol]      -125.542120

 energy correction for charged system         0.000000 eV
 dipol+quadrupol energy correction           -0.006108 eV
 added-field ion interaction          0.000001 eV  (added to PSCEN)


 Broyden mixing:
  rms(total) = 0.99627E-02    rms(broyden)= 0.99627E-02
  rms(prec ) = 0.11266E-01
  weight for this iteration     100.00

 eigenvalues of (default mixing * dielectric matrix)
  average eigenvalue GAMMA=   1.2393
  2.3741  2.3741  1.5587  1.1361  0.6737  0.6737  0.6910  0.4331

 Free energy of the ion-electron system (eV)
  ---------------------------------------------------
  alpha Z        PSCENC =        26.12429936
  Ewald energy   TEWEN  =      4185.78706200
  -Hartree energ DENC   =     -5527.20099184
  -exchange      EXHF   =         0.00000000
  -V(xc)+E(xc)   XCENC  =      -151.27240265
  PAW double counting   =      2994.04384841    -2771.31764497
  entropy T*S    EENTRO =        -0.00000000
  eigenvalues    EBANDS =      -230.80738918
  atomic energy  EATOM  =      1435.22174307
  Solvation  Ediel_sol  =         0.00000000
  ---------------------------------------------------
  free energy    TOTEN  =       -39.42147581 eV

  energy without entropy =      -39.42147581  energy(sigma->0) =      -39.42147581


--------------------------------------------------------------------------------------------------------




--------------------------------------- Iteration      1(  14)  ---------------------------------------


    POTLOK:  cpu time    0.0130: real time    0.0130
    SETDIJ:  cpu time    0.0021: real time    0.0021
     EDDAV:  cpu time    1.3849: real time    1.3857
       DOS:  cpu time    0.0011: real time    0.0011
    CHARGE:  cpu time    0.0447: real time    0.0447
[...]
     12      -4.4587      2.00000
     13      -3.4825      2.00000
     14      -3.4645      2.00000
     15      -2.6670      2.00000
     16      -2.3519      2.00000
     17      -2.1205      2.00000
     18      -1.9498      2.00000
     19       0.0729      0.00000
     20       0.1202      0.00000
     21       0.1761      0.00000
     22       0.2950      0.00000
     23       1.6800      0.00000
     24       1.6961      0.00000

 k-point    96 :       0.4737    0.4545    0.0000
  band No.  band energies     occupation 
      1     -13.7218      2.00000
      2     -13.7074      2.00000
      3     -12.2739      2.00000
      4     -12.2318      2.00000
      5      -7.4519      2.00000
      6      -7.4156      2.00000
      7      -6.2667      2.00000
      8      -6.2520      2.00000
      9      -5.2421      2.00000
     10      -5.2416      2.00000
     11      -4.5072      2.00000
     12      -4.4892      2.00000
     13      -3.4852      2.00000
     14      -3.4810      2.00000
     15      -2.4156      2.00000
     16      -2.2609      2.00000
     17      -2.0904      2.00000
     18      -1.9848      2.00000
     19       0.0959      0.00000
     20       0.1140      0.00000
     21       0.2477      0.00000
     22       0.2995      0.00000
     23       1.6669      0.00000
     24       1.6726      0.00000

 k-point    97 :      -0.4737    0.4545    0.0000
  band No.  band energies     occupation 
      1     -13.7218      2.00000
      2     -13.7074      2.00000
      3     -12.2739      2.00000
      4     -12.2318      2.00000
      5      -7.4519      2.00000
      6      -7.4156      2.00000
      7      -6.2667      2.00000
      8      -6.2520      2.00000
      9      -5.2421      2.00000
     10      -5.2416      2.00000
     11      -4.5072      2.00000
     12      -4.4892      2.00000
     13      -3.4852      2.00000
     14      -3.4810      2.00000
     15      -2.4156      2.00000
     16      -2.2609      2.00000
     17      -2.0904      2.00000
     18      -1.9848      2.00000
     19       0.0959      0.00000
     20       0.1140      0.00000
     21       0.2477      0.00000
     22       0.2995      0.00000
     23       1.6669      0.00000
     24       1.6726      0.00000

 k-point    98 :      -0.4211    0.4545    0.0000
  band No.  band energies     occupation 
      1     -13.7699      2.00000
      2     -13.7269      2.00000
      3     -12.4142      2.00000
      4     -12.2971      2.00000
      5      -7.2991      2.00000
      6      -7.2015      2.00000
      7      -6.2189      2.00000
      8      -6.1732      2.00000
      9      -5.2371      2.00000
     10      -5.2343      2.00000
     11      -4.5180      2.00000
     12      -4.4587      2.00000
     13      -3.4825      2.00000
     14      -3.4645      2.00000
     15      -2.6670      2.00000
     16      -2.3519      2.00000
     17      -2.1205      2.00000
     18      -1.9498      2.00000
     19       0.0729      0.00000
     20       0.1202      0.00000
     21       0.1761      0.00000
     22       0.2950      0.00000
     23       1.6800      0.00000
     24       1.6961      0.00000

 k-point    99 :      -0.3684    0.4545    0.0000
  band No.  band energies     occupation 
      1     -13.8484      2.00000
      2     -13.7772      2.00000
      3     -12.6169      2.00000
      4     -12.4449      2.00000
      5      -7.0009      2.00000
      6      -6.8708      2.00000
      7      -6.1049      2.00000
      8      -6.0212      2.00000
      9      -5.2377      2.00000
     10      -5.2221      2.00000
     11      -4.5432      2.00000
     12      -4.4359      2.00000
     13      -3.4477      2.00000
     14      -3.4100      2.00000
     15      -2.9538      2.00000
     16      -2.5864      2.00000
     17      -2.1116      2.00000
     18      -1.9764      2.00000
     19       0.0085      0.00000
     20       0.0133      0.00000
     21       0.2140      0.00000
     22       0.2761      0.00000
     23       1.5759      0.00000
     24       1.6155      0.00000

 k-point   100 :      -0.3158    0.4545    0.0000
  band No.  band energies     occupation 
      1     -13.9510      2.00000
      2     -13.8523      2.00000
      3     -12.8409      2.00000
      4     -12.6351      2.00000
      5      -6.6471      2.00000
      6      -6.5232      2.00000
      7      -5.9130      2.00000
      8      -5.7835      2.00000
      9      -5.2427      2.00000
     10      -5.2188      2.00000
     11      -4.5845      2.00000
     12      -4.4390      2.00000
     13      -3.3543      2.00000
     14      -3.3362      2.00000
     15      -3.1881      2.00000
     16      -2.8248      2.00000
     17      -2.1061      2.00000
     18      -2.0207      2.00000
     19      -0.1152      0.00000
     20      -0.1150      0.00000
     21       0.2800      0.00000
     22       0.2889      0.00000
     23       1.3635      0.00000
     24       1.4329      0.00000

 k-point   101 :      -0.2632    0.4545    0.0000
  band No.  band energies     occupation 
      1     -14.0687      2.00000
      2     -13.9435      2.00000
      3     -13.0548      2.00000
      4     -12.8316      2.00000
      5      -6.3506      2.00000
      6      -6.2591      2.00000
      7      -5.6474      2.00000
      8      -5.5417      2.00000
      9      -5.2318      2.00000
     10      -5.1607      2.00000
     11      -4.6030      2.00000
     12      -4.4522      2.00000
     13      -3.4464      2.00000
     14      -3.2220      2.00000
     15      -3.1386      2.00000
     16      -3.0181      2.00000
     17      -2.0664      2.00000
     18      -2.0391      2.00000
     19      -0.2444      0.00000
     20      -0.2189      0.00000
     21       0.3143      0.00000
     22       0.3440      0.00000
     23       1.1579      0.00000
     24       1.2000      0.00000

 k-point   102 :      -0.2105    0.4545    0.0000
  band No.  band energies     occupation 
      1     -14.1902      2.00000
      2     -14.0404      2.00000
      3     -13.2392      2.00000
      4     -13.0096      2.00000
      5      -6.1738      2.00000
      6      -6.1244      2.00000
      7      -5.4729      2.00000
      8      -5.4648      2.00000
      9      -5.1595      2.00000
     10      -4.8531      2.00000
     11      -4.5728      2.00000
     12      -4.4438      2.00000
     13      -3.4811      2.00000
     14      -3.1728      2.00000
     15      -3.0599      2.00000
     16      -3.0566      2.00000
     17      -2.0130      2.00000
     18      -1.9839      2.00000
     19      -0.3219      0.00000
     20      -0.2596      0.00000
     21       0.3366      0.00000
     22       0.4045      0.00000
     23       0.9944      0.00000
     24       1.0096      0.00000

 k-point   103 :      -0.1579    0.4545    0.0000
  band No.  band energies     occupation 
      1     -14.3023      2.00000
      2     -14.1317      2.00000
      3     -13.3850      2.00000
      4     -13.1549      2.00000
      5      -6.1212      2.00000
      6      -6.1152      2.00000
      7      -5.4639      2.00000
      8      -5.4219      2.00000
      9      -4.9580      2.00000
     10      -4.5516      2.00000
     11      -4.5161      2.00000
     12      -4.3914      2.00000
     13      -3.3283      2.00000
     14      -3.1969      2.00000
     15      -3.0519      2.00000
     16      -2.9672      2.00000
     17      -1.9785      2.00000
     18      -1.9035      2.00000
     19      -0.3115      0.00000
     20      -0.2131      0.00000
     21       0.3642      0.00000
     22       0.4794      0.00000
     23       0.8776      0.00000
     24       0.9621      0.00000

 k-point   104 :      -0.1053    0.4545    0.0000
  band No.  band energies     occupation 
      1     -14.3925      2.00000
      2     -14.2062      2.00000
      3     -13.4893      2.00000
      4     -13.2609      2.00000
      5      -6.1856      2.00000
      6      -6.1379      2.00000
      7      -5.4730      2.00000
      8      -5.3571      2.00000
      9      -4.8377      2.00000
     10      -4.4091      2.00000
     11      -4.4046      2.00000
     12      -4.2673      2.00000
     13      -3.1786      2.00000
     14      -3.1644      2.00000
     15      -3.0117      2.00000
     16      -2.8667      2.00000
     17      -2.0035      2.00000
     18      -1.8875      2.00000
     19      -0.2314      0.00000
     20      -0.1118      0.00000
     21       0.4206      0.00000
     22       0.5862      0.00000
     23       0.8906      0.00000
     24       1.0315      0.00000

 k-point   105 :      -0.0526    0.4545    0.0000
  band No.  band energies     occupation 
      1     -14.4509      2.00000
      2     -14.2549      2.00000
      3     -13.5516      2.00000
      4     -13.3250      2.00000
      5      -6.2469      2.00000
      6      -6.1801      2.00000
      7      -5.4722      2.00000
      8      -5.3129      2.00000
      9      -4.8125      2.00000
     10      -4.3643      2.00000
     11      -4.2456      2.00000
     12      -4.1442      2.00000
     13      -3.2611      2.00000
     14      -3.1822      2.00000
     15      -2.7480      2.00000
     16      -2.7435      2.00000
     17      -2.1049      2.00000
     18      -1.9342      2.00000
     19      -0.1567      0.00000
     20      -0.0343      0.00000
     21       0.5039      0.00000
     22       0.7014      0.00000
     23       0.9916      0.00000
     24       1.1574      0.00000


--------------------------------------------------------------------------------------------------------


 soft charge-density along one line, spin component           1
         0         1         2         3         4         5         6         7         8         9
 total charge-density along one line
 
 pseudopotential strength for first ion, spin component:           1
 -9.500   0.000  -0.000  -0.002  -0.000  -9.690   0.000  -0.000
  0.000  -9.508  -0.000  -0.000  -0.002   0.000  -9.698  -0.000
 -0.000  -0.000  -9.497   0.000   0.000  -0.000  -0.000  -9.687
 -0.002  -0.000   0.000  -9.508   0.000  -0.002  -0.000   0.000
 -0.000  -0.002   0.000   0.000  -9.500  -0.000  -0.002   0.000
 -9.690   0.000  -0.000  -0.002  -0.000  -9.871   0.000  -0.000
  0.000  -9.698  -0.000  -0.000  -0.002   0.000  -9.879  -0.000
 -0.000  -0.000  -9.687   0.000   0.000  -0.000  -0.000  -9.868
 -0.002  -0.000   0.000  -9.699   0.000  -0.002  -0.000   0.000
 -0.000  -0.002   0.000   0.000  -9.690  -0.000  -0.002   0.000
  0.000  -0.000   0.001  -0.000   0.000   0.000  -0.000   0.001
  0.000  -0.000   0.001  -0.000   0.000   0.000  -0.000   0.001
 -0.000  -0.029   0.000   0.000   0.007  -0.000  -0.029   0.000
  0.000  -0.000  -0.030  -0.000  -0.000   0.000  -0.000  -0.030
  0.007   0.000   0.000  -0.029  -0.000   0.007   0.000   0.000
 -0.000  -0.035   0.000   0.000   0.008  -0.000  -0.036   0.000
  0.000  -0.000  -0.037  -0.000  -0.000   0.000  -0.000  -0.038
  0.008   0.000   0.000  -0.035  -0.000   0.008   0.000   0.000
 total augmentation occupancy for first ion, spin component:           1
  2.101   0.000  -0.000   0.433  -0.000  -2.482   0.000  -0.000  -0.616  -0.000  -0.000   0.000   0.000  -0.000  -0.322  -0.000
  0.000   3.187   0.000   0.000   0.434   0.000  -4.148  -0.000  -0.000  -0.617   0.001  -0.000  -0.148   0.001  -0.000   0.029
 -0.000   0.000   1.544   0.000   0.000   0.000  -0.000  -1.738  -0.000  -0.000  -0.103   0.017   0.000   0.166   0.000  -0.000
  0.433   0.000   0.000   3.186   0.000  -0.616  -0.000   0.000  -4.148  -0.000  -0.000   0.000  -0.000  -0.000  -0.148   0.000
 -0.000   0.434   0.000   0.000   2.104  -0.000  -0.617  -0.000  -0.000  -2.484   0.000  -0.000  -0.323   0.000  -0.000   0.048
 -2.482   0.000   0.000  -0.616  -0.000   3.776  -0.000   0.000   0.766   0.000   0.000  -0.000   0.000   0.000   0.391  -0.000
  0.000  -4.148  -0.000  -0.000  -0.617  -0.000   5.970   0.000   0.000   0.768  -0.001   0.000   0.167  -0.001   0.000  -0.039
 -0.000  -0.000  -1.738   0.000  -0.000   0.000   0.000   2.867   0.000   0.001   0.231  -0.019  -0.000  -0.138   0.000   0.000
 -0.616  -0.000  -0.000  -4.148  -0.000   0.766   0.000   0.000   5.970   0.000   0.000  -0.000   0.000   0.000   0.167  -0.000
 -0.000  -0.617  -0.000  -0.000  -2.484   0.000   0.768   0.001   0.000   3.778  -0.001   0.000   0.392   0.000  -0.000  -0.054
 -0.000   0.001  -0.103  -0.000   0.000   0.000  -0.001   0.231   0.000  -0.001   1.553  -0.100  -0.000   0.045   0.000   0.000
  0.000  -0.000   0.017   0.000  -0.000  -0.000   0.000  -0.019  -0.000   0.000  -0.100   0.008   0.000  -0.001  -0.000  -0.000
  0.000  -0.148   0.000  -0.000  -0.323   0.000   0.167  -0.000   0.000   0.392  -0.000   0.000   0.289  -0.000   0.000  -0.036
 -0.000   0.001   0.166  -0.000   0.000   0.000  -0.001  -0.138   0.000   0.000   0.045  -0.001  -0.000   0.355   0.000   0.000
 -0.322  -0.000   0.000  -0.148  -0.000   0.391   0.000   0.000   0.167  -0.000   0.000  -0.000   0.000   0.000   0.289   0.000
 -0.000   0.029  -0.000   0.000   0.048  -0.000  -0.039   0.000  -0.000  -0.054   0.000  -0.000  -0.036   0.000   0.000   0.005
  0.000  -0.000  -0.018  -0.000  -0.000  -0.000   0.000   0.007   0.000  -0.000  -0.010   0.000   0.000  -0.043  -0.000  -0.000
  0.048  -0.000  -0.000   0.029  -0.000  -0.053  -0.000  -0.000  -0.039   0.000  -0.000   0.000  -0.000  -0.000  -0.036   0.000


------------------------ aborting loop because EDIFF is reached ----------------------------------------


    CHARGE:  cpu time    0.0429: real time    0.0430
    FORLOC:  cpu time    0.0003: real time    0.0003
    FORNL :  cpu time    0.0638: real time    0.0638
    STRESS:  cpu time    0.3249: real time    0.3249
    FORCOR:  cpu time    0.0145: real time    0.0145
    FORHAR:  cpu time    0.0025: real time    0.0025
    MIXING:  cpu time    0.0002: real time    0.0002
    OFIELD:  cpu time    0.0000: real time    0.0000

  FORCE on cell =-STRESS in cart. coord.  units (eV):
  Direction    XX          YY          ZZ          XY          YZ          ZX
  --------------------------------------------------------------------------------------
  Alpha Z    26.13041    26.13041    26.13041
  Ewald    5258.59996  5258.84210 -6333.79054     0.00000    -0.05225     0.00000
  Hartree  5466.89658  5466.98707 -5405.90975     0.00000    -0.02092     0.00000
  E(xc)    -145.41958  -145.42561  -147.21713    -0.00000    -0.00042    -0.00000
  Local  -11281.69521-11282.02491 11171.26972    -0.00000     0.07564    -0.00000
  n-local   323.90238   323.88184   338.99218     0.00000    -0.00425     0.00000
  augment   -67.62683   -67.61826   -71.25670    -0.00000     0.00145    -0.00000
  Kinetic   419.26459   419.37952   421.77324     0.00000     0.00107     0.00000
  Fock        0.00000     0.00000     0.00000     0.00000     0.00000     0.00000
  -------------------------------------------------------------------------------------
  Total       0.05229     0.15217    -0.00856     0.00000     0.00031     0.00000
  in kB       0.21131     0.61494    -0.03460     0.00000     0.00127     0.00000
  external pressure =        0.26 kB  Pullay stress =        0.00 kB


 VOLUME and BASIS-vectors are now :
 -----------------------------------------------------------------------------
  energy-cutoff  :      600.00
  volume of cell :      396.47
      direct lattice vectors                 reciprocal lattice vectors
     3.363599539  0.000000000  0.000000000     0.297300552  0.000000000  0.000000000
     0.000000000  5.820099901  0.000000000     0.000000000  0.171818357  0.000000000
     0.000000000  0.000000000 20.252588272     0.000000000  0.000000000  0.049376405

  length of vectors
     3.363599539  5.820099901 20.252588272     0.297300552  0.171818357  0.049376405


 FORCES acting on ions
    electron-ion (+dipol)            ewald-force                    non-local-force                 convergence-correction
 -----------------------------------------------------------------------------------------------
   0.348E-06 -.855E-01 -.388E+01   -.388E-06 0.847E-01 0.622E+01   -.640E-07 0.535E-04 -.234E+01   0.498E-07 0.283E-03 0.102E-03
   0.416E-08 -.852E-01 -.388E+01   0.424E-07 0.847E-01 0.622E+01   0.855E-07 0.640E-04 -.234E+01   0.317E-08 0.427E-04 0.365E-04
   -.123E-06 0.586E-01 -.467E+03   0.253E-06 -.555E-01 0.472E+03   0.354E-07 -.114E-02 -.555E+01   -.301E-07 -.154E-02 -.598E-03
   -.467E-06 0.551E-01 -.467E+03   0.352E-06 -.554E-01 0.472E+03   0.141E-06 -.130E-02 -.555E+01   0.405E-07 0.203E-02 0.413E-03
   0.512E-06 0.306E-01 0.474E+03   -.519E-06 -.291E-01 -.478E+03   -.150E-06 -.105E-03 0.458E+01   -.103E-07 -.124E-02 0.708E-03
   -.415E-06 0.283E-01 0.474E+03   0.260E-06 -.293E-01 -.478E+03   0.142E-06 -.204E-03 0.458E+01   0.550E-08 0.124E-02 -.118E-03
 -----------------------------------------------------------------------------------------------
   -.141E-06 0.190E-02 0.662E+01   -.544E-14 0.173E-16 -.114E-12   0.190E-06 -.263E-02 -.662E+01   0.585E-07 0.817E-03 0.544E-03
 
 
 POSITION                                       TOTAL-FORCE (eV/Angst)
 -----------------------------------------------------------------------------------
      1.68180      0.97030     10.26897        -0.000000     -0.000458     -0.000843
     -0.00000      3.88035     10.26897         0.000000     -0.000480     -0.000648
      1.68180      4.84992     11.74250         0.000000      0.000446      0.000530
     -0.00000      1.93987     11.74250         0.000000      0.000360      0.000471
      1.68180      4.84996      8.36741        -0.000000      0.000156      0.000198
     -0.00000      1.93991      8.36741        -0.000000     -0.000023      0.000293
 -----------------------------------------------------------------------------------
    total drift:                                0.000000      0.000081     -0.000439


--------------------------------------------------------------------------------------------------------



  FREE ENERGIE OF THE ION-ELECTRON SYSTEM (eV)
  ---------------------------------------------------
  free  energy   TOTEN  =       -39.42235899 eV

  energy  without entropy=      -39.42235899  energy(sigma->0) =      -39.42235899
 
 d Force = 0.8028488E-07[ 0.115E-08, 0.159E-06]  d Energy =-0.3882633E-08 0.842E-07
 d Force =-0.3284584E-01[-0.328E-01,-0.328E-01]  d Ewald  =-0.3284584E-01 0.937E-10


--------------------------------------------------------------------------------------------------------


    POTLOK:  cpu time    0.0143: real time    0.0143


--------------------------------------------------------------------------------------------------------




--------------------------------------------------------------------------------------------------------


  
 reached required accuracy - stopping structural energy minimisation
     LOOP+:  cpu time    2.9210: real time    2.9516
    4ORBIT:  cpu time    0.0000: real time    0.0000

 total amount of memory used by VASP MPI-rank0    62433. kBytes
=======================================================================

   base      :      30000. kBytes
   nonl-proj :      25455. kBytes
   fftplans  :       1397. kBytes
   grid      :       2623. kBytes
   one-center:         15. kBytes
   wavefun   :       2943. kBytes
 
  
  
 General timing and accounting informations for this job:
 ========================================================
  
                  Total CPU time used (sec):       65.507
                            User time (sec):       62.465
                          System time (sec):        3.042
                         Elapsed time (sec):       66.049
  
                   Maximum memory used (kb):      173420.
                   Average memory used (kb):           0.
  
                          Minor page faults:        25002
                          Major page faults:          897
                 Voluntary context switches:         1581
