 running on  192 total cores
 distrk:  each k-point on  192 cores,    1 groups
 distr:  one band on   24 cores,    8 groups
 using from now: INCAR     
 vasp.5.4.4.18Apr17-6-g9f103f2a35 (build Oct 01 2024 10:11:53) complex          
  
 POSCAR found type information on POSCAR  S  Se Sn Pb
 POSCAR found :  4 types and      20 ions
 scaLAPACK will be used

 ----------------------------------------------------------------------------- 
|                                                                             |
|  ADVICE TO THIS USER RUNNING 'VASP/VAMP'   (HEAR YOUR MASTER'S VOICE ...):  |
|                                                                             |
|      You have a (more or less) 'large supercell' and for larger cells       |
|      it might be more efficient to use real space projection opertators     |
|      So try LREAL= Auto  in the INCAR   file.                               |
|      Mind:          For very  accurate calculation you might also keep the  |
|      reciprocal projection scheme          (i.e. LREAL=.FALSE.)             |
|                                                                             |
 ----------------------------------------------------------------------------- 

 WARNING: PSMAXN for non-local potential too small
 WARNING: PSMAXN for non-local potential too small
 LDA part: xc-table for Pade appr. of Perdew
 WARNING: stress and forces are not correct
 POSCAR, INCAR and KPOINTS ok, starting setup
 FFT: planning ...
 WAVECAR not read
 charge-density read from file: SnSe                                    
 WARNING: random wavefunctions but no delay for mixing, default for NELMDL
 entering main loop
       N       E                     dE             d eps       ncg     rms          rms(c)
DAV:   1     0.697761117153E+03    0.69776E+03   -0.34979E+04  5120   0.131E+03
DAV:   2     0.388310309247E+02   -0.65893E+03   -0.63198E+03  7320   0.191E+02
DAV:   3    -0.769006459833E+02   -0.11573E+03   -0.11316E+03  6104   0.851E+01
DAV:   4    -0.846237395099E+02   -0.77231E+01   -0.76693E+01  7296   0.231E+01
DAV:   5    -0.848090864815E+02   -0.18535E+00   -0.18494E+00  6656   0.383E+00
DAV:   6    -0.848161669286E+02   -0.70804E-02   -0.70757E-02  7560   0.724E-01
DAV:   7    -0.848163854852E+02   -0.21856E-03   -0.21850E-03  6688   0.122E-01
DAV:   8    -0.848163964704E+02   -0.10985E-04   -0.10984E-04  6888   0.255E-02
DAV:   9    -0.848163970386E+02   -0.56822E-06   -0.56809E-06  5304   0.558E-03
   1 F= -.88212308E+02 E0= -.88212308E+02  d E =0.000000E+00
