 vasp.5.4.4.18Apr17-6-g9f103f2a35 (build Oct 01 2024 10:11:53) complex          
  
 executed on              Shaheen date 2025.02.19  15:18:41
 running on  192 total cores
 distrk:  each k-point on  192 cores,    1 groups
 distr:  one band on NCORES_PER_BAND=  24 cores,    8 groups


--------------------------------------------------------------------------------------------------------


 INCAR:
 POTCAR:    PAW_PBE Mo 08Apr2002                  
 POTCAR:    PAW_PBE S 06Sep2000                   
 POTCAR:    PAW_PBE Te 08Apr2002                  
 POTCAR:    PAW_PBE Mo 08Apr2002                  
   VRHFIN =Mo: 4p5s4d                                                           
   LEXCH  = PE                                                                  
   EATOM  =   217.5176 eV,   15.9871 Ry                                         
                                                                                
   TITEL  = PAW_PBE Mo 08Apr2002                                                
   LULTRA =        F    use ultrasoft PP ?                                      
   IUNSCR =        1    unscreen: 0-lin 1-nonlin 2-no                           
   RPACOR =    2.200    partial core radius                                     
   POMASS =   95.940; ZVAL   =    6.000    mass and valenz                      
   RCORE  =    2.750    outmost cutoff radius                                   
   RWIGS  =    2.750; RWIGS  =    1.455    wigner-seitz radius (au A)           
   ENMAX  =  224.584; ENMIN  =  168.438 eV                                      
   RCLOC  =    2.111    cutoff for local pot                                    
   LCOR   =        T    correct aug charges                                     
   LPAW   =        T    paw PP                                                  
   EAUG   =  345.278                                                            
   DEXC   =    0.000                                                            
   RMAX   =    2.821    core radius for proj-oper                               
   RAUG   =    1.300    factor for augmentation sphere                          
   RDEP   =    2.815    radius for radial grids                                 
   RDEPT  =    2.211    core radius for aug-charge                              
                                                                                
   Atomic configuration                                                         
   12 entries                                                                   
     n  l   j            E        occ.                                          
     1  0  0.50    -19819.0341   2.0000                                         
     2  0  0.50     -2799.0127   2.0000                                         
     2  1  1.50     -2502.0276   6.0000                                         
     3  0  0.50      -476.4448   2.0000                                         
     3  1  1.50      -379.1496   6.0000                                         
     3  2  2.50      -220.9367  10.0000                                         
     4  0  0.50       -64.3378   2.0000                                         
     4  1  1.50       -38.4773   6.0000                                         
     4  2  2.50        -3.7535   5.0000                                         
     5  0  0.50        -4.0862   1.0000                                         
     5  1  0.50        -2.7701   0.0000                                         
     4  3  2.50        -1.3606   0.0000                                         
   Description                                                                  
     l       E           TYP  RCUT    TYP  RCUT                                 
     2     -3.7534765     23  2.500                                             
     2     -5.1140591     23  2.500                                             
     0     -4.0861560     23  2.600                                             
     0     13.6058260     23  2.600                                             
     1      5.4423304     23  2.750                                             
     1     27.2116520     23  2.750                                             
  local pseudopotential read in
  partial core-charges read in
  partial kinetic energy density read in
  atomic valenz-charges read in
  non local Contribution for L=           2  read in
    real space projection operators read in
  non local Contribution for L=           2  read in
    real space projection operators read in
  non local Contribution for L=           0  read in
    real space projection operators read in
  non local Contribution for L=           0  read in
    real space projection operators read in
  non local Contribution for L=           1  read in
    real space projection operators read in
  non local Contribution for L=           1  read in
    real space projection operators read in
    PAW grid and wavefunctions read in
 
   number of l-projection  operators is LMAX  =           6
   number of lm-projection operators is LMMAX =          18
 
 POTCAR:    PAW_PBE S 06Sep2000                   
   VRHFIN =S : s2p4                                                             
   LEXCH  = PE                                                                  
   EATOM  =   276.8230 eV,   20.3459 Ry                                         
                                                                                
   TITEL  = PAW_PBE S 06Sep2000                                                 
   LULTRA =        F    use ultrasoft PP ?                                      
   IUNSCR =        1    unscreen: 0-lin 1-nonlin 2-no                           
   RPACOR =    1.500    partial core radius                                     
   POMASS =   32.066; ZVAL   =    6.000    mass and valenz                      
   RCORE  =    1.900    outmost cutoff radius                                   
   RWIGS  =    2.200; RWIGS  =    1.164    wigner-seitz radius (au A)           
   ENMAX  =  258.689; ENMIN  =  194.016 eV                                      
   ICORE  =        2    local potential                                         
   LCOR   =        T    correct aug charges                                     
   LPAW   =        T    paw PP                                                  
   EAUG   =  335.092                                                            
   DEXC   =    0.000                                                            
   RMAX   =    1.942    core radius for proj-oper                               
   RAUG   =    1.300    factor for augmentation sphere                          
   RDEP   =    1.954    radius for radial grids                                 
   RDEPT  =    1.744    core radius for aug-charge                              
                                                                                
   Atomic configuration                                                         
    6 entries                                                                   
     n  l   j            E        occ.                                          
     1  0  0.50     -2405.8406   2.0000                                         
     2  0  0.50      -211.7007   2.0000                                         
     2  1  1.50      -156.4958   6.0000                                         
     3  0  0.50       -17.2562   2.0000                                         
     3  1  0.50        -7.0085   4.0000                                         
     3  2  1.50        -6.8029   0.0000                                         
   Description                                                                  
     l       E           TYP  RCUT    TYP  RCUT                                 
     0    -17.2561641     23  1.900                                             
     0    -15.8743224     23  1.900                                             
     1     -7.0085400     23  1.900                                             
     1     -2.7779785     23  1.900                                             
     2     -6.8029130     23  1.900                                             
  local pseudopotential read in
  partial core-charges read in
  partial kinetic energy density read in
  atomic valenz-charges read in
  non local Contribution for L=           0  read in
    real space projection operators read in
  non local Contribution for L=           0  read in
    real space projection operators read in
  non local Contribution for L=           1  read in
    real space projection operators read in
  non local Contribution for L=           1  read in
    real space projection operators read in
    PAW grid and wavefunctions read in
 
   number of l-projection  operators is LMAX  =           4
   number of lm-projection operators is LMMAX =           8
 
 POTCAR:    PAW_PBE Te 08Apr2002                  
   VRHFIN =Te: s2p4                                                             
   LEXCH  = PE                                                                  
   EATOM  =   223.2721 eV,   16.4100 Ry                                         
                                                                                
   TITEL  = PAW_PBE Te 08Apr2002                                                
   LULTRA =        F    use ultrasoft PP ?                                      
   IUNSCR =        1    unscreen: 0-lin 1-nonlin 2-no                           
   RPACOR =    2.200    partial core radius                                     
   POMASS =  127.600; ZVAL   =    6.000    mass and valenz                      
   RCORE  =    2.300    outmost cutoff radius                                   
   RWIGS  =    2.900; RWIGS  =    1.535    wigner-seitz radius (au A)           
   ENMAX  =  174.982; ENMIN  =  131.236 eV                                      
   ICORE  =        3    local potential                                         
   LCOR   =        T    correct aug charges                                     
   LPAW   =        T    paw PP                                                  
   EAUG   =  368.792                                                            
   DEXC   =    0.000                                                            
   RMAX   =    2.345    core radius for proj-oper                               
   RAUG   =    1.300    factor for augmentation sphere                          
   RDEP   =    2.397    radius for radial grids                                 
   RDEPT  =    2.174    core radius for aug-charge                              
                                                                                
   Atomic configuration                                                         
   13 entries                                                                   
     n  l   j            E        occ.                                          
     1  0  0.50    -31621.2075   2.0000                                         
     2  0  0.50     -4848.7941   2.0000                                         
     2  1  1.50     -4352.1960   6.0000                                         
     3  0  0.50      -964.9612   2.0000                                         
     3  1  1.50      -803.6179   6.0000                                         
     3  2  2.50      -559.8710  10.0000                                         
     4  0  0.50      -164.3522   2.0000                                         
     4  1  1.50      -114.3756   6.0000                                         
     4  2  2.50       -41.6483  10.0000                                         
     5  0  0.50       -15.1072   2.0000                                         
     5  1  0.50        -5.9526   4.0000                                         
     5  2  1.50        -5.4423   0.0000                                         
     4  3  2.50        -5.4423   0.0000                                         
   Description                                                                  
     l       E           TYP  RCUT    TYP  RCUT                                 
     0    -15.1072389     23  2.300                                             
     0    -16.4678215     23  2.300                                             
     1     -5.9526306     23  2.300                                             
     1     -2.4873968     23  2.300                                             
     2     -5.4423304     23  2.300                                             
     3     -1.3605826     23  2.300                                             
  local pseudopotential read in
  partial core-charges read in
  partial kinetic energy density read in
  atomic valenz-charges read in
  non local Contribution for L=           0  read in
    real space projection operators read in
  non local Contribution for L=           0  read in
    real space projection operators read in
  non local Contribution for L=           1  read in
    real space projection operators read in
  non local Contribution for L=           1  read in
    real space projection operators read in
  non local Contribution for L=           2  read in
    real space projection operators read in
    PAW grid and wavefunctions read in
 
   number of l-projection  operators is LMAX  =           5
   number of lm-projection operators is LMMAX =          13
 
  PAW_PBE Mo 08Apr2002                  :
 energy of atom  1       EATOM= -217.5176
 kinetic energy error for atom=    0.0005 (will be added to EATOM!!)
  PAW_PBE S 06Sep2000                   :
 energy of atom  2       EATOM= -276.8230
 kinetic energy error for atom=    0.0009 (will be added to EATOM!!)
  PAW_PBE Te 08Apr2002                  :
 energy of atom  3       EATOM= -223.2721
 kinetic energy error for atom=    0.0004 (will be added to EATOM!!)
 
 
 POSCAR: Generated by VASPKIT code               
  positions in direct lattice
  velocities in cartesian coordinates
 exchange correlation table for  LEXCH =        8
   RHO(1)=    0.500       N(1)  =     2000
   RHO(2)=  100.500       N(2)  =     4000
 


--------------------------------------------------------------------------------------------------------


 ion  position               nearest neighbor table
   1  0.500  0.167  0.507-   3 2.43   4 2.44   4 2.44   5 2.71   6 2.72   6 2.72   2 3.36   2 3.36
                             2 3.36   2 3.36
   2  0.000  0.667  0.507-   4 2.43   3 2.44   3 2.44   6 2.71   5 2.72   5 2.72   1 3.36   1 3.36
                             1 3.36   1 3.36
   3  0.500  0.833  0.580-   1 2.43   2 2.44   2 2.44
   4  0.000  0.333  0.580-   2 2.43   1 2.44   1 2.44
   5  0.500  0.833  0.413-   1 2.71   2 2.72   2 2.72   6 3.36   6 3.36   6 3.36   6 3.36
   6  0.000  0.333  0.413-   2 2.71   1 2.72   1 2.72   5 3.36   5 3.36   5 3.36   5 3.36
 

IMPORTANT INFORMATION: All symmetrisations will be switched off!
NOSYMM: (Re-)initialisation of all symmetry stuff for point group C_1.

 
 
 KPOINTS: K-Spacing Value to Generate K-Mesh: 0.01

Automatic generation of k-mesh.
Space group operators:
 irot       det(A)        alpha          n_x          n_y          n_z        tau_x        tau_y        tau_z
    1     1.000000     0.000000     1.000000     0.000000     0.000000     0.000000     0.000000     0.000000
 
 Subroutine IBZKPT returns following result:
 ===========================================
 
 Found    105 irreducible k-points:
 
 Following reciprocal coordinates:
            Coordinates               Weight
  0.000000  0.000000  0.000000      1.000000
  0.052632  0.000000  0.000000      2.000000
  0.105263  0.000000  0.000000      2.000000
  0.157895  0.000000  0.000000      2.000000
  0.210526  0.000000  0.000000      2.000000
  0.263158  0.000000  0.000000      2.000000
  0.315789  0.000000  0.000000      2.000000
  0.368421  0.000000  0.000000      2.000000
  0.421053  0.000000  0.000000      2.000000
  0.473684  0.000000  0.000000      2.000000
  0.000000  0.090909  0.000000      2.000000
  0.052632  0.090909  0.000000      2.000000
  0.105263  0.090909  0.000000      2.000000
  0.157895  0.090909  0.000000      2.000000
  0.210526  0.090909  0.000000      2.000000
  0.263158  0.090909  0.000000      2.000000
  0.315789  0.090909  0.000000      2.000000
  0.368421  0.090909  0.000000      2.000000
  0.421053  0.090909  0.000000      2.000000
  0.473684  0.090909  0.000000      2.000000
 -0.473684  0.090909  0.000000      2.000000
 -0.421053  0.090909  0.000000      2.000000
 -0.368421  0.090909  0.000000      2.000000
 -0.315789  0.090909  0.000000      2.000000
 -0.263158  0.090909  0.000000      2.000000
 -0.210526  0.090909  0.000000      2.000000
 -0.157895  0.090909  0.000000      2.000000
 -0.105263  0.090909  0.000000      2.000000
 -0.052632  0.090909  0.000000      2.000000
  0.000000  0.181818  0.000000      2.000000
  0.052632  0.181818  0.000000      2.000000
  0.105263  0.181818  0.000000      2.000000
  0.157895  0.181818  0.000000      2.000000
  0.210526  0.181818  0.000000      2.000000
  0.263158  0.181818  0.000000      2.000000
  0.315789  0.181818  0.000000      2.000000
  0.368421  0.181818  0.000000      2.000000
  0.421053  0.181818  0.000000      2.000000
  0.473684  0.181818  0.000000      2.000000
 -0.473684  0.181818  0.000000      2.000000
 -0.421053  0.181818  0.000000      2.000000
 -0.368421  0.181818  0.000000      2.000000
 -0.315789  0.181818  0.000000      2.000000
 -0.263158  0.181818  0.000000      2.000000
 -0.210526  0.181818  0.000000      2.000000
 -0.157895  0.181818  0.000000      2.000000
 -0.105263  0.181818  0.000000      2.000000
 -0.052632  0.181818  0.000000      2.000000
  0.000000  0.272727  0.000000      2.000000
  0.052632  0.272727  0.000000      2.000000
  0.105263  0.272727  0.000000      2.000000
  0.157895  0.272727  0.000000      2.000000
  0.210526  0.272727  0.000000      2.000000
  0.263158  0.272727  0.000000      2.000000
  0.315789  0.272727  0.000000      2.000000
  0.368421  0.272727  0.000000      2.000000
  0.421053  0.272727  0.000000      2.000000
  0.473684  0.272727  0.000000      2.000000
 -0.473684  0.272727  0.000000      2.000000
 -0.421053  0.272727  0.000000      2.000000
 -0.368421  0.272727  0.000000      2.000000
 -0.315789  0.272727  0.000000      2.000000
 -0.263158  0.272727  0.000000      2.000000
 -0.210526  0.272727  0.000000      2.000000
 -0.157895  0.272727  0.000000      2.000000
 -0.105263  0.272727  0.000000      2.000000
 -0.052632  0.272727  0.000000      2.000000
  0.000000  0.363636  0.000000      2.000000
  0.052632  0.363636  0.000000      2.000000
  0.105263  0.363636  0.000000      2.000000
  0.157895  0.363636  0.000000      2.000000
  0.210526  0.363636  0.000000      2.000000
  0.263158  0.363636  0.000000      2.000000
  0.315789  0.363636  0.000000      2.000000
  0.368421  0.363636  0.000000      2.000000
  0.421053  0.363636  0.000000      2.000000
  0.473684  0.363636  0.000000      2.000000
 -0.473684  0.363636  0.000000      2.000000
 -0.421053  0.363636  0.000000      2.000000
 -0.368421  0.363636  0.000000      2.000000
 -0.315789  0.363636  0.000000      2.000000
 -0.263158  0.363636  0.000000      2.000000
 -0.210526  0.363636  0.000000      2.000000
 -0.157895  0.363636  0.000000      2.000000
 -0.105263  0.363636  0.000000      2.000000
 -0.052632  0.363636  0.000000      2.000000
  0.000000  0.454545  0.000000      2.000000
  0.052632  0.454545  0.000000      2.000000
  0.105263  0.454545  0.000000      2.000000
  0.157895  0.454545  0.000000      2.000000
  0.210526  0.454545  0.000000      2.000000
  0.263158  0.454545  0.000000      2.000000
  0.315789  0.454545  0.000000      2.000000
  0.368421  0.454545  0.000000      2.000000
  0.421053  0.454545  0.000000      2.000000
  0.473684  0.454545  0.000000      2.000000
 -0.473684  0.454545  0.000000      2.000000
 -0.421053  0.454545  0.000000      2.000000
 -0.368421  0.454545  0.000000      2.000000
 -0.315789  0.454545  0.000000      2.000000
 -0.263158  0.454545  0.000000      2.000000
 -0.210526  0.454545  0.000000      2.000000
 -0.157895  0.454545  0.000000      2.000000
 -0.105263  0.454545  0.000000      2.000000
 -0.052632  0.454545  0.000000      2.000000
 
 Following cartesian coordinates:
            Coordinates               Weight
  0.000000  0.000000  0.000000      1.000000
  0.015647  0.000000  0.000000      2.000000
  0.031295  0.000000  0.000000      2.000000
  0.046942  0.000000  0.000000      2.000000
  0.062590  0.000000  0.000000      2.000000
  0.078237  0.000000  0.000000      2.000000
  0.093884  0.000000  0.000000      2.000000
  0.109532  0.000000  0.000000      2.000000
  0.125179  0.000000  0.000000      2.000000
  0.140827  0.000000  0.000000      2.000000
  0.000000  0.015651  0.000000      2.000000
  0.015647  0.015651  0.000000      2.000000
  0.031295  0.015651  0.000000      2.000000
  0.046942  0.015651  0.000000      2.000000
  0.062590  0.015651  0.000000      2.000000
  0.078237  0.015651  0.000000      2.000000
  0.093884  0.015651  0.000000      2.000000
  0.109532  0.015651  0.000000      2.000000
  0.125179  0.015651  0.000000      2.000000
  0.140827  0.015651  0.000000      2.000000
 -0.140827  0.015651  0.000000      2.000000
 -0.125179  0.015651  0.000000      2.000000
 -0.109532  0.015651  0.000000      2.000000
 -0.093884  0.015651  0.000000      2.000000
 -0.078237  0.015651  0.000000      2.000000
 -0.062590  0.015651  0.000000      2.000000
 -0.046942  0.015651  0.000000      2.000000
 -0.031295  0.015651  0.000000      2.000000
 -0.015647  0.015651  0.000000      2.000000
  0.000000  0.031302  0.000000      2.000000
  0.015647  0.031302  0.000000      2.000000
  0.031295  0.031302  0.000000      2.000000
  0.046942  0.031302  0.000000      2.000000
  0.062590  0.031302  0.000000      2.000000
  0.078237  0.031302  0.000000      2.000000
  0.093884  0.031302  0.000000      2.000000
  0.109532  0.031302  0.000000      2.000000
  0.125179  0.031302  0.000000      2.000000
  0.140827  0.031302  0.000000      2.000000
 -0.140827  0.031302  0.000000      2.000000
 -0.125179  0.031302  0.000000      2.000000
 -0.109532  0.031302  0.000000      2.000000
 -0.093884  0.031302  0.000000      2.000000
 -0.078237  0.031302  0.000000      2.000000
 -0.062590  0.031302  0.000000      2.000000
 -0.046942  0.031302  0.000000      2.000000
 -0.031295  0.031302  0.000000      2.000000
 -0.015647  0.031302  0.000000      2.000000
  0.000000  0.046954  0.000000      2.000000
  0.015647  0.046954  0.000000      2.000000
  0.031295  0.046954  0.000000      2.000000
  0.046942  0.046954  0.000000      2.000000
  0.062590  0.046954  0.000000      2.000000
  0.078237  0.046954  0.000000      2.000000
  0.093884  0.046954  0.000000      2.000000
  0.109532  0.046954  0.000000      2.000000
  0.125179  0.046954  0.000000      2.000000
  0.140827  0.046954  0.000000      2.000000
 -0.140827  0.046954  0.000000      2.000000
 -0.125179  0.046954  0.000000      2.000000
 -0.109532  0.046954  0.000000      2.000000
 -0.093884  0.046954  0.000000      2.000000
 -0.078237  0.046954  0.000000      2.000000
 -0.062590  0.046954  0.000000      2.000000
 -0.046942  0.046954  0.000000      2.000000
 -0.031295  0.046954  0.000000      2.000000
 -0.015647  0.046954  0.000000      2.000000
  0.000000  0.062605  0.000000      2.000000
  0.015647  0.062605  0.000000      2.000000
  0.031295  0.062605  0.000000      2.000000
  0.046942  0.062605  0.000000      2.000000
  0.062590  0.062605  0.000000      2.000000
  0.078237  0.062605  0.000000      2.000000
  0.093884  0.062605  0.000000      2.000000
  0.109532  0.062605  0.000000      2.000000
  0.125179  0.062605  0.000000      2.000000
  0.140827  0.062605  0.000000      2.000000
 -0.140827  0.062605  0.000000      2.000000
 -0.125179  0.062605  0.000000      2.000000
 -0.109532  0.062605  0.000000      2.000000
 -0.093884  0.062605  0.000000      2.000000
 -0.078237  0.062605  0.000000      2.000000
 -0.062590  0.062605  0.000000      2.000000
 -0.046942  0.062605  0.000000      2.000000
 -0.031295  0.062605  0.000000      2.000000
 -0.015647  0.062605  0.000000      2.000000
  0.000000  0.078256  0.000000      2.000000
  0.015647  0.078256  0.000000      2.000000
  0.031295  0.078256  0.000000      2.000000
  0.046942  0.078256  0.000000      2.000000
  0.062590  0.078256  0.000000      2.000000
  0.078237  0.078256  0.000000      2.000000
  0.093884  0.078256  0.000000      2.000000
  0.109532  0.078256  0.000000      2.000000
  0.125179  0.078256  0.000000      2.000000
  0.140827  0.078256  0.000000      2.000000
 -0.140827  0.078256  0.000000      2.000000
 -0.125179  0.078256  0.000000      2.000000
 -0.109532  0.078256  0.000000      2.000000
 -0.093884  0.078256  0.000000      2.000000
 -0.078237  0.078256  0.000000      2.000000
 -0.062590  0.078256  0.000000      2.000000
 -0.046942  0.078256  0.000000      2.000000
 -0.031295  0.078256  0.000000      2.000000
 -0.015647  0.078256  0.000000      2.000000
 


--------------------------------------------------------------------------------------------------------




 Dimension of arrays:
   k-points           NKPTS =    105   k-points in BZ     NKDIM =    105   number of bands    NBANDS=     24
   number of dos      NEDOS =    301   number of ions     NIONS =      6
   non local maximal  LDIM  =      6   non local SUM 2l+1 LMDIM =     18
   total plane-waves  NPLWV = 217728
   max r-space proj   IRMAX =      1   max aug-charges    IRDMAX=  35525
   dimension x,y,z NGX =    28 NGY =   48 NGZ =  162
   dimension x,y,z NGXF=    56 NGYF=   96 NGZF=  324
   support grid    NGXF=    56 NGYF=   96 NGZF=  324
   ions per type =               2   2   2
   NGX,Y,Z   is equivalent  to a cutoff of  13.84, 13.74, 13.30 a.u.
   NGXF,Y,Z  is equivalent  to a cutoff of  27.68, 27.48, 26.60 a.u.

 SYSTEM =  unknown system                          
 POSCAR =  Generated by VASPKIT code               

 Startparameter for this run:
   NWRITE =      2    write-flag & timer
   PREC   = accura    normal or accurate (medium, high low for compatibility)
   ISTART =      0    job   : 0-new  1-cont  2-samecut
   ICHARG =      2    charge: 1-file 2-atom 10-const
   ISPIN  =      1    spin polarized calculation?
   LNONCOLLINEAR =      F non collinear calculations
   LSORBIT =      F    spin-orbit coupling
   INIWAV =      1    electr: 0-lowe 1-rand  2-diag
   LASPH  =      F    aspherical Exc in radial PAW
   METAGGA=      F    non-selfconsistent MetaGGA calc.

 Electronic Relaxation 1
   ENCUT  =  600.0 eV  44.10 Ry    6.64 a.u.   6.72 11.60 40.45*2*pi/ulx,y,z
   ENINI  =  600.0     initial cutoff
   ENAUG  =  368.8 eV  augmentation charge cutoff
   NELM   =     60;   NELMIN=  2; NELMDL= -5     # of ELM steps 
   EDIFF  = 0.1E-06   stopping-criterion for ELM
   LREAL  =      F    real-space projection
   NLSPLINE    = F    spline interpolate recip. space projectors
   LCOMPAT=      F    compatible to vasp.4.4
   GGA_COMPAT  = T    GGA compatible to vasp.4.4-vasp.4.6
   LMAXPAW     = -100 max onsite density
   LMAXMIX     =    2 max onsite mixed and CHGCAR
   VOSKOWN=      0    Vosko Wilk Nusair interpolation
   ROPT   =    0.00000   0.00000   0.00000
 Ionic relaxation
   EDIFFG = -.1E-02   stopping-criterion for IOM
   NSW    =    100    number of steps for IOM
   NBLOCK =      1;   KBLOCK =    100    inner block; outer block 
   IBRION =      2    ionic relax: 0-MD 1-quasi-New 2-CG
   NFREE  =      1    steps in history (QN), initial steepest desc. (CG)
   ISIF   =      2    stress and relaxation
   IWAVPR =     11    prediction:  0-non 1-charg 2-wave 3-comb
   ISYM   =      0    0-nonsym 1-usesym 2-fastsym
   LCORR  =      T    Harris-Foulkes like correction to forces

   POTIM  = 0.5000    time-step for ionic-motion
   TEIN   =    0.0    initial temperature
   TEBEG  =    0.0;   TEEND  =   0.0 temperature during run
   SMASS  =  -3.00    Nose mass-parameter (am)
   estimated Nose-frequenzy (Omega)   =  0.10E-29 period in steps =****** mass=  -0.259E-27a.u.
   SCALEE = 1.0000    scale energy and forces
   NPACO  =    256;   APACO  = 16.0  distance and # of slots for P.C.
   PSTRESS=    0.0 pullay stress

  Mass of Ions in am
   POMASS =  95.94 32.07127.60
  Ionic Valenz
   ZVAL   =   6.00  6.00  6.00
  Atomic Wigner-Seitz radii
   RWIGS  =  -1.00 -1.00 -1.00
  virtual crystal weights 
   VCA    =   1.00  1.00  1.00
   NELECT =      36.0000    total number of electrons
   NUPDOWN=      -1.0000    fix difference up-down

 DOS related values:
   EMIN   =  10.00;   EMAX   =-10.00  energy-range for DOS
   EFERMI =   0.00
   ISMEAR =     0;   SIGMA  =   0.10  broadening in eV -4-tet -1-fermi 0-gaus

 Electronic relaxation 2 (details)
   IALGO  =     38    algorithm
   LDIAG  =      T    sub-space diagonalisation (order eigenvalues)
   LSUBROT=      F    optimize rotation matrix (better conditioning)
   TURBO    =      0    0=normal 1=particle mesh
   IRESTART =      0    0=no restart 2=restart with 2 vectors
   NREBOOT  =      0    no. of reboots
   NMIN     =      0    reboot dimension
   EREF     =   0.00    reference energy to select bands
   IMIX   =      4    mixing-type and parameters
     AMIX     =   0.40;   BMIX     =  1.00
     AMIX_MAG =   1.60;   BMIX_MAG =  1.00
     AMIN     =   0.10
     WC   =   100.;   INIMIX=   1;  MIXPRE=   1;  MAXMIX= -45

 Intra band minimization:
   WEIMIN = 0.0010     energy-eigenvalue tresh-hold
   EBREAK =  0.10E-08  absolut break condition
   DEPER  =   0.30     relativ break condition  

   TIME   =   0.40     timestep for ELM

  volume/ion in A,a.u.               =      65.95       445.03
  Fermi-wavevector in a.u.,A,eV,Ry     =   0.736310  1.391424  7.376431  0.542152
  Thomas-Fermi vector in A             =   1.829718
 
 Write flags
   LWAVE        =      F    write WAVECAR
   LDOWNSAMPLE  =      F    k-point downsampling of WAVECAR
   LCHARG       =      T    write CHGCAR
   LVTOT        =      F    write LOCPOT, total local potential
   LVHAR        =      F    write LOCPOT, Hartree potential only
   LELF         =      F    write electronic localiz. function (ELF)
   LORBIT       =      0    0 simple, 1 ext, 2 COOP (PROOUT), +10 PAW based schemes


 Dipole corrections
   LMONO  =      F    monopole corrections only (constant potential shift)
   LDIPOL =      T    correct potential (dipole corrections)
   IDIPOL =      3    1-x, 2-y, 3-z, 4-all directions 
   EPSILON=  1.0000000 bulk dielectric constant

 Exchange correlation treatment:
   GGA     =    PE    GGA type
   LEXCH   =     8    internal setting for exchange type
   VOSKOWN=      0    Vosko Wilk Nusair interpolation
   LHFCALC =     F    Hartree Fock is set to
   LHFONE  =     F    Hartree Fock one center treatment
   AEXX    =    0.0000 exact exchange contribution

 Linear response parameters
   LEPSILON=     F    determine dielectric tensor
   LRPA    =     F    only Hartree local field effects (RPA)
   LNABLA  =     F    use nabla operator in PAW spheres
   LVEL    =     F    velocity operator in full k-point grid
   LINTERFAST=   F  fast interpolation
   KINTER  =     0    interpolate to denser k-point grid
   CSHIFT  =0.1000    complex shift for real part using Kramers Kronig
   OMEGAMAX=  -1.0    maximum frequency
   DEG_THRESHOLD= 0.2000000E-02 threshold for treating states as degnerate
   RTIME   =   -0.100 relaxation time in fs
  (WPLASMAI=    0.000 imaginary part of plasma frequency in eV, 0.658/RTIME)
   DFIELD  = 0.0000000 0.0000000 0.0000000 field for delta impulse in time
 
 Orbital magnetization related:
   ORBITALMAG=     F  switch on orbital magnetization
   LCHIMAG   =     F  perturbation theory with respect to B field
   DQ        =  0.001000  dq finite difference perturbation B field
   LLRAUG    =     F  two centre corrections for induced B field



--------------------------------------------------------------------------------------------------------


 conjugate gradient relaxation of ions
 charge density and potential will be updated during run
 non-spin polarized calculation
 Variant of blocked Davidson
 Davidson routine will perform the subspace rotation
 perform sub-space diagonalisation
    after iterative eigenvector-optimisation
 modified Broyden-mixing scheme, WC =      100.0
 initial mixing is a Kerker type mixing with AMIX =  0.4000 and BMIX =      1.0000
 Hartree-type preconditioning will be used
 using additional bands            6
 reciprocal scheme for non local part
 use partial core corrections
 calculate Harris-corrections to forces 
   (improved forces if not selfconsistent)
 use gradient corrections 
 use of overlap-Matrix (Vanderbilt PP)
 Gauss-broadening in eV      SIGMA  =   0.10


--------------------------------------------------------------------------------------------------------


  energy-cutoff  :      600.00
  volume of cell :      395.68
      direct lattice vectors                 reciprocal lattice vectors
     3.363599539  0.000000000  0.000000000     0.297300552  0.000000000  0.000000000
     0.000000000  5.808448050  0.000000000     0.000000000  0.172163027  0.000000000
     0.000000000  0.000000000 20.252588272     0.000000000  0.000000000  0.049376405

  length of vectors
     3.363599539  5.808448050 20.252588272     0.297300552  0.172163027  0.049376405


 
 k-points in units of 2pi/SCALE and weight: K-Spacing Value to Generate K-Mesh: 0.01
   0.00000000  0.00000000  0.00000000       0.005
   0.01564740  0.00000000  0.00000000       0.010
   0.03129479  0.00000000  0.00000000       0.010
   0.04694219  0.00000000  0.00000000       0.010
   0.06258959  0.00000000  0.00000000       0.010
   0.07823699  0.00000000  0.00000000       0.010
   0.09388438  0.00000000  0.00000000       0.010
   0.10953178  0.00000000  0.00000000       0.010
   0.12517918  0.00000000  0.00000000       0.010
   0.14082658  0.00000000  0.00000000       0.010
   0.00000000  0.01565118  0.00000000       0.010
   0.01564740  0.01565118  0.00000000       0.010
   0.03129479  0.01565118  0.00000000       0.010
   0.04694219  0.01565118  0.00000000       0.010
   0.06258959  0.01565118  0.00000000       0.010
   0.07823699  0.01565118  0.00000000       0.010
   0.09388438  0.01565118  0.00000000       0.010
   0.10953178  0.01565118  0.00000000       0.010
   0.12517918  0.01565118  0.00000000       0.010
   0.14082658  0.01565118  0.00000000       0.010
  -0.14082658  0.01565118  0.00000000       0.010
  -0.12517918  0.01565118  0.00000000       0.010
  -0.10953178  0.01565118  0.00000000       0.010
  -0.09388438  0.01565118  0.00000000       0.010
  -0.07823699  0.01565118  0.00000000       0.010
  -0.06258959  0.01565118  0.00000000       0.010
  -0.04694219  0.01565118  0.00000000       0.010
  -0.03129479  0.01565118  0.00000000       0.010
  -0.01564740  0.01565118  0.00000000       0.010
   0.00000000  0.03130237  0.00000000       0.010
   0.01564740  0.03130237  0.00000000       0.010
   0.03129479  0.03130237  0.00000000       0.010
   0.04694219  0.03130237  0.00000000       0.010
   0.06258959  0.03130237  0.00000000       0.010
   0.07823699  0.03130237  0.00000000       0.010
   0.09388438  0.03130237  0.00000000       0.010
   0.10953178  0.03130237  0.00000000       0.010
   0.12517918  0.03130237  0.00000000       0.010
   0.14082658  0.03130237  0.00000000       0.010
  -0.14082658  0.03130237  0.00000000       0.010
  -0.12517918  0.03130237  0.00000000       0.010
  -0.10953178  0.03130237  0.00000000       0.010
  -0.09388438  0.03130237  0.00000000       0.010
  -0.07823699  0.03130237  0.00000000       0.010
  -0.06258959  0.03130237  0.00000000       0.010
  -0.04694219  0.03130237  0.00000000       0.010
  -0.03129479  0.03130237  0.00000000       0.010
  -0.01564740  0.03130237  0.00000000       0.010
   0.00000000  0.04695355  0.00000000       0.010
   0.01564740  0.04695355  0.00000000       0.010
   0.03129479  0.04695355  0.00000000       0.010
   0.04694219  0.04695355  0.00000000       0.010
   0.06258959  0.04695355  0.00000000       0.010
   0.07823699  0.04695355  0.00000000       0.010
   0.09388438  0.04695355  0.00000000       0.010
   0.10953178  0.04695355  0.00000000       0.010
   0.12517918  0.04695355  0.00000000       0.010
   0.14082658  0.04695355  0.00000000       0.010
  -0.14082658  0.04695355  0.00000000       0.010
  -0.12517918  0.04695355  0.00000000       0.010
  -0.10953178  0.04695355  0.00000000       0.010
  -0.09388438  0.04695355  0.00000000       0.010
  -0.07823699  0.04695355  0.00000000       0.010
  -0.06258959  0.04695355  0.00000000       0.010
  -0.04694219  0.04695355  0.00000000       0.010
  -0.03129479  0.04695355  0.00000000       0.010
  -0.01564740  0.04695355  0.00000000       0.010
   0.00000000  0.06260474  0.00000000       0.010
   0.01564740  0.06260474  0.00000000       0.010
   0.03129479  0.06260474  0.00000000       0.010
   0.04694219  0.06260474  0.00000000       0.010
   0.06258959  0.06260474  0.00000000       0.010
   0.07823699  0.06260474  0.00000000       0.010
   0.09388438  0.06260474  0.00000000       0.010
   0.10953178  0.06260474  0.00000000       0.010
   0.12517918  0.06260474  0.00000000       0.010
   0.14082658  0.06260474  0.00000000       0.010
  -0.14082658  0.06260474  0.00000000       0.010
  -0.12517918  0.06260474  0.00000000       0.010
  -0.10953178  0.06260474  0.00000000       0.010
  -0.09388438  0.06260474  0.00000000       0.010
  -0.07823699  0.06260474  0.00000000       0.010
  -0.06258959  0.06260474  0.00000000       0.010
  -0.04694219  0.06260474  0.00000000       0.010
  -0.03129479  0.06260474  0.00000000       0.010
  -0.01564740  0.06260474  0.00000000       0.010
   0.00000000  0.07825592  0.00000000       0.010
   0.01564740  0.07825592  0.00000000       0.010
   0.03129479  0.07825592  0.00000000       0.010
   0.04694219  0.07825592  0.00000000       0.010
   0.06258959  0.07825592  0.00000000       0.010
   0.07823699  0.07825592  0.00000000       0.010
   0.09388438  0.07825592  0.00000000       0.010
   0.10953178  0.07825592  0.00000000       0.010
   0.12517918  0.07825592  0.00000000       0.010
   0.14082658  0.07825592  0.00000000       0.010
  -0.14082658  0.07825592  0.00000000       0.010
  -0.12517918  0.07825592  0.00000000       0.010
  -0.10953178  0.07825592  0.00000000       0.010
  -0.09388438  0.07825592  0.00000000       0.010
  -0.07823699  0.07825592  0.00000000       0.010
  -0.06258959  0.07825592  0.00000000       0.010
  -0.04694219  0.07825592  0.00000000       0.010
  -0.03129479  0.07825592  0.00000000       0.010
  -0.01564740  0.07825592  0.00000000       0.010
 
 k-points in reciprocal lattice and weights: K-Spacing Value to Generate K-Mesh: 0.01
   0.00000000  0.00000000  0.00000000       0.005
   0.05263158  0.00000000  0.00000000       0.010
   0.10526316  0.00000000  0.00000000       0.010
   0.15789474  0.00000000  0.00000000       0.010
   0.21052632  0.00000000  0.00000000       0.010
   0.26315789  0.00000000  0.00000000       0.010
   0.31578947  0.00000000  0.00000000       0.010
   0.36842105  0.00000000  0.00000000       0.010
   0.42105263  0.00000000  0.00000000       0.010
   0.47368421  0.00000000  0.00000000       0.010
   0.00000000  0.09090909  0.00000000       0.010
   0.05263158  0.09090909  0.00000000       0.010
   0.10526316  0.09090909  0.00000000       0.010
   0.15789474  0.09090909  0.00000000       0.010
   0.21052632  0.09090909  0.00000000       0.010
   0.26315789  0.09090909  0.00000000       0.010
   0.31578947  0.09090909  0.00000000       0.010
   0.36842105  0.09090909  0.00000000       0.010
   0.42105263  0.09090909  0.00000000       0.010
   0.47368421  0.09090909  0.00000000       0.010
  -0.47368421  0.09090909  0.00000000       0.010
  -0.42105263  0.09090909  0.00000000       0.010
  -0.36842105  0.09090909  0.00000000       0.010
  -0.31578947  0.09090909  0.00000000       0.010
  -0.26315789  0.09090909  0.00000000       0.010
  -0.21052632  0.09090909  0.00000000       0.010
  -0.15789474  0.09090909  0.00000000       0.010
  -0.10526316  0.09090909  0.00000000       0.010
  -0.05263158  0.09090909  0.00000000       0.010
   0.00000000  0.18181818  0.00000000       0.010
   0.05263158  0.18181818  0.00000000       0.010
   0.10526316  0.18181818  0.00000000       0.010
   0.15789474  0.18181818  0.00000000       0.010
   0.21052632  0.18181818  0.00000000       0.010
   0.26315789  0.18181818  0.00000000       0.010
   0.31578947  0.18181818  0.00000000       0.010
   0.36842105  0.18181818  0.00000000       0.010
   0.42105263  0.18181818  0.00000000       0.010
   0.47368421  0.18181818  0.00000000       0.010
  -0.47368421  0.18181818  0.00000000       0.010
  -0.42105263  0.18181818  0.00000000       0.010
  -0.36842105  0.18181818  0.00000000       0.010
  -0.31578947  0.18181818  0.00000000       0.010
  -0.26315789  0.18181818  0.00000000       0.010
  -0.21052632  0.18181818  0.00000000       0.010
  -0.15789474  0.18181818  0.00000000       0.010
  -0.10526316  0.18181818  0.00000000       0.010
  -0.05263158  0.18181818  0.00000000       0.010
   0.00000000  0.27272727  0.00000000       0.010
   0.05263158  0.27272727  0.00000000       0.010
   0.10526316  0.27272727  0.00000000       0.010
   0.15789474  0.27272727  0.00000000       0.010
   0.21052632  0.27272727  0.00000000       0.010
   0.26315789  0.27272727  0.00000000       0.010
   0.31578947  0.27272727  0.00000000       0.010
   0.36842105  0.27272727  0.00000000       0.010
   0.42105263  0.27272727  0.00000000       0.010
   0.47368421  0.27272727  0.00000000       0.010
  -0.47368421  0.27272727  0.00000000       0.010
  -0.42105263  0.27272727  0.00000000       0.010
  -0.36842105  0.27272727  0.00000000       0.010
  -0.31578947  0.27272727  0.00000000       0.010
  -0.26315789  0.27272727  0.00000000       0.010
  -0.21052632  0.27272727  0.00000000       0.010
  -0.15789474  0.27272727  0.00000000       0.010
  -0.10526316  0.27272727  0.00000000       0.010
  -0.05263158  0.27272727  0.00000000       0.010
   0.00000000  0.36363636  0.00000000       0.010
   0.05263158  0.36363636  0.00000000       0.010
   0.10526316  0.36363636  0.00000000       0.010
   0.15789474  0.36363636  0.00000000       0.010
   0.21052632  0.36363636  0.00000000       0.010
   0.26315789  0.36363636  0.00000000       0.010
   0.31578947  0.36363636  0.00000000       0.010
   0.36842105  0.36363636  0.00000000       0.010
   0.42105263  0.36363636  0.00000000       0.010
   0.47368421  0.36363636  0.00000000       0.010
  -0.47368421  0.36363636  0.00000000       0.010
  -0.42105263  0.36363636  0.00000000       0.010
  -0.36842105  0.36363636  0.00000000       0.010
  -0.31578947  0.36363636  0.00000000       0.010
  -0.26315789  0.36363636  0.00000000       0.010
  -0.21052632  0.36363636  0.00000000       0.010
  -0.15789474  0.36363636  0.00000000       0.010
  -0.10526316  0.36363636  0.00000000       0.010
  -0.05263158  0.36363636  0.00000000       0.010
   0.00000000  0.45454545  0.00000000       0.010
   0.05263158  0.45454545  0.00000000       0.010
   0.10526316  0.45454545  0.00000000       0.010
   0.15789474  0.45454545  0.00000000       0.010
   0.21052632  0.45454545  0.00000000       0.010
   0.26315789  0.45454545  0.00000000       0.010
   0.31578947  0.45454545  0.00000000       0.010
   0.36842105  0.45454545  0.00000000       0.010
   0.42105263  0.45454545  0.00000000       0.010
   0.47368421  0.45454545  0.00000000       0.010
  -0.47368421  0.45454545  0.00000000       0.010
  -0.42105263  0.45454545  0.00000000       0.010
  -0.36842105  0.45454545  0.00000000       0.010
  -0.31578947  0.45454545  0.00000000       0.010
  -0.26315789  0.45454545  0.00000000       0.010
  -0.21052632  0.45454545  0.00000000       0.010
  -0.15789474  0.45454545  0.00000000       0.010
  -0.10526316  0.45454545  0.00000000       0.010
  -0.05263158  0.45454545  0.00000000       0.010
 
 position of ions in fractional coordinates (direct lattice) 
   0.49999997  0.16666654  0.50703967
   0.00000000  0.66666651  0.50703967
   0.49999997  0.83333325  0.57974952
   0.00000000  0.33333322  0.57974952
   0.50000000  0.83333325  0.41321075
   0.00000000  0.33333325  0.41321075
 
 position of ions in cartesian coordinates  (Angst):
   1.68179967  0.96807393 10.26886559
   0.00000000  3.87229778 10.26886559
   1.68179967  4.84037291 11.74142843
   0.00000000  1.93614871 11.74142843
   1.68179977  4.84037291  8.36858719
   0.00000000  1.93614889  8.36858719
 


--------------------------------------------------------------------------------------------------------


 k-point  1 :   0.0000 0.0000 0.0000  plane waves:   13243
 k-point  2 :   0.0526 0.0000 0.0000  plane waves:   13261
 k-point  3 :   0.1053 0.0000 0.0000  plane waves:   13229
 k-point  4 :   0.1579 0.0000 0.0000  plane waves:   13209
 k-point  5 :   0.2105 0.0000 0.0000  plane waves:   13217
 k-point  6 :   0.2632 0.0000 0.0000  plane waves:   13203
 k-point  7 :   0.3158 0.0000 0.0000  plane waves:   13214
 k-point  8 :   0.3684 0.0000 0.0000  plane waves:   13210
 k-point  9 :   0.4211 0.0000 0.0000  plane waves:   13210
 k-point 10 :   0.4737 0.0000 0.0000  plane waves:   13190
 k-point 11 :   0.0000 0.0909 0.0000  plane waves:   13247
 k-point 12 :   0.0526 0.0909 0.0000  plane waves:   13239
 k-point 13 :   0.1053 0.0909 0.0000  plane waves:   13235
 k-point 14 :   0.1579 0.0909 0.0000  plane waves:   13219
 k-point 15 :   0.2105 0.0909 0.0000  plane waves:   13219
 k-point 16 :   0.2632 0.0909 0.0000  plane waves:   13204
 k-point 17 :   0.3158 0.0909 0.0000  plane waves:   13186
 k-point 18 :   0.3684 0.0909 0.0000  plane waves:   13194
 k-point 19 :   0.4211 0.0909 0.0000  plane waves:   13207
 k-point 20 :   0.4737 0.0909 0.0000  plane waves:   13193
 k-point 21 :  -0.4737 0.0909 0.0000  plane waves:   13193
 k-point 22 :  -0.4211 0.0909 0.0000  plane waves:   13207
 k-point 23 :  -0.3684 0.0909 0.0000  plane waves:   13194
 k-point 24 :  -0.3158 0.0909 0.0000  plane waves:   13186
 k-point 25 :  -0.2632 0.0909 0.0000  plane waves:   13204
 k-point 26 :  -0.2105 0.0909 0.0000  plane waves:   13219
 k-point 27 :  -0.1579 0.0909 0.0000  plane waves:   13219
 k-point 28 :  -0.1053 0.0909 0.0000  plane waves:   13235
 k-point 29 :  -0.0526 0.0909 0.0000  plane waves:   13239
 k-point 30 :   0.0000 0.1818 0.0000  plane waves:   13237
 k-point 31 :   0.0526 0.1818 0.0000  plane waves:   13243
 k-point 32 :   0.1053 0.1818 0.0000  plane waves:   13219
 k-point 33 :   0.1579 0.1818 0.0000  plane waves:   13199
 k-point 34 :   0.2105 0.1818 0.0000  plane waves:   13198
 k-point 35 :   0.2632 0.1818 0.0000  plane waves:   13181
 k-point 36 :   0.3158 0.1818 0.0000  plane waves:   13196
 k-point 37 :   0.3684 0.1818 0.0000  plane waves:   13214
 k-point 38 :   0.4211 0.1818 0.0000  plane waves:   13209
 k-point 39 :   0.4737 0.1818 0.0000  plane waves:   13209
 k-point 40 :  -0.4737 0.1818 0.0000  plane waves:   13209
 k-point 41 :  -0.4211 0.1818 0.0000  plane waves:   13209
 k-point 42 :  -0.3684 0.1818 0.0000  plane waves:   13214
 k-point 43 :  -0.3158 0.1818 0.0000  plane waves:   13196
 k-point 44 :  -0.2632 0.1818 0.0000  plane waves:   13181
 k-point 45 :  -0.2105 0.1818 0.0000  plane waves:   13198
 k-point 46 :  -0.1579 0.1818 0.0000  plane waves:   13199
 k-point 47 :  -0.1053 0.1818 0.0000  plane waves:   13219
 k-point 48 :  -0.0526 0.1818 0.0000  plane waves:   13243
 k-point 49 :   0.0000 0.2727 0.0000  plane waves:   13209
 k-point 50 :   0.0526 0.2727 0.0000  plane waves:   13218
 k-point 51 :   0.1053 0.2727 0.0000  plane waves:   13212
 k-point 52 :   0.1579 0.2727 0.0000  plane waves:   13217
 k-point 53 :   0.2105 0.2727 0.0000  plane waves:   13213
 k-point 54 :   0.2632 0.2727 0.0000  plane waves:   13207
 k-point 55 :   0.3158 0.2727 0.0000  plane waves:   13172
 k-point 56 :   0.3684 0.2727 0.0000  plane waves:   13195
 k-point 57 :   0.4211 0.2727 0.0000  plane waves:   13203
 k-point 58 :   0.4737 0.2727 0.0000  plane waves:   13208
 k-point 59 :  -0.4737 0.2727 0.0000  plane waves:   13208
 k-point 60 :  -0.4211 0.2727 0.0000  plane waves:   13203
 k-point 61 :  -0.3684 0.2727 0.0000  plane waves:   13195
 k-point 62 :  -0.3158 0.2727 0.0000  plane waves:   13172
 k-point 63 :  -0.2632 0.2727 0.0000  plane waves:   13207
 k-point 64 :  -0.2105 0.2727 0.0000  plane waves:   13213
 k-point 65 :  -0.1579 0.2727 0.0000  plane waves:   13217
 k-point 66 :  -0.1053 0.2727 0.0000  plane waves:   13212
 k-point 67 :  -0.0526 0.2727 0.0000  plane waves:   13218
 k-point 68 :   0.0000 0.3636 0.0000  plane waves:   13189
 k-point 69 :   0.0526 0.3636 0.0000  plane waves:   13210
 k-point 70 :   0.1053 0.3636 0.0000  plane waves:   13211
 k-point 71 :   0.1579 0.3636 0.0000  plane waves:   13200
 k-point 72 :   0.2105 0.3636 0.0000  plane waves:   13206
 k-point 73 :   0.2632 0.3636 0.0000  plane waves:   13178
 k-point 74 :   0.3158 0.3636 0.0000  plane waves:   13184
 k-point 75 :   0.3684 0.3636 0.0000  plane waves:   13189
 k-point 76 :   0.4211 0.3636 0.0000  plane waves:   13205
 k-point 77 :   0.4737 0.3636 0.0000  plane waves:   13208
 k-point 78 :  -0.4737 0.3636 0.0000  plane waves:   13208
 k-point 79 :  -0.4211 0.3636 0.0000  plane waves:   13205
 k-point 80 :  -0.3684 0.3636 0.0000  plane waves:   13189
 k-point 81 :  -0.3158 0.3636 0.0000  plane waves:   13184
 k-point 82 :  -0.2632 0.3636 0.0000  plane waves:   13178
 k-point 83 :  -0.2105 0.3636 0.0000  plane waves:   13206
 k-point 84 :  -0.1579 0.3636 0.0000  plane waves:   13200
 k-point 85 :  -0.1053 0.3636 0.0000  plane waves:   13211
 k-point 86 :  -0.0526 0.3636 0.0000  plane waves:   13210
 k-point 87 :   0.0000 0.4545 0.0000  plane waves:   13212
 k-point 88 :   0.0526 0.4545 0.0000  plane waves:   13184
 k-point 89 :   0.1053 0.4545 0.0000  plane waves:   13157
 k-point 90 :   0.1579 0.4545 0.0000  plane waves:   13175
 k-point 91 :   0.2105 0.4545 0.0000  plane waves:   13183
 k-point 92 :   0.2632 0.4545 0.0000  plane waves:   13187
 k-point 93 :   0.3158 0.4545 0.0000  plane waves:   13187
 k-point 94 :   0.3684 0.4545 0.0000  plane waves:   13206
 k-point 95 :   0.4211 0.4545 0.0000  plane waves:   13216
 k-point 96 :   0.4737 0.4545 0.0000  plane waves:   13244
 k-point 97 :  -0.4737 0.4545 0.0000  plane waves:   13244
 k-point 98 :  -0.4211 0.4545 0.0000  plane waves:   13216
 k-point 99 :  -0.3684 0.4545 0.0000  plane waves:   13206
 k-point ** :  -0.3158 0.4545 0.0000  plane waves:   13187
 k-point ** :  -0.2632 0.4545 0.0000  plane waves:   13187
 k-point ** :  -0.2105 0.4545 0.0000  plane waves:   13183
 k-point ** :  -0.1579 0.4545 0.0000  plane waves:   13175
 k-point ** :  -0.1053 0.4545 0.0000  plane waves:   13157
 k-point ** :  -0.0526 0.4545 0.0000  plane waves:   13184

 maximum and minimum number of plane-waves per node :       568      532

 maximum number of plane-waves:     13261
 maximum index in each direction: 
   IXMAX=    7   IYMAX=   11   IZMAX=   40
   IXMIN=   -7   IYMIN=  -12   IZMIN=  -40


 parallel 3D FFT for wavefunctions:
    minimum data exchange during FFTs selected (reduces bandwidth)
 parallel 3D FFT for charge:
    minimum data exchange during FFTs selected (reduces bandwidth)


 total amount of memory used by VASP MPI-rank0    62837. kBytes
=======================================================================

   base      :      30000. kBytes
   nonl-proj :      25819. kBytes
   fftplans  :       1397. kBytes
   grid      :       2623. kBytes
   one-center:         15. kBytes
   wavefun   :       2983. kBytes
 
     INWAV:  cpu time    0.0000: real time    0.0000
 Broyden mixing: mesh for mixing (old mesh)
   NGX = 13   NGY = 23   NGZ = 81
  (NGX  = 56   NGY  = 96   NGZ  =324)
  gives a total of  24219 points

 initial charge density was supplied:
 charge density of overlapping atoms calculated
 number of electron      36.0000000 magnetization 
 keeping initial charge density in first step


--------------------------------------------------------------------------------------------------------


 Maximum index for augmentation-charges         1255 (set IRDMAX)


--------------------------------------------------------------------------------------------------------


 First call to EWALD:  gamma=   0.241
 Maximum number of real-space cells 5x 3x 1
 Maximum number of reciprocal cells 2x 2x 7

    FEWALD:  cpu time    0.0013: real time    0.0014


--------------------------------------- Iteration      1(   1)  ---------------------------------------


    POTLOK:  cpu time    0.0285: real time    0.0571
    SETDIJ:  cpu time    0.0056: real time    0.0056
     EDDAV:  cpu time    1.2016: real time    1.2046
       DOS:  cpu time    0.0015: real time    0.0015
    --------------------------------------------
      LOOP:  cpu time    1.2372: real time    1.2688

 eigenvalue-minimisations  :  5040
 total energy-change (2. order) : 0.2738278E+03  (-0.1307072E+04)
 number of electron      36.0000000 magnetization 
 augmentation part       36.0000000 magnetization 

 DIPCOR: dipole corrections for dipol
 direction  3 min pos     1,
 dipolmoment           0.000000      0.000000      0.000002 electrons x Angstroem
 Tr[quadrupol]      -124.069716

 energy correction for charged system         0.000000 eV
 dipol+quadrupol energy correction           -0.000000 eV
 added-field ion interaction          0.000000 eV  (added to PSCEN)


 Free energy of the ion-electron system (eV)
  ---------------------------------------------------
  alpha Z        PSCENC =        26.18282474
  Ewald energy   TEWEN  =      4196.34243665
  -Hartree energ DENC   =     -5517.43919385
  -exchange      EXHF   =         0.00000000
  -V(xc)+E(xc)   XCENC  =      -153.04287229
  PAW double counting   =      1381.62273368    -1155.94054365
  entropy T*S    EENTRO =        -0.01647015
  eigenvalues    EBANDS =        60.89710180
  atomic energy  EATOM  =      1435.22174307
  Solvation  Ediel_sol  =         0.00000000
  ---------------------------------------------------
  free energy    TOTEN  =       273.82775999 eV

  energy without entropy =      273.84423014  energy(sigma->0) =      273.83599506


--------------------------------------------------------------------------------------------------------




--------------------------------------- Iteration      1(   2)  ---------------------------------------


     EDDAV:  cpu time    1.4057: real time    1.4061
       DOS:  cpu time    0.0014: real time    0.0014
    --------------------------------------------
      LOOP:  cpu time    1.4071: real time    1.4075

 eigenvalue-minimisations  :  7856
 total energy-change (2. order) :-0.2804415E+03  (-0.2723668E+03)
 number of electron      36.0000000 magnetization 
 augmentation part       36.0000000 magnetization 

 DIPCOR: dipole corrections for dipol
 direction  3 min pos     1,
 dipolmoment           0.000000      0.000000      0.000002 electrons x Angstroem
 Tr[quadrupol]      -124.069716

 energy correction for charged system         0.000000 eV
 dipol+quadrupol energy correction           -0.000000 eV
 added-field ion interaction          0.000000 eV  (added to PSCEN)


 Free energy of the ion-electron system (eV)
  ---------------------------------------------------
  alpha Z        PSCENC =        26.18282474
  Ewald energy   TEWEN  =      4196.34243665
  -Hartree energ DENC   =     -5517.43919385
  -exchange      EXHF   =         0.00000000
  -V(xc)+E(xc)   XCENC  =      -153.04287229
  PAW double counting   =      1381.62273368    -1155.94054365
  entropy T*S    EENTRO =        -0.00018326
  eigenvalues    EBANDS =      -219.56068730
  atomic energy  EATOM  =      1435.22174307
  Solvation  Ediel_sol  =         0.00000000
  ---------------------------------------------------
  free energy    TOTEN  =        -6.61374221 eV

  energy without entropy =       -6.61355896  energy(sigma->0) =       -6.61365058


--------------------------------------------------------------------------------------------------------




--------------------------------------- Iteration      1(   3)  ---------------------------------------


     EDDAV:  cpu time    1.2849: real time    1.2854
       DOS:  cpu time    0.0011: real time    0.0011
    --------------------------------------------
      LOOP:  cpu time    1.2860: real time    1.2865

 eigenvalue-minimisations  :  6672
 total energy-change (2. order) :-0.3412979E+02  (-0.3383792E+02)
 number of electron      36.0000000 magnetization 
 augmentation part       36.0000000 magnetization 

 DIPCOR: dipole corrections for dipol
 direction  3 min pos     1,
 dipolmoment           0.000000      0.000000      0.000002 electrons x Angstroem
 Tr[quadrupol]      -124.069716

 energy correction for charged system         0.000000 eV
 dipol+quadrupol energy correction           -0.000000 eV
 added-field ion interaction          0.000000 eV  (added to PSCEN)


 Free energy of the ion-electron system (eV)
  ---------------------------------------------------
  alpha Z        PSCENC =        26.18282474
  Ewald energy   TEWEN  =      4196.34243665
  -Hartree energ DENC   =     -5517.43919385
  -exchange      EXHF   =         0.00000000
  -V(xc)+E(xc)   XCENC  =      -153.04287229
  PAW double counting   =      1381.62273368    -1155.94054365
  entropy T*S    EENTRO =        -0.00000000
  eigenvalues    EBANDS =      -253.69065750
  atomic energy  EATOM  =      1435.22174307
  Solvation  Ediel_sol  =         0.00000000
  ---------------------------------------------------
  free energy    TOTEN  =       -40.74352916 eV

  energy without entropy =      -40.74352916  energy(sigma->0) =      -40.74352916


--------------------------------------------------------------------------------------------------------




--------------------------------------- Iteration      1(   4)  ---------------------------------------


     EDDAV:  cpu time    1.3513: real time    1.3524
       DOS:  cpu time    0.0011: real time    0.0011
    --------------------------------------------
      LOOP:  cpu time    1.3524: real time    1.3535

 eigenvalue-minimisations  :  7240
 total energy-change (2. order) :-0.1131328E+01  (-0.1126144E+01)
 number of electron      36.0000000 magnetization 
 augmentation part       36.0000000 magnetization 

 DIPCOR: dipole corrections for dipol
 direction  3 min pos     1,
 dipolmoment           0.000000      0.000000      0.000002 electrons x Angstroem
 Tr[quadrupol]      -124.069716

 energy correction for charged system         0.000000 eV
 dipol+quadrupol energy correction           -0.000000 eV
 added-field ion interaction          0.000000 eV  (added to PSCEN)


 Free energy of the ion-electron system (eV)
  ---------------------------------------------------
  alpha Z        PSCENC =        26.18282474
  Ewald energy   TEWEN  =      4196.34243665
  -Hartree energ DENC   =     -5517.43919385
  -exchange      EXHF   =         0.00000000
  -V(xc)+E(xc)   XCENC  =      -153.04287229
  PAW double counting   =      1381.62273368    -1155.94054365
  entropy T*S    EENTRO =        -0.00000000
  eigenvalues    EBANDS =      -254.82198588
  atomic energy  EATOM  =      1435.22174307
  Solvation  Ediel_sol  =         0.00000000
  ---------------------------------------------------
  free energy    TOTEN  =       -41.87485754 eV

  energy without entropy =      -41.87485754  energy(sigma->0) =      -41.87485754


--------------------------------------------------------------------------------------------------------




--------------------------------------- Iteration      1(   5)  ---------------------------------------


     EDDAV:  cpu time    1.3615: real time    1.3621
       DOS:  cpu time    0.0012: real time    0.0012
    CHARGE:  cpu time    0.0440: real time    0.0440
    MIXING:  cpu time    0.0006: real time    0.0006
    --------------------------------------------
      LOOP:  cpu time    1.4074: real time    1.4079

 eigenvalue-minimisations  :  7600
 total energy-change (2. order) :-0.3712794E-01  (-0.3710872E-01)
 number of electron      36.0000000 magnetization 
 augmentation part       -2.3350376 magnetization 

 DIPCOR: dipole corrections for dipol
 direction  3 min pos     1,
 dipolmoment           0.000000      0.000000      0.000002 electrons x Angstroem
 Tr[quadrupol]      -124.069716

 energy correction for charged system         0.000000 eV
 dipol+quadrupol energy correction           -0.000000 eV
 added-field ion interaction          0.000000 eV  (added to PSCEN)


 Broyden mixing:
  rms(total) = 0.27141E+01    rms(broyden)= 0.27141E+01
  rms(prec ) = 0.27543E+01
  weight for this iteration     100.00

 Free energy of the ion-electron system (eV)
  ---------------------------------------------------
  alpha Z        PSCENC =        26.18282474
  Ewald energy   TEWEN  =      4196.34243665
  -Hartree energ DENC   =     -5517.43919385
  -exchange      EXHF   =         0.00000000
  -V(xc)+E(xc)   XCENC  =      -153.04287229
  PAW double counting   =      1381.62273368    -1155.94054365
  entropy T*S    EENTRO =        -0.00000000
  eigenvalues    EBANDS =      -254.85911382
  atomic energy  EATOM  =      1435.22174307
  Solvation  Ediel_sol  =         0.00000000
  ---------------------------------------------------
  free energy    TOTEN  =       -41.91198548 eV

  energy without entropy =      -41.91198548  energy(sigma->0) =      -41.91198548


--------------------------------------------------------------------------------------------------------




--------------------------------------- Iteration      1(   6)  ---------------------------------------


    POTLOK:  cpu time    0.0133: real time    0.0133
    SETDIJ:  cpu time    0.0020: real time    0.0020
     EDDAV:  cpu time    1.3067: real time    1.3071
       DOS:  cpu time    0.0015: real time    0.0015
    CHARGE:  cpu time    0.0435: real time    0.0435
    MIXING:  cpu time    0.0004: real time    0.0004
    --------------------------------------------
      LOOP:  cpu time    1.3673: real time    1.3678

 eigenvalue-minimisations  :  7136
 total energy-change (2. order) : 0.1943423E+01  (-0.1180082E+01)
 number of electron      36.0000000 magnetization 
 augmentation part       -1.4190121 magnetization 

 DIPCOR: dipole corrections for dipol
 direction  3 min pos     1,
 dipolmoment           0.000000      0.000000      0.189508 electrons x Angstroem
 Tr[quadrupol]      -124.115673

 energy correction for charged system         0.000000 eV
 dipol+quadrupol energy correction           -0.008212 eV
 added-field ion interaction          0.000001 eV  (added to PSCEN)


 Broyden mixing:
  rms(total) = 0.11757E+01    rms(broyden)= 0.11757E+01
  rms(prec ) = 0.12081E+01
  weight for this iteration     100.00

 eigenvalues of (default mixing * dielectric matrix)
  average eigenvalue GAMMA=   1.2184
  1.2184

 Free energy of the ion-electron system (eV)
  ---------------------------------------------------
  alpha Z        PSCENC =        26.17461407
  Ewald energy   TEWEN  =      4196.34243665
  -Hartree energ DENC   =     -5517.05900495
  -exchange      EXHF   =         0.00000000
  -V(xc)+E(xc)   XCENC  =      -151.77876826
  PAW double counting   =      1940.16896777    -1715.99153612
  entropy T*S    EENTRO =        -0.00000013
  eigenvalues    EBANDS =      -253.04701445
  atomic energy  EATOM  =      1435.22174307
  Solvation  Ediel_sol  =         0.00000000
  ---------------------------------------------------
  free energy    TOTEN  =       -39.96856235 eV

  energy without entropy =      -39.96856222  energy(sigma->0) =      -39.96856228


--------------------------------------------------------------------------------------------------------




--------------------------------------- Iteration      1(   7)  ---------------------------------------


    POTLOK:  cpu time    0.0131: real time    0.0131
    SETDIJ:  cpu time    0.0021: real time    0.0021
     EDDAV:  cpu time    1.3028: real time    1.3032
       DOS:  cpu time    0.0012: real time    0.0012
    CHARGE:  cpu time    0.0434: real time    0.0434
    MIXING:  cpu time    0.0004: real time    0.0004
    --------------------------------------------
      LOOP:  cpu time    1.3629: real time    1.3633

 eigenvalue-minimisations  :  6864
 total energy-change (2. order) : 0.1876035E+00  (-0.6727151E+00)
 number of electron      36.0000000 magnetization 
 augmentation part       -2.0162665 magnetization 

 DIPCOR: dipole corrections for dipol
 direction  3 min pos     1,
 dipolmoment           0.000000      0.000000      0.184283 electrons x Angstroem
 Tr[quadrupol]      -124.882295

 energy correction for charged system         0.000000 eV
 dipol+quadrupol energy correction           -0.007765 eV
 added-field ion interaction          0.000001 eV  (added to PSCEN)


 Broyden mixing:
  rms(total) = 0.72541E+00    rms(broyden)= 0.72541E+00
  rms(prec ) = 0.75804E+00
  weight for this iteration     100.00

 eigenvalues of (default mixing * dielectric matrix)
  average eigenvalue GAMMA=   1.2075
  1.8001  0.6149

 Free energy of the ion-electron system (eV)
  ---------------------------------------------------
  alpha Z        PSCENC =        26.17506063
  Ewald energy   TEWEN  =      4196.34243665
  -Hartree energ DENC   =     -5532.31845863
  -exchange      EXHF   =         0.00000000
  -V(xc)+E(xc)   XCENC  =      -151.94521428
  PAW double counting   =      2487.36097844    -2263.80080516
  entropy T*S    EENTRO =        -0.00000000
  eigenvalues    EBANDS =      -236.81669951
  atomic energy  EATOM  =      1435.22174307
  Solvation  Ediel_sol  =         0.00000000
  ---------------------------------------------------
  free energy    TOTEN  =       -39.78095880 eV

  energy without entropy =      -39.78095880  energy(sigma->0) =      -39.78095880


--------------------------------------------------------------------------------------------------------




--------------------------------------- Iteration      1(   8)  ---------------------------------------


    POTLOK:  cpu time    0.0136: real time    0.0136
    SETDIJ:  cpu time    0.0021: real time    0.0021
     EDDAV:  cpu time    1.2812: real time    1.2815
       DOS:  cpu time    0.0011: real time    0.0011
    CHARGE:  cpu time    0.0435: real time    0.0435
    MIXING:  cpu time    0.0004: real time    0.0004
    --------------------------------------------
      LOOP:  cpu time    1.3419: real time    1.3422

 eigenvalue-minimisations  :  6848
 total energy-change (2. order) : 0.3399336E+00  (-0.1515829E+00)
 number of electron      36.0000000 magnetization 
 augmentation part       -1.7192074 magnetization 

 DIPCOR: dipole corrections for dipol
 direction  3 min pos     1,
 dipolmoment           0.000000      0.000000      0.136410 electrons x Angstroem
 Tr[quadrupol]      -124.850720

 energy correction for charged system         0.000000 eV
 dipol+quadrupol energy correction           -0.004255 eV
 added-field ion interaction          0.000001 eV  (added to PSCEN)


 Broyden mixing:
  rms(total) = 0.26409E+00    rms(broyden)= 0.26409E+00
  rms(prec ) = 0.26999E+00
  weight for this iteration     100.00

 eigenvalues of (default mixing * dielectric matrix)
  average eigenvalue GAMMA=   1.1007
  2.0533  0.6576  0.5911

 Free energy of the ion-electron system (eV)
  ---------------------------------------------------
  alpha Z        PSCENC =        26.17857080
  Ewald energy   TEWEN  =      4196.34243665
  -Hartree energ DENC   =     -5530.14088838
  -exchange      EXHF   =         0.00000000
  -V(xc)+E(xc)   XCENC  =      -151.47160724
  PAW double counting   =      2835.93644141    -2612.93074721
  entropy T*S    EENTRO =        -0.00000000
  eigenvalues    EBANDS =      -238.57697430
  atomic energy  EATOM  =      1435.22174307
  Solvation  Ediel_sol  =         0.00000000
  ---------------------------------------------------
  free energy    TOTEN  =       -39.44102520 eV

  energy without entropy =      -39.44102520  energy(sigma->0) =      -39.44102520


--------------------------------------------------------------------------------------------------------




--------------------------------------- Iteration      1(   9)  ---------------------------------------


    POTLOK:  cpu time    0.0130: real time    0.0130
    SETDIJ:  cpu time    0.0020: real time    0.0020
     EDDAV:  cpu time    1.2716: real time    1.2719
       DOS:  cpu time    0.0010: real time    0.0010
    CHARGE:  cpu time    0.0437: real time    0.0437
    MIXING:  cpu time    0.0004: real time    0.0004
    --------------------------------------------
      LOOP:  cpu time    1.3317: real time    1.3320

 eigenvalue-minimisations  :  6640
 total energy-change (2. order) : 0.1528839E-01  (-0.1047337E-01)
 number of electron      36.0000000 magnetization 
 augmentation part       -1.7114464 magnetization 

 DIPCOR: dipole corrections for dipol
 direction  3 min pos     1,
 dipolmoment           0.000000      0.000000      0.164248 electrons x Angstroem
 Tr[quadrupol]      -124.958201

 energy correction for charged system         0.000000 eV
 dipol+quadrupol energy correction           -0.006169 eV
 added-field ion interaction          0.000001 eV  (added to PSCEN)


 Broyden mixing:
  rms(total) = 0.97571E-01    rms(broyden)= 0.97571E-01
  rms(prec ) = 0.10012E+00
  weight for this iteration     100.00

 eigenvalues of (default mixing * dielectric matrix)
  average eigenvalue GAMMA=   1.1550
  2.0179  0.9982  0.9982  0.6059

 Free energy of the ion-electron system (eV)
  ---------------------------------------------------
  alpha Z        PSCENC =        26.17665713
  Ewald energy   TEWEN  =      4196.34243665
  -Hartree energ DENC   =     -5532.45318994
  -exchange      EXHF   =         0.00000000
  -V(xc)+E(xc)   XCENC  =      -151.36318408
  PAW double counting   =      2962.12899487    -2739.29798439
  entropy T*S    EENTRO =        -0.00000000
  eigenvalues    EBANDS =      -236.18121011
  atomic energy  EATOM  =      1435.22174307
  Solvation  Ediel_sol  =         0.00000000
  ---------------------------------------------------
  free energy    TOTEN  =       -39.42573681 eV

  energy without entropy =      -39.42573681  energy(sigma->0) =      -39.42573681


--------------------------------------------------------------------------------------------------------




--------------------------------------- Iteration      1(  10)  ---------------------------------------


    POTLOK:  cpu time    0.0131: real time    0.0131
    SETDIJ:  cpu time    0.0020: real time    0.0020
     EDDAV:  cpu time    1.3494: real time    1.3497
       DOS:  cpu time    0.0011: real time    0.0011
    CHARGE:  cpu time    0.0437: real time    0.0439
    MIXING:  cpu time    0.0004: real time    0.0004
    --------------------------------------------
      LOOP:  cpu time    1.4097: real time    1.4102

 eigenvalue-minimisations  :  7400
 total energy-change (2. order) : 0.2641062E-02  (-0.2185283E-02)
 number of electron      36.0000000 magnetization 
 augmentation part       -1.7313891 magnetization 

 DIPCOR: dipole corrections for dipol
 direction  3 min pos     1,
 dipolmoment           0.000000      0.000000      0.167487 electrons x Angstroem
 Tr[quadrupol]      -125.037215

 energy correction for charged system         0.000000 eV
 dipol+quadrupol energy correction           -0.006414 eV
 added-field ion interaction          0.000001 eV  (added to PSCEN)


 Broyden mixing:
  rms(total) = 0.82872E-01    rms(broyden)= 0.82872E-01
  rms(prec ) = 0.83937E-01
  weight for this iteration     100.00

 eigenvalues of (default mixing * dielectric matrix)
  average eigenvalue GAMMA=   1.3280
  2.1783  2.1783  1.0414  0.6211  0.6211

 Free energy of the ion-electron system (eV)
  ---------------------------------------------------
  alpha Z        PSCENC =        26.17641145
  Ewald energy   TEWEN  =      4196.34243665
  -Hartree energ DENC   =     -5534.32083821
  -exchange      EXHF   =         0.00000000
  -V(xc)+E(xc)   XCENC  =      -151.32099349
  PAW double counting   =      2984.67555403    -2761.90423340
  entropy T*S    EENTRO =        -0.00000000
  eigenvalues    EBANDS =      -234.29317585
  atomic energy  EATOM  =      1435.22174307
  Solvation  Ediel_sol  =         0.00000000
  ---------------------------------------------------
  free energy    TOTEN  =       -39.42309575 eV

  energy without entropy =      -39.42309575  energy(sigma->0) =      -39.42309575


--------------------------------------------------------------------------------------------------------




--------------------------------------- Iteration      1(  11)  ---------------------------------------


    POTLOK:  cpu time    0.0132: real time    0.0132
    SETDIJ:  cpu time    0.0025: real time    0.0025
     EDDAV:  cpu time    1.3717: real time    1.3723
       DOS:  cpu time    0.0012: real time    0.0012
    CHARGE:  cpu time    0.0439: real time    0.0439
    MIXING:  cpu time    0.0004: real time    0.0004
    --------------------------------------------
      LOOP:  cpu time    1.4329: real time    1.4335

 eigenvalue-minimisations  :  7408
 total energy-change (2. order) : 0.1330431E-02  (-0.3766612E-03)
 number of electron      36.0000000 magnetization 
 augmentation part       -1.7248868 magnetization 

 DIPCOR: dipole corrections for dipol
 direction  3 min pos     1,
 dipolmoment           0.000000      0.000000      0.159559 electrons x Angstroem
 Tr[quadrupol]      -125.107986

 energy correction for charged system         0.000000 eV
 dipol+quadrupol energy correction           -0.005821 eV
 added-field ion interaction          0.000001 eV  (added to PSCEN)


 Broyden mixing:
  rms(total) = 0.47442E-01    rms(broyden)= 0.47442E-01
  rms(prec ) = 0.49026E-01
  weight for this iteration     100.00

 eigenvalues of (default mixing * dielectric matrix)
  average eigenvalue GAMMA=   1.3137
  2.3623  2.3623  1.0481  0.6133  0.7482  0.7482

 Free energy of the ion-electron system (eV)
  ---------------------------------------------------
  alpha Z        PSCENC =        26.17700429
  Ewald energy   TEWEN  =      4196.34243665
  -Hartree energ DENC   =     -5535.82200856
  -exchange      EXHF   =         0.00000000
  -V(xc)+E(xc)   XCENC  =      -151.28027707
  PAW double counting   =      3002.54314770    -2779.81654723
  entropy T*S    EENTRO =        -0.00000000
  eigenvalues    EBANDS =      -232.78726417
  atomic energy  EATOM  =      1435.22174307
  Solvation  Ediel_sol  =         0.00000000
  ---------------------------------------------------
  free energy    TOTEN  =       -39.42176532 eV

  energy without entropy =      -39.42176532  energy(sigma->0) =      -39.42176532


--------------------------------------------------------------------------------------------------------




--------------------------------------- Iteration      1(  12)  ---------------------------------------


    POTLOK:  cpu time    0.0129: real time    0.0129
    SETDIJ:  cpu time    0.0020: real time    0.0020
     EDDAV:  cpu time    1.3215: real time    1.3218
       DOS:  cpu time    0.0011: real time    0.0011
    CHARGE:  cpu time    0.0438: real time    0.0438
    MIXING:  cpu time    0.0004: real time    0.0004
    --------------------------------------------
      LOOP:  cpu time    1.3818: real time    1.3821

 eigenvalue-minimisations  :  7144
 total energy-change (2. order) : 0.8421321E-03  (-0.3736867E-03)
 number of electron      36.0000000 magnetization 
 augmentation part       -1.7287711 magnetization 

 DIPCOR: dipole corrections for dipol
 direction  3 min pos     1,
 dipolmoment           0.000000      0.000000      0.164581 electrons x Angstroem
 Tr[quadrupol]      -125.172270

 energy correction for charged system         0.000000 eV
 dipol+quadrupol energy correction           -0.006194 eV
 added-field ion interaction          0.000001 eV  (added to PSCEN)


 Broyden mixing:
  rms(total) = 0.15264E-01    rms(broyden)= 0.15264E-01
  rms(prec ) = 0.17098E-01
  weight for this iteration     100.00

 eigenvalues of (default mixing * dielectric matrix)
  average eigenvalue GAMMA=   1.2452
  2.3127  2.3127  1.1297  0.8726  0.8726  0.6082  0.6082

 Free energy of the ion-electron system (eV)
  ---------------------------------------------------
  alpha Z        PSCENC =        26.17663214
  Ewald energy   TEWEN  =      4196.34243665
  -Hartree energ DENC   =     -5537.26452361
  -exchange      EXHF   =         0.00000000
  -V(xc)+E(xc)   XCENC  =      -151.25853944
  PAW double counting   =      3001.46036288    -2778.74530844
  entropy T*S    EENTRO =        -0.00000000
  eigenvalues    EBANDS =      -231.35372643
  atomic energy  EATOM  =      1435.22174307
  Solvation  Ediel_sol  =         0.00000000
  ---------------------------------------------------
  free energy    TOTEN  =       -39.42092319 eV

  energy without entropy =      -39.42092319  energy(sigma->0) =      -39.42092319


--------------------------------------------------------------------------------------------------------




--------------------------------------- Iteration      1(  13)  ---------------------------------------


    POTLOK:  cpu time    0.0132: real time    0.0132
    SETDIJ:  cpu time    0.0020: real time    0.0020
     EDDAV:  cpu time    1.3140: real time    1.3145
       DOS:  cpu time    0.0011: real time    0.0011
    CHARGE:  cpu time    0.0437: real time    0.0437
    MIXING:  cpu time    0.0005: real time    0.0005
    --------------------------------------------
      LOOP:  cpu time    1.3746: real time    1.3751

 eigenvalue-minimisations  :  7104
 total energy-change (2. order) : 0.1224149E-03  (-0.2096050E-03)
 number of electron      36.0000000 magnetization 
 augmentation part       -1.7224296 magnetization 

 DIPCOR: dipole corrections for dipol
 direction  3 min pos     1,
 dipolmoment           0.000000      0.000000      0.163860 electrons x Angstroem
 Tr[quadrupol]      -125.196817

 energy correction for charged system         0.000000 eV
 dipol+quadrupol energy correction           -0.006140 eV
 added-field ion interaction          0.000001 eV  (added to PSCEN)


 Broyden mixing:
  rms(total) = 0.11538E-01    rms(broyden)= 0.11538E-01
  rms(prec ) = 0.13413E-01
  weight for this iteration     100.00

 eigenvalues of (default mixing * dielectric matrix)
  average eigenvalue GAMMA=   1.2149
  2.3371  2.3371  1.5514  1.0997  0.7159  0.6637  0.6637  0.3508

 Free energy of the ion-electron system (eV)
  ---------------------------------------------------
  alpha Z        PSCENC =        26.17668622
  Ewald energy   TEWEN  =      4196.34243665
  -Hartree energ DENC   =     -5537.75492106
  -exchange      EXHF   =         0.00000000
  -V(xc)+E(xc)   XCENC  =      -151.24669124
  PAW double counting   =      3002.02530174    -2779.31154378
  entropy T*S    EENTRO =        -0.00000000
  eigenvalues    EBANDS =      -230.87381237
  atomic energy  EATOM  =      1435.22174307
  Solvation  Ediel_sol  =         0.00000000
  ---------------------------------------------------
  free energy    TOTEN  =       -39.42080077 eV

  energy without entropy =      -39.42080077  energy(sigma->0) =      -39.42080077


--------------------------------------------------------------------------------------------------------




--------------------------------------- Iteration      1(  14)  ---------------------------------------


    POTLOK:  cpu time    0.0132: real time    0.0132
    SETDIJ:  cpu time    0.0020: real time    0.0020
     EDDAV:  cpu time    1.3045: real time    1.3049
       DOS:  cpu time    0.0010: real time    0.0010
    CHARGE:  cpu time    0.0440: real time    0.0440
[...]
     12      -4.4417      2.00000
     13      -3.4832      2.00000
     14      -3.4642      2.00000
     15      -2.6517      2.00000
     16      -2.3421      2.00000
     17      -2.0998      2.00000
     18      -1.9359      2.00000
     19       0.0873      0.00000
     20       0.1321      0.00000
     21       0.1957      0.00000
     22       0.3142      0.00000
     23       1.6951      0.00000
     24       1.7097      0.00000

 k-point    96 :       0.4737    0.4545    0.0000
  band No.  band energies     occupation 
      1     -13.7147      2.00000
      2     -13.7002      2.00000
      3     -12.2700      2.00000
      4     -12.2275      2.00000
      5      -7.4549      2.00000
      6      -7.4182      2.00000
      7      -6.2661      2.00000
      8      -6.2515      2.00000
      9      -5.2366      2.00000
     10      -5.2363      2.00000
     11      -4.4904      2.00000
     12      -4.4718      2.00000
     13      -3.4865      2.00000
     14      -3.4821      2.00000
     15      -2.4028      2.00000
     16      -2.2551      2.00000
     17      -2.0655      2.00000
     18      -1.9673      2.00000
     19       0.1138      0.00000
     20       0.1333      0.00000
     21       0.2602      0.00000
     22       0.3143      0.00000
     23       1.6822      0.00000
     24       1.6873      0.00000

 k-point    97 :      -0.4737    0.4545    0.0000
  band No.  band energies     occupation 
      1     -13.7147      2.00000
      2     -13.7002      2.00000
      3     -12.2700      2.00000
      4     -12.2275      2.00000
      5      -7.4549      2.00000
      6      -7.4182      2.00000
      7      -6.2661      2.00000
      8      -6.2515      2.00000
      9      -5.2366      2.00000
     10      -5.2363      2.00000
     11      -4.4904      2.00000
     12      -4.4718      2.00000
     13      -3.4865      2.00000
     14      -3.4821      2.00000
     15      -2.4028      2.00000
     16      -2.2551      2.00000
     17      -2.0655      2.00000
     18      -1.9673      2.00000
     19       0.1138      0.00000
     20       0.1333      0.00000
     21       0.2602      0.00000
     22       0.3143      0.00000
     23       1.6822      0.00000
     24       1.6873      0.00000

 k-point    98 :      -0.4211    0.4545    0.0000
  band No.  band energies     occupation 
      1     -13.7629      2.00000
      2     -13.7195      2.00000
      3     -12.4111      2.00000
      4     -12.2927      2.00000
      5      -7.3019      2.00000
      6      -7.2029      2.00000
      7      -6.2183      2.00000
      8      -6.1727      2.00000
      9      -5.2318      2.00000
     10      -5.2285      2.00000
     11      -4.5028      2.00000
     12      -4.4417      2.00000
     13      -3.4832      2.00000
     14      -3.4642      2.00000
     15      -2.6517      2.00000
     16      -2.3421      2.00000
     17      -2.0998      2.00000
     18      -1.9359      2.00000
     19       0.0873      0.00000
     20       0.1321      0.00000
     21       0.1957      0.00000
     22       0.3142      0.00000
     23       1.6951      0.00000
     24       1.7097      0.00000

 k-point    99 :      -0.3684    0.4545    0.0000
  band No.  band energies     occupation 
      1     -13.8414      2.00000
      2     -13.7697      2.00000
      3     -12.6145      2.00000
      4     -12.4407      2.00000
      5      -7.0026      2.00000
      6      -6.8705      2.00000
      7      -6.1043      2.00000
      8      -6.0208      2.00000
      9      -5.2326      2.00000
     10      -5.2161      2.00000
     11      -4.5305      2.00000
     12      -4.4203      2.00000
     13      -3.4469      2.00000
     14      -3.4074      2.00000
     15      -2.9378      2.00000
     16      -2.5714      2.00000
     17      -2.0966      2.00000
     18      -1.9644      2.00000
     19       0.0173      0.00000
     20       0.0205      0.00000
     21       0.2376      0.00000
     22       0.3006      0.00000
     23       1.5888      0.00000
     24       1.6295      0.00000

 k-point   100 :      -0.3158    0.4545    0.0000
  band No.  band energies     occupation 
      1     -13.9441      2.00000
      2     -13.8446      2.00000
      3     -12.8391      2.00000
      4     -12.6313      2.00000
      5      -6.6468      2.00000
      6      -6.5208      2.00000
      7      -5.9125      2.00000
      8      -5.7830      2.00000
      9      -5.2379      2.00000
     10      -5.2126      2.00000
     11      -4.5746      2.00000
     12      -4.4256      2.00000
     13      -3.3515      2.00000
     14      -3.3272      2.00000
     15      -3.1761      2.00000
     16      -2.8075      2.00000
     17      -2.0939      2.00000
     18      -2.0097      2.00000
     19      -0.1090      0.00000
     20      -0.1085      0.00000
     21       0.3034      0.00000
     22       0.3144      0.00000
     23       1.3756      0.00000
     24       1.4459      0.00000

 k-point   101 :      -0.2632    0.4545    0.0000
  band No.  band energies     occupation 
      1     -14.0620      2.00000
      2     -13.9356      2.00000
      3     -13.0533      2.00000
      4     -12.8280      2.00000
      5      -6.3477      2.00000
      6      -6.2547      2.00000
      7      -5.6464      2.00000
      8      -5.5393      2.00000
      9      -5.2253      2.00000
     10      -5.1569      2.00000
     11      -4.5958      2.00000
     12      -4.4411      2.00000
     13      -3.4301      2.00000
     14      -3.2177      2.00000
     15      -3.1329      2.00000
     16      -2.9998      2.00000
     17      -2.0558      2.00000
     18      -2.0288      2.00000
     19      -0.2386      0.00000
     20      -0.2133      0.00000
     21       0.3380      0.00000
     22       0.3662      0.00000
     23       1.1692      0.00000
     24       1.2121      0.00000

 k-point   102 :      -0.2105    0.4545    0.0000
  band No.  band energies     occupation 
      1     -14.1836      2.00000
      2     -14.0325      2.00000
      3     -13.2380      2.00000
      4     -13.0062      2.00000
      5      -6.1688      2.00000
      6      -6.1187      2.00000
      7      -5.4684      2.00000
      8      -5.4607      2.00000
      9      -5.1528      2.00000
     10      -4.8481      2.00000
     11      -4.5678      2.00000
     12      -4.4353      2.00000
     13      -3.4664      2.00000
     14      -3.1603      2.00000
     15      -3.0503      2.00000
     16      -3.0494      2.00000
     17      -2.0031      2.00000
     18      -1.9741      2.00000
     19      -0.3164      0.00000
     20      -0.2541      0.00000
     21       0.3575      0.00000
     22       0.4247      0.00000
     23       1.0058      0.00000
     24       1.0204      0.00000

 k-point   103 :      -0.1579    0.4545    0.0000
  band No.  band energies     occupation 
      1     -14.2959      2.00000
      2     -14.1238      2.00000
      3     -13.3839      2.00000
      4     -13.1516      2.00000
      5      -6.1153      2.00000
      6      -6.1093      2.00000
      7      -5.4567      2.00000
      8      -5.4151      2.00000
      9      -4.9495      2.00000
     10      -4.5422      2.00000
     11      -4.5120      2.00000
     12      -4.3856      2.00000
     13      -3.3168      2.00000
     14      -3.1855      2.00000
     15      -3.0453      2.00000
     16      -2.9579      2.00000
     17      -1.9691      2.00000
     18      -1.8943      2.00000
     19      -0.3056      0.00000
     20      -0.2064      0.00000
     21       0.3812      0.00000
     22       0.4960      0.00000
     23       0.8887      0.00000
     24       0.9731      0.00000

 k-point   104 :      -0.1053    0.4545    0.0000
  band No.  band energies     occupation 
      1     -14.3864      2.00000
      2     -14.1984      2.00000
      3     -13.4881      2.00000
      4     -13.2577      2.00000
      5      -6.1799      2.00000
      6      -6.1318      2.00000
      7      -5.4636      2.00000
      8      -5.3477      2.00000
      9      -4.8270      2.00000
     10      -4.4009      2.00000
     11      -4.3989      2.00000
     12      -4.2601      2.00000
     13      -3.1705      2.00000
     14      -3.1569      2.00000
     15      -3.0036      2.00000
     16      -2.8570      2.00000
     17      -1.9946      2.00000
     18      -1.8790      2.00000
     19      -0.2238      0.00000
     20      -0.1022      0.00000
     21       0.4328      0.00000
     22       0.5975      0.00000
     23       0.9028      0.00000
     24       1.0435      0.00000

 k-point   105 :      -0.0526    0.4545    0.0000
  band No.  band energies     occupation 
      1     -14.4448      2.00000
      2     -14.2472      2.00000
      3     -13.5504      2.00000
      4     -13.3217      2.00000
      5      -6.2414      2.00000
      6      -6.1740      2.00000
      7      -5.4614      2.00000
      8      -5.3017      2.00000
      9      -4.8009      2.00000
     10      -4.3528      2.00000
     11      -4.2420      2.00000
     12      -4.1377      2.00000
     13      -3.2544      2.00000
     14      -3.1740      2.00000
     15      -2.7395      2.00000
     16      -2.7354      2.00000
     17      -2.0966      2.00000
     18      -1.9262      2.00000
     19      -0.1467      0.00000
     20      -0.0216      0.00000
     21       0.5119      0.00000
     22       0.7085      0.00000
     23       1.0051      0.00000
     24       1.1708      0.00000


--------------------------------------------------------------------------------------------------------


 soft charge-density along one line, spin component           1
         0         1         2         3         4         5         6         7         8         9
 total charge-density along one line
 
 pseudopotential strength for first ion, spin component:           1
 -9.496   0.000   0.000  -0.002  -0.000  -9.687   0.000   0.000
  0.000  -9.504  -0.000  -0.000  -0.002   0.000  -9.695  -0.000
  0.000  -0.000  -9.493   0.000   0.001   0.000  -0.000  -9.684
 -0.002  -0.000   0.000  -9.505   0.000  -0.002  -0.000   0.000
 -0.000  -0.002   0.001   0.000  -9.496  -0.000  -0.002   0.001
 -9.687   0.000   0.000  -0.002  -0.000  -9.867   0.000   0.000
  0.000  -9.695  -0.000  -0.000  -0.002   0.000  -9.875  -0.000
  0.000  -0.000  -9.684   0.000   0.001   0.000  -0.000  -9.864
 -0.002  -0.000   0.000  -9.695   0.000  -0.002  -0.000   0.000
 -0.000  -0.002   0.001   0.000  -9.687  -0.000  -0.002   0.000
  0.000  -0.000   0.001  -0.000   0.000   0.000  -0.000   0.001
  0.000  -0.000   0.002  -0.000   0.001   0.000  -0.000   0.002
 -0.000  -0.029   0.000   0.000   0.007  -0.000  -0.029   0.000
  0.000  -0.000  -0.030  -0.000  -0.000   0.000  -0.000  -0.030
  0.007   0.000   0.000  -0.029  -0.000   0.007   0.000   0.000
 -0.000  -0.035   0.000   0.000   0.008  -0.000  -0.036   0.000
  0.000  -0.000  -0.037  -0.000  -0.000   0.000  -0.000  -0.038
  0.008   0.000   0.000  -0.035  -0.000   0.008   0.000   0.000
 total augmentation occupancy for first ion, spin component:           1
  2.103  -0.000  -0.000   0.434  -0.000  -2.488   0.000   0.000  -0.616   0.000  -0.000   0.000   0.000  -0.000  -0.321  -0.000
 -0.000   3.202   0.001   0.000   0.436   0.000  -4.166  -0.001  -0.000  -0.621   0.002  -0.000  -0.149   0.003  -0.000   0.029
 -0.000   0.001   1.550   0.000   0.001   0.000  -0.001  -1.749  -0.000  -0.001  -0.107   0.017   0.000   0.165   0.000  -0.000
  0.434   0.000   0.000   3.199   0.000  -0.617  -0.000  -0.000  -4.165  -0.000  -0.000   0.000  -0.000   0.000  -0.149   0.000
 -0.000   0.436   0.001   0.000   2.112   0.000  -0.621  -0.001  -0.000  -2.493   0.000  -0.000  -0.324   0.000  -0.000   0.048
 -2.488   0.000   0.000  -0.617   0.000   3.785  -0.000  -0.000   0.767  -0.000   0.000  -0.000  -0.000   0.000   0.390   0.000
  0.000  -4.166  -0.001  -0.000  -0.621  -0.000   5.990   0.001   0.000   0.773  -0.002   0.000   0.168  -0.004   0.000  -0.040
  0.000  -0.001  -1.749  -0.000  -0.001  -0.000   0.001   2.884   0.000   0.002   0.233  -0.019  -0.001  -0.138   0.000   0.000
 -0.616  -0.000  -0.000  -4.165  -0.000   0.767   0.000   0.000   5.989   0.000   0.000  -0.000   0.000  -0.000   0.168  -0.000
  0.000  -0.621  -0.001  -0.000  -2.493  -0.000   0.773   0.002   0.000   3.789  -0.002   0.000   0.393   0.000   0.000  -0.054
 -0.000   0.002  -0.107  -0.000   0.000   0.000  -0.002   0.233   0.000  -0.002   1.555  -0.100  -0.001   0.045   0.000   0.000
  0.000  -0.000   0.017   0.000  -0.000  -0.000   0.000  -0.019  -0.000   0.000  -0.100   0.008   0.000  -0.001   0.000  -0.000
  0.000  -0.149   0.000  -0.000  -0.324  -0.000   0.168  -0.001   0.000   0.393  -0.001   0.000   0.290  -0.000   0.000  -0.036
 -0.000   0.003   0.165   0.000   0.000   0.000  -0.004  -0.138  -0.000   0.000   0.045  -0.001  -0.000   0.356   0.000   0.000
 -0.321  -0.000   0.000  -0.149  -0.000   0.390   0.000   0.000   0.168   0.000   0.000   0.000   0.000   0.000   0.289  -0.000
 -0.000   0.029  -0.000   0.000   0.048   0.000  -0.040   0.000  -0.000  -0.054   0.000  -0.000  -0.036   0.000  -0.000   0.005
  0.000  -0.000  -0.018  -0.000  -0.000  -0.000   0.001   0.006   0.000  -0.000  -0.010   0.000   0.000  -0.044   0.000  -0.000
  0.048   0.000  -0.000   0.029  -0.000  -0.053  -0.000  -0.000  -0.040   0.000   0.000  -0.000  -0.000  -0.000  -0.036   0.000


------------------------ aborting loop because EDIFF is reached ----------------------------------------


    CHARGE:  cpu time    0.0426: real time    0.0426
    FORLOC:  cpu time    0.0004: real time    0.0004
    FORNL :  cpu time    0.0630: real time    0.0631
    STRESS:  cpu time    0.3235: real time    0.3236
    FORCOR:  cpu time    0.0140: real time    0.0140
    FORHAR:  cpu time    0.0025: real time    0.0025
    MIXING:  cpu time    0.0002: real time    0.0002
    OFIELD:  cpu time    0.0000: real time    0.0000

  FORCE on cell =-STRESS in cart. coord.  units (eV):
  Direction    XX          YY          ZZ          XY          YZ          ZX
  --------------------------------------------------------------------------------------
  Alpha Z    26.18282    26.18282    26.18282
  Ewald    5267.12815  5267.87822 -6343.25119     0.00000    -0.16078     0.00000
  Hartree  5475.43259  5475.70809 -5414.75682     0.00000    -0.06341     0.00000
  E(xc)    -145.44486  -145.46325  -147.24897     0.00000    -0.00122    -0.00000
  Local  -11298.86029-11299.87600 11189.53907    -0.00000     0.23125    -0.00000
  n-local   323.98859   323.93027   339.08230     0.00000    -0.01300     0.00000
  augment   -67.63686   -67.61136   -71.26023    -0.00000     0.00436    -0.00000
  Kinetic   419.32073   419.66477   421.70423    -0.00000     0.00339     0.00000
  Fock        0.00000     0.00000     0.00000     0.00000     0.00000     0.00000
  -------------------------------------------------------------------------------------
  Total       0.11088     0.41356    -0.00879    -0.00000     0.00059     0.00000
  in kB       0.44897     1.67456    -0.03561    -0.00000     0.00238     0.00000
  external pressure =        0.70 kB  Pullay stress =        0.00 kB


 VOLUME and BASIS-vectors are now :
 -----------------------------------------------------------------------------
  energy-cutoff  :      600.00
  volume of cell :      395.68
      direct lattice vectors                 reciprocal lattice vectors
     3.363599539  0.000000000  0.000000000     0.297300552  0.000000000  0.000000000
     0.000000000  5.808448050  0.000000000     0.000000000  0.172163027  0.000000000
     0.000000000  0.000000000 20.252588272     0.000000000  0.000000000  0.049376405

  length of vectors
     3.363599539  5.808448050 20.252588272     0.297300552  0.172163027  0.049376405


 FORCES acting on ions
    electron-ion (+dipol)            ewald-force                    non-local-force                 convergence-correction
 -----------------------------------------------------------------------------------------------
   -.319E-07 -.258E+00 -.380E+01   0.327E-07 0.256E+00 0.615E+01   -.160E-07 0.101E-02 -.235E+01   0.170E-08 0.982E-04 0.366E-03
   0.206E-06 -.257E+00 -.380E+01   -.187E-06 0.256E+00 0.615E+01   0.940E-08 0.101E-02 -.235E+01   -.313E-08 -.845E-04 0.301E-03
   -.319E-06 0.175E+00 -.468E+03   0.368E-06 -.168E+00 0.473E+03   0.656E-07 -.488E-02 -.554E+01   -.594E-09 -.132E-02 -.178E-03
   -.171E-07 0.172E+00 -.468E+03   0.331E-07 -.168E+00 0.473E+03   0.732E-08 -.506E-02 -.554E+01   -.324E-09 0.134E-02 0.606E-03
   0.287E-06 0.894E-01 0.475E+03   -.283E-06 -.875E-01 -.479E+03   -.104E-06 -.941E-03 0.457E+01   -.764E-09 -.930E-03 0.418E-03
   -.290E-07 0.887E-01 0.475E+03   0.367E-07 -.887E-01 -.479E+03   -.267E-07 -.106E-02 0.457E+01   -.541E-09 0.935E-03 -.198E-03
 -----------------------------------------------------------------------------------------------
   0.958E-07 0.100E-01 0.663E+01   -.458E-14 -.389E-15 -.568E-13   -.644E-07 -.992E-02 -.663E+01   -.365E-08 0.396E-04 0.131E-02
 
 
 POSITION                                       TOTAL-FORCE (eV/Angst)
 -----------------------------------------------------------------------------------
      1.68180      0.96888     10.26906        -0.000000     -0.000044     -0.000200
     -0.00000      3.87311     10.26905         0.000000     -0.000099      0.000044
      1.68180      4.83991     11.74374         0.000000      0.000206      0.000201
     -0.00000      1.93569     11.74374         0.000000      0.000178      0.000131
      1.68180      4.84002      8.36609        -0.000000     -0.000025     -0.000145
     -0.00000      1.93580      8.36609        -0.000000     -0.000216     -0.000032
 -----------------------------------------------------------------------------------
    total drift:                                0.000000      0.000121     -0.000175


--------------------------------------------------------------------------------------------------------



  FREE ENERGIE OF THE ION-ELECTRON SYSTEM (eV)
  ---------------------------------------------------
  free  energy   TOTEN  =       -39.42176353 eV

  energy  without entropy=      -39.42176353  energy(sigma->0) =      -39.42176353
 
 d Force = 0.4223068E-07[-0.151E-07, 0.996E-07]  d Energy = 0.2192382E-07 0.203E-07
 d Force =-0.1551442E-01[-0.155E-01,-0.155E-01]  d Ewald  =-0.1551442E-01 0.337E-10


--------------------------------------------------------------------------------------------------------


    POTLOK:  cpu time    0.0140: real time    0.0140


--------------------------------------------------------------------------------------------------------




--------------------------------------------------------------------------------------------------------


  
 reached required accuracy - stopping structural energy minimisation
     LOOP+:  cpu time    2.8220: real time    2.8818
    4ORBIT:  cpu time    0.0000: real time    0.0000

 total amount of memory used by VASP MPI-rank0    62837. kBytes
=======================================================================

   base      :      30000. kBytes
   nonl-proj :      25819. kBytes
   fftplans  :       1397. kBytes
   grid      :       2623. kBytes
   one-center:         15. kBytes
   wavefun   :       2983. kBytes
 
  
  
 General timing and accounting informations for this job:
 ========================================================
  
                  Total CPU time used (sec):       86.933
                            User time (sec):       83.854
                          System time (sec):        3.079
                         Elapsed time (sec):       87.552
  
                   Maximum memory used (kb):      175236.
                   Average memory used (kb):           0.
  
                          Minor page faults:        25117
                          Major page faults:         1019
                 Voluntary context switches:         2368
