 vasp.5.4.4.18Apr17-6-g9f103f2a35 (build Sep 16 2021 13:51:27) complex          
  
 executed on             LinuxIFC date 2023.03.16  11:28:57
 running on   24 total cores
 distrk:  each k-point on   24 cores,    1 groups
 distr:  one band on NCORES_PER_BAND=  24 cores,    1 groups


--------------------------------------------------------------------------------------------------------


 INCAR:
 POTCAR:    PAW_PBE Sn 08Apr2002                  
 POTCAR:    PAW_PBE Se 06Sep2000                  

 ----------------------------------------------------------------------------- 
|                                                                             |
|           W    W    AA    RRRRR   N    N  II  N    N   GGGG   !!!           |
|           W    W   A  A   R    R  NN   N  II  NN   N  G    G  !!!           |
|           W    W  A    A  R    R  N N  N  II  N N  N  G       !!!           |
|           W WW W  AAAAAA  RRRRR   N  N N  II  N  N N  G  GGG   !            |
|           WW  WW  A    A  R   R   N   NN  II  N   NN  G    G                |
|           W    W  A    A  R    R  N    N  II  N    N   GGGG   !!!           |
|                                                                             |
|      For optimal performance we recommend to set                            |
|        NCORE= 4 - approx SQRT( number of cores)                             |
|      NCORE specifies how many cores store one orbital (NPAR=cpu/NCORE).     |
|      This setting can  greatly improve the performance of VASP for DFT.     |
|      The default,   NCORE=1            might be grossly inefficient         |
|      on modern multi-core architectures or massively parallel machines.     |
|      Do your own testing !!!!                                               |
|      Unfortunately you need to use the default for GW and RPA calculations. |
|      (for HF NCORE is supported but not extensively tested yet)             |
|                                                                             |
 ----------------------------------------------------------------------------- 

 POTCAR:    PAW_PBE Sn 08Apr2002                  
   VRHFIN =Sn: s2p2                                                             
   LEXCH  = PE                                                                  
   EATOM  =    94.0860 eV,    6.9151 Ry                                         
                                                                                
   TITEL  = PAW_PBE Sn 08Apr2002                                                
   LULTRA =        F    use ultrasoft PP ?                                      
   IUNSCR =        1    unscreen: 0-lin 1-nonlin 2-no                           
   RPACOR =    2.000    partial core radius                                     
   POMASS =  118.710; ZVAL   =    4.000    mass and valenz                      
   RCORE  =    3.000    outmost cutoff radius                                   
   RWIGS  =    2.960; RWIGS  =    1.566    wigner-seitz radius (au A)           
   ENMAX  =  103.236; ENMIN  =   77.427 eV                                      
   ICORE  =        3    local potential                                         
   LCOR   =        T    correct aug charges                                     
   LPAW   =        T    paw PP                                                  
   EAUG   =  263.585                                                            
   DEXC   =    0.000                                                            
   RMAX   =    3.078    core radius for proj-oper                               
   RAUG   =    1.300    factor for augmentation sphere                          
   RDEP   =    3.022    radius for radial grids                                 
   RDEPT  =    2.655    core radius for aug-charge                              
                                                                                
   Atomic configuration                                                         
   13 entries                                                                   
     n  l   j            E        occ.                                          
     1  0  0.50    -29007.2859   2.0000                                         
     2  0  0.50     -4378.8056   2.0000                                         
     2  1  1.50     -3930.4293   6.0000                                         
     3  0  0.50      -845.0264   2.0000                                         
     3  1  1.50      -698.5725   6.0000                                         
     3  2  2.50      -473.2839  10.0000                                         
     4  0  0.50      -133.9036   2.0000                                         
     4  1  1.50       -89.6752   6.0000                                         
     4  2  2.50       -25.8375  10.0000                                         
     5  0  0.50       -10.5484   2.0000                                         
     5  1  0.50        -3.6940   2.0000                                         
     5  2  1.50        -1.3606   0.0000                                         
     4  3  2.50        -4.0817   0.0000                                         
   Description                                                                  
     l       E           TYP  RCUT    TYP  RCUT                                 
     0    -10.5483727     23  3.000                                             
     0     27.2116520     23  3.000                                             
     1     -3.6939829     23  3.000                                             
     1      1.9821976     23  3.000                                             
     2     -1.3605826     23  3.000                                             
     3     -2.7211652     23  3.000                                             
  local pseudopotential read in
  partial core-charges read in
  partial kinetic energy density read in
  atomic valenz-charges read in
  non local Contribution for L=           0  read in
    real space projection operators read in
  non local Contribution for L=           0  read in
    real space projection operators read in
  non local Contribution for L=           1  read in
    real space projection operators read in
  non local Contribution for L=           1  read in
    real space projection operators read in
  non local Contribution for L=           2  read in
    real space projection operators read in
    PAW grid and wavefunctions read in
 
   number of l-projection  operators is LMAX  =           5
   number of lm-projection operators is LMMAX =          13
 
 POTCAR:    PAW_PBE Se 06Sep2000                  
   VRHFIN =Se: s2p4                                                             
   LEXCH  = PE                                                                  
   EATOM  =   257.1286 eV,   18.8984 Ry                                         
                                                                                
   TITEL  = PAW_PBE Se 06Sep2000                                                
   LULTRA =        F    use ultrasoft PP ?                                      
   IUNSCR =        1    unscreen: 0-lin 1-nonlin 2-no                           
   RPACOR =    1.900    partial core radius                                     
   POMASS =   78.960; ZVAL   =    6.000    mass and valenz                      
   RCORE  =    2.100    outmost cutoff radius                                   
   RWIGS  =    2.200; RWIGS  =    1.164    wigner-seitz radius (au A)           
   ENMAX  =  211.555; ENMIN  =  158.666 eV                                      
   ICORE  =        3    local potential                                         
   LCOR   =        T    correct aug charges                                     
   LPAW   =        T    paw PP                                                  
   EAUG   =  446.842                                                            
   DEXC   =    0.000                                                            
   RMAX   =    2.147    core radius for proj-oper                               
   RAUG   =    1.300    factor for augmentation sphere                          
   RDEP   =    2.177    radius for radial grids                                 
   RDEPT  =    1.928    core radius for aug-charge                              
                                                                                
   Atomic configuration                                                         
   10 entries                                                                   
     n  l   j            E        occ.                                          
     1  0  0.50    -12503.4787   2.0000                                         
     2  0  0.50     -1606.9547   2.0000                                         
     2  1  1.50     -1413.3140   6.0000                                         
     3  0  0.50      -213.4885   2.0000                                         
     3  1  1.50      -152.9538   6.0000                                         
     3  2  2.50       -53.1221  10.0000                                         
     4  0  0.50       -17.2865   2.0000                                         
     4  1  0.50        -6.5110   4.0000                                         
     4  2  2.50        -6.8029   0.0000                                         
     4  3  2.50        -6.8029   0.0000                                         
   Description                                                                  
     l       E           TYP  RCUT    TYP  RCUT                                 
     0    -17.2865377     23  2.100                                             
     0    -15.3094411     23  2.100                                             
     1     -6.5110275     23  2.100                                             
     1     -0.0695192     23  2.100                                             
     2     -6.8029130     23  2.100                                             
     3     -1.3605826      7  2.100                                             
  local pseudopotential read in
  partial core-charges read in
  partial kinetic energy density read in
  atomic valenz-charges read in
  non local Contribution for L=           0  read in
    real space projection operators read in
  non local Contribution for L=           0  read in
    real space projection operators read in
  non local Contribution for L=           1  read in
    real space projection operators read in
  non local Contribution for L=           1  read in
    real space projection operators read in
  non local Contribution for L=           2  read in
    real space projection operators read in
    PAW grid and wavefunctions read in
 
   number of l-projection  operators is LMAX  =           5
   number of lm-projection operators is LMMAX =          13
 
 WARNING: PSMAXN for non-local potential too small
          PSMAXN should be >   12.5490833729506       NTYP=           1
  PAW_PBE Sn 08Apr2002                  :
 energy of atom  1       EATOM=  -94.0860
 kinetic energy error for atom=    0.0000 (will be added to EATOM!!)
  PAW_PBE Se 06Sep2000                  :
 energy of atom  2       EATOM= -257.1286
 kinetic energy error for atom=    0.0006 (will be added to EATOM!!)
 
 
 POSCAR:  POSCAR with strain of -0.010           
  positions in direct lattice
  No initial velocities read in
 exchange correlation table for  LEXCH =        8
   RHO(1)=    0.500       N(1)  =     2000
   RHO(2)=  100.500       N(2)  =     4000
 


--------------------------------------------------------------------------------------------------------


 ion  position               nearest neighbor table
   1  0.581  0.750  0.569-   4 2.72   3 2.89   3 2.92   3 3.19   3 3.22
   2  0.081  0.250  0.431-   3 2.72   4 2.89   4 2.92   4 3.19   4 3.22
   3  0.033  0.250  0.567-   2 2.72   1 2.89   1 2.92   1 3.19   1 3.22
   4  0.533  0.750  0.433-   1 2.72   2 2.89   2 2.92   2 3.19   2 3.22
 
  Warning from LATTYP: Monoclinic adjustement (A1->A3, A2->A1, A3->A2)!
  Warning from LATTYP: Got some problem with cell dimensions!
  Tried to take original basis but could not verify dimensions!
  LATTYP: Found a simple monoclinic cell.
 ALAT       =     6.0724653106
 B/A-ratio  =     3.2935552493
 C/A-ratio  =     1.5878433096
 COS(beta)  =    -0.9480722475
  
  Lattice vectors:
  
 A1 = (  -4.3170708080,  -4.2705660734,   0.0000000000)
 A2 = (   0.0000000000,   0.0000000000, -20.0000000000)
 A3 = (   8.6556040053,   4.2486542895,   0.0000000000)


Analysis of symmetry for initial positions (statically):
=====================================================================
 Subroutine PRICEL returns:
 Original cell was already a primitive cell.
 

 Routine SETGRP: Setting up the symmetry group for a 
 simple monoclinic supercell.


 Subroutine GETGRP returns: Found  2 space group operations
 (whereof  1 operations were pure point group operations)
 out of a pool of  4 trial point group operations.


The static configuration has the point symmetry C_1 .
 The point group associated with its full space group is C_1h.


Analysis of symmetry for dynamics (positions and initial velocities):
=====================================================================
 Subroutine PRICEL returns:
 Original cell was already a primitive cell.
 

 Routine SETGRP: Setting up the symmetry group for a 
 simple monoclinic supercell.


 Subroutine GETGRP returns: Found  2 space group operations
 (whereof  1 operations were pure point group operations)
 out of a pool of  4 trial point group operations.


The dynamic configuration has the point symmetry C_1 .
 The point group associated with its full space group is C_1h.


 Subroutine INISYM returns: Found  2 space group operations
 (whereof  1 operations are pure point group operations),
 and found     1 'primitive' translations

 
 
 KPOINTS: KMesh Grid                              

Automatic generation of k-mesh.
Space group operators:
 irot       det(A)        alpha          n_x          n_y          n_z        tau_x        tau_y        tau_z
    1     1.000000     0.000000     1.000000     0.000000     0.000000     0.000000     0.000000     0.000000
    2    -1.000000   180.000000     0.000000     0.000000     1.000000    -0.500000    -0.500000     0.000000
 
 Subroutine IBZKPT returns following result:
 ===========================================
 
 Found    113 irreducible k-points:
 
 Following reciprocal coordinates:
            Coordinates               Weight
  0.000000  0.000000  0.000000      1.000000
  0.066667  0.000000  0.000000      2.000000
  0.133333  0.000000  0.000000      2.000000
  0.200000  0.000000  0.000000      2.000000
  0.266667  0.000000  0.000000      2.000000
  0.333333 -0.000000  0.000000      2.000000
  0.400000  0.000000  0.000000      2.000000
  0.466667  0.000000  0.000000      2.000000
 -0.000000  0.066667  0.000000      2.000000
  0.066667  0.066667  0.000000      2.000000
  0.133333  0.066667  0.000000      2.000000
  0.200000  0.066667  0.000000      2.000000
  0.266667  0.066667  0.000000      2.000000
  0.333333  0.066667  0.000000      2.000000
  0.400000  0.066667  0.000000      2.000000
  0.466667  0.066667  0.000000      2.000000
 -0.466667  0.066667  0.000000      2.000000
 -0.400000  0.066667  0.000000      2.000000
 -0.333333  0.066667  0.000000      2.000000
 -0.266667  0.066667  0.000000      2.000000
 -0.200000  0.066667  0.000000      2.000000
 -0.133333  0.066667  0.000000      2.000000
 -0.066667  0.066667  0.000000      2.000000
  0.000000  0.133333  0.000000      2.000000
  0.066667  0.133333  0.000000      2.000000
  0.133333  0.133333  0.000000      2.000000
  0.200000  0.133333  0.000000      2.000000
  0.266667  0.133333  0.000000      2.000000
  0.333333  0.133333  0.000000      2.000000
  0.400000  0.133333  0.000000      2.000000
  0.466667  0.133333  0.000000      2.000000
 -0.466667  0.133333  0.000000      2.000000
 -0.400000  0.133333  0.000000      2.000000
 -0.333333  0.133333  0.000000      2.000000
 -0.266667  0.133333  0.000000      2.000000
 -0.200000  0.133333  0.000000      2.000000
 -0.133333  0.133333  0.000000      2.000000
 -0.066667  0.133333  0.000000      2.000000
 -0.000000  0.200000  0.000000      2.000000
  0.066667  0.200000  0.000000      2.000000
  0.133333  0.200000  0.000000      2.000000
  0.200000  0.200000  0.000000      2.000000
  0.266667  0.200000  0.000000      2.000000
  0.333333  0.200000  0.000000      2.000000
  0.400000  0.200000  0.000000      2.000000
  0.466667  0.200000  0.000000      2.000000
 -0.466667  0.200000  0.000000      2.000000
 -0.400000  0.200000  0.000000      2.000000
 -0.333333  0.200000  0.000000      2.000000
 -0.266667  0.200000  0.000000      2.000000
 -0.200000  0.200000  0.000000      2.000000
 -0.133333  0.200000  0.000000      2.000000
 -0.066667  0.200000  0.000000      2.000000
 -0.000000  0.266667  0.000000      2.000000
  0.066667  0.266667  0.000000      2.000000
  0.133333  0.266667  0.000000      2.000000
  0.200000  0.266667  0.000000      2.000000
  0.266667  0.266667  0.000000      2.000000
  0.333333  0.266667  0.000000      2.000000
  0.400000  0.266667  0.000000      2.000000
  0.466667  0.266667  0.000000      2.000000
 -0.466667  0.266667  0.000000      2.000000
 -0.400000  0.266667  0.000000      2.000000
 -0.333333  0.266667  0.000000      2.000000
 -0.266667  0.266667  0.000000      2.000000
 -0.200000  0.266667  0.000000      2.000000
 -0.133333  0.266667  0.000000      2.000000
 -0.066667  0.266667  0.000000      2.000000
 -0.000000  0.333333  0.000000      2.000000
  0.066667  0.333333  0.000000      2.000000
  0.133333  0.333333  0.000000      2.000000
  0.200000  0.333333  0.000000      2.000000
  0.266667  0.333333  0.000000      2.000000
  0.333333  0.333333  0.000000      2.000000
  0.400000  0.333333  0.000000      2.000000
  0.466667  0.333333  0.000000      2.000000
 -0.466667  0.333333  0.000000      2.000000
 -0.400000  0.333333  0.000000      2.000000
 -0.333333  0.333333  0.000000      2.000000
 -0.266667  0.333333  0.000000      2.000000
 -0.200000  0.333333  0.000000      2.000000
 -0.133333  0.333333  0.000000      2.000000
 -0.066667  0.333333  0.000000      2.000000
 -0.000000  0.400000  0.000000      2.000000
  0.066667  0.400000  0.000000      2.000000
  0.133333  0.400000  0.000000      2.000000
  0.200000  0.400000  0.000000      2.000000
  0.266667  0.400000  0.000000      2.000000
  0.333333  0.400000  0.000000      2.000000
  0.400000  0.400000  0.000000      2.000000
  0.466667  0.400000  0.000000      2.000000
 -0.466667  0.400000  0.000000      2.000000
 -0.400000  0.400000  0.000000      2.000000
 -0.333333  0.400000  0.000000      2.000000
 -0.266667  0.400000  0.000000      2.000000
 -0.200000  0.400000  0.000000      2.000000
 -0.133333  0.400000  0.000000      2.000000
 -0.066667  0.400000  0.000000      2.000000
 -0.000000  0.466667  0.000000      2.000000
  0.066667  0.466667  0.000000      2.000000
  0.133333  0.466667  0.000000      2.000000
  0.200000  0.466667  0.000000      2.000000
  0.266667  0.466667  0.000000      2.000000
  0.333333  0.466667  0.000000      2.000000
  0.400000  0.466667  0.000000      2.000000
  0.466667  0.466667  0.000000      2.000000
 -0.466667  0.466667  0.000000      2.000000
 -0.400000  0.466667  0.000000      2.000000
 -0.333333  0.466667  0.000000      2.000000
 -0.266667  0.466667  0.000000      2.000000
 -0.200000  0.466667  0.000000      2.000000
 -0.133333  0.466667  0.000000      2.000000
 -0.066667  0.466667  0.000000      2.000000
 
 Following cartesian coordinates:
            Coordinates               Weight
  0.000000  0.000000  0.000000      1.000000
  0.015367  0.000077  0.000000      2.000000
  0.030733  0.000154  0.000000      2.000000
  0.046100  0.000230  0.000000      2.000000
  0.061466  0.000307  0.000000      2.000000
  0.076833  0.000384  0.000000      2.000000
  0.092199  0.000461  0.000000      2.000000
  0.107566  0.000538  0.000000      2.000000
  0.000078  0.015531  0.000000      2.000000
  0.015445  0.015608  0.000000      2.000000
  0.030812  0.015685  0.000000      2.000000
  0.046178  0.015762  0.000000      2.000000
  0.061545  0.015839  0.000000      2.000000
  0.076911  0.015916  0.000000      2.000000
  0.092278  0.015992  0.000000      2.000000
  0.107644  0.016069  0.000000      2.000000
 -0.107488  0.014994  0.000000      2.000000
 -0.092121  0.015070  0.000000      2.000000
 -0.076754  0.015147  0.000000      2.000000
 -0.061388  0.015224  0.000000      2.000000
 -0.046021  0.015301  0.000000      2.000000
 -0.030655  0.015378  0.000000      2.000000
 -0.015288  0.015455  0.000000      2.000000
  0.000157  0.031063  0.000000      2.000000
  0.015523  0.031140  0.000000      2.000000
  0.030890  0.031217  0.000000      2.000000
  0.046257  0.031293  0.000000      2.000000
  0.061623  0.031370  0.000000      2.000000
  0.076990  0.031447  0.000000      2.000000
  0.092356  0.031524  0.000000      2.000000
  0.107723  0.031601  0.000000      2.000000
 -0.107409  0.030525  0.000000      2.000000
 -0.092043  0.030602  0.000000      2.000000
 -0.076676  0.030679  0.000000      2.000000
 -0.061309  0.030756  0.000000      2.000000
 -0.045943  0.030832  0.000000      2.000000
 -0.030576  0.030909  0.000000      2.000000
 -0.015210  0.030986  0.000000      2.000000
  0.000235  0.046594  0.000000      2.000000
  0.015602  0.046671  0.000000      2.000000
  0.030968  0.046748  0.000000      2.000000
  0.046335  0.046825  0.000000      2.000000
  0.061702  0.046902  0.000000      2.000000
  0.077068  0.046978  0.000000      2.000000
  0.092435  0.047055  0.000000      2.000000
  0.107801  0.047132  0.000000      2.000000
 -0.107331  0.046056  0.000000      2.000000
 -0.091964  0.046133  0.000000      2.000000
 -0.076597  0.046210  0.000000      2.000000
 -0.061231  0.046287  0.000000      2.000000
 -0.045864  0.046364  0.000000      2.000000
 -0.030498  0.046441  0.000000      2.000000
 -0.015131  0.046517  0.000000      2.000000
  0.000314  0.062126  0.000000      2.000000
  0.015680  0.062203  0.000000      2.000000
  0.031047  0.062279  0.000000      2.000000
  0.046413  0.062356  0.000000      2.000000
  0.061780  0.062433  0.000000      2.000000
  0.077147  0.062510  0.000000      2.000000
  0.092513  0.062587  0.000000      2.000000
  0.107880  0.062664  0.000000      2.000000
 -0.107252  0.061588  0.000000      2.000000
 -0.091886  0.061665  0.000000      2.000000
 -0.076519  0.061742  0.000000      2.000000
 -0.061152  0.061818  0.000000      2.000000
 -0.045786  0.061895  0.000000      2.000000
 -0.030419  0.061972  0.000000      2.000000
 -0.015053  0.062049  0.000000      2.000000
  0.000392  0.077657  0.000000      2.000000
  0.015759  0.077734  0.000000      2.000000
  0.031125  0.077811  0.000000      2.000000
  0.046492  0.077888  0.000000      2.000000
  0.061858  0.077965  0.000000      2.000000
  0.077225  0.078041  0.000000      2.000000
  0.092592  0.078118  0.000000      2.000000
  0.107958  0.078195  0.000000      2.000000
 -0.107174  0.077119  0.000000      2.000000
 -0.091807  0.077196  0.000000      2.000000
 -0.076441  0.077273  0.000000      2.000000
 -0.061074  0.077350  0.000000      2.000000
 -0.045707  0.077427  0.000000      2.000000
 -0.030341  0.077504  0.000000      2.000000
 -0.014974  0.077580  0.000000      2.000000
  0.000471  0.093189  0.000000      2.000000
  0.015837  0.093265  0.000000      2.000000
  0.031204  0.093342  0.000000      2.000000
  0.046570  0.093419  0.000000      2.000000
  0.061937  0.093496  0.000000      2.000000
  0.077303  0.093573  0.000000      2.000000
  0.092670  0.093650  0.000000      2.000000
  0.108037  0.093726  0.000000      2.000000
 -0.107095  0.092651  0.000000      2.000000
 -0.091729  0.092728  0.000000      2.000000
 -0.076362  0.092804  0.000000      2.000000
 -0.060996  0.092881  0.000000      2.000000
 -0.045629  0.092958  0.000000      2.000000
 -0.030262  0.093035  0.000000      2.000000
 -0.014896  0.093112  0.000000      2.000000
  0.000549  0.108720  0.000000      2.000000
  0.015916  0.108797  0.000000      2.000000
  0.031282  0.108874  0.000000      2.000000
  0.046649  0.108951  0.000000      2.000000
  0.062015  0.109027  0.000000      2.000000
  0.077382  0.109104  0.000000      2.000000
  0.092748  0.109181  0.000000      2.000000
  0.108115  0.109258  0.000000      2.000000
 -0.107017  0.108182  0.000000      2.000000
 -0.091650  0.108259  0.000000      2.000000
 -0.076284  0.108336  0.000000      2.000000
 -0.060917  0.108413  0.000000      2.000000
 -0.045551  0.108490  0.000000      2.000000
 -0.030184  0.108566  0.000000      2.000000
 -0.014817  0.108643  0.000000      2.000000
 


--------------------------------------------------------------------------------------------------------




 Dimension of arrays:
   k-points           NKPTS =    113   k-points in BZ     NKDIM =    113   number of bands    NBANDS=     14
   number of dos      NEDOS =    301   number of ions     NIONS =      4
   non local maximal  LDIM  =      5   non local SUM 2l+1 LMDIM =     13
   total plane-waves  NPLWV = 207360
   max r-space proj   IRMAX =      1   max aug-charges    IRDMAX=  53784
   dimension x,y,z NGX =    36 NGY =   36 NGZ =  160
   dimension x,y,z NGXF=    72 NGYF=   72 NGZF=  320
   support grid    NGXF=    72 NGYF=   72 NGZF=  320
   ions per type =               2   2
   NGX,Y,Z   is equivalent  to a cutoff of  13.79, 13.94, 13.30 a.u.
   NGXF,Y,Z  is equivalent  to a cutoff of  27.59, 27.88, 26.60 a.u.

 SYSTEM =  SnSe                                    
 POSCAR =   POSCAR with strain of -0.010           

 Startparameter for this run:
   NWRITE =      2    write-flag & timer
   PREC   = accura    normal or accurate (medium, high low for compatibility)
   ISTART =      0    job   : 0-new  1-cont  2-samecut
   ICHARG =      2    charge: 1-file 2-atom 10-const
   ISPIN  =      1    spin polarized calculation?
   LNONCOLLINEAR =      F non collinear calculations
   LSORBIT =      F    spin-orbit coupling
   INIWAV =      1    electr: 0-lowe 1-rand  2-diag
   LASPH  =      F    aspherical Exc in radial PAW
   METAGGA=      F    non-selfconsistent MetaGGA calc.

 Electronic Relaxation 1
   ENCUT  =  600.0 eV  44.10 Ry    6.64 a.u.   8.67  8.57 39.94*2*pi/ulx,y,z
   ENINI  =  600.0     initial cutoff
   ENAUG  =  446.8 eV  augmentation charge cutoff
   NELM   =     60;   NELMIN=  2; NELMDL= -5     # of ELM steps 
   EDIFF  = 0.1E-05   stopping-criterion for ELM
   LREAL  =      F    real-space projection
   NLSPLINE    = F    spline interpolate recip. space projectors
   LCOMPAT=      F    compatible to vasp.4.4
   GGA_COMPAT  = T    GGA compatible to vasp.4.4-vasp.4.6
   LMAXPAW     = -100 max onsite density
   LMAXMIX     =    2 max onsite mixed and CHGCAR
   VOSKOWN=      0    Vosko Wilk Nusair interpolation
   ROPT   =    0.00000   0.00000
 Ionic relaxation
   EDIFFG = -.1E-02   stopping-criterion for IOM
   NSW    =    100    number of steps for IOM
   NBLOCK =      1;   KBLOCK =    100    inner block; outer block 
   IBRION =      2    ionic relax: 0-MD 1-quasi-New 2-CG
   NFREE  =      1    steps in history (QN), initial steepest desc. (CG)
   ISIF   =      2    stress and relaxation
   IWAVPR =     11    prediction:  0-non 1-charg 2-wave 3-comb
   ISYM   =      2    0-nonsym 1-usesym 2-fastsym
   LCORR  =      T    Harris-Foulkes like correction to forces

   POTIM  = 0.5000    time-step for ionic-motion
   TEIN   =    0.0    initial temperature
   TEBEG  =    0.0;   TEEND  =   0.0 temperature during run
   SMASS  =  -3.00    Nose mass-parameter (am)
   estimated Nose-frequenzy (Omega)   =  0.10E-29 period in steps =****** mass=  -0.430E-27a.u.
   SCALEE = 1.0000    scale energy and forces
   NPACO  =    256;   APACO  = 16.0  distance and # of slots for P.C.
   PSTRESS=    0.0 pullay stress

  Mass of Ions in am
   POMASS = 118.71 78.96
  Ionic Valenz
   ZVAL   =   4.00  6.00
  Atomic Wigner-Seitz radii
   RWIGS  =  -1.00 -1.00
  virtual crystal weights 
   VCA    =   1.00  1.00
   NELECT =      20.0000    total number of electrons
   NUPDOWN=      -1.0000    fix difference up-down

 DOS related values:
   EMIN   =  10.00;   EMAX   =-10.00  energy-range for DOS
   EFERMI =   0.00
   ISMEAR =     0;   SIGMA  =   0.10  broadening in eV -4-tet -1-fermi 0-gaus

 Electronic relaxation 2 (details)
   IALGO  =     38    algorithm
   LDIAG  =      T    sub-space diagonalisation (order eigenvalues)
   LSUBROT=      F    optimize rotation matrix (better conditioning)
   TURBO    =      0    0=normal 1=particle mesh
   IRESTART =      0    0=no restart 2=restart with 2 vectors
   NREBOOT  =      0    no. of reboots
   NMIN     =      0    reboot dimension
   EREF     =   0.00    reference energy to select bands
   IMIX   =      4    mixing-type and parameters
     AMIX     =   0.40;   BMIX     =  1.00
     AMIX_MAG =   1.60;   BMIX_MAG =  1.00
     AMIN     =   0.10
     WC   =   100.;   INIMIX=   1;  MIXPRE=   1;  MAXMIX= -45

 Intra band minimization:
   WEIMIN = 0.0010     energy-eigenvalue tresh-hold
   EBREAK =  0.18E-07  absolut break condition
   DEPER  =   0.30     relativ break condition  

   TIME   =   0.40     timestep for ELM

  volume/ion in A,a.u.               =      93.11       628.36
  Fermi-wavevector in a.u.,A,eV,Ry     =   0.617630  1.167151  5.190166  0.381466
  Thomas-Fermi vector in A             =   1.675784
 
 Write flags
   LWAVE        =      T    write WAVECAR
   LDOWNSAMPLE  =      F    k-point downsampling of WAVECAR
   LCHARG       =      T    write CHGCAR
   LVTOT        =      F    write LOCPOT, total local potential
   LVHAR        =      F    write LOCPOT, Hartree potential only
   LELF         =      F    write electronic localiz. function (ELF)
   LORBIT       =      0    0 simple, 1 ext, 2 COOP (PROOUT), +10 PAW based schemes


 Dipole corrections
   LMONO  =      F    monopole corrections only (constant potential shift)
   LDIPOL =      F    correct potential (dipole corrections)
   IDIPOL =      0    1-x, 2-y, 3-z, 4-all directions 
   EPSILON=  1.0000000 bulk dielectric constant

 Exchange correlation treatment:
   GGA     =    PE    GGA type
   LEXCH   =     8    internal setting for exchange type
   VOSKOWN=      0    Vosko Wilk Nusair interpolation
   LHFCALC =     F    Hartree Fock is set to
   LHFONE  =     F    Hartree Fock one center treatment
   AEXX    =    0.0000 exact exchange contribution

 Linear response parameters
   LEPSILON=     F    determine dielectric tensor
   LRPA    =     F    only Hartree local field effects (RPA)
   LNABLA  =     F    use nabla operator in PAW spheres
   LVEL    =     F    velocity operator in full k-point grid
   LINTERFAST=   F  fast interpolation
   KINTER  =     0    interpolate to denser k-point grid
   CSHIFT  =0.1000    complex shift for real part using Kramers Kronig
   OMEGAMAX=  -1.0    maximum frequency
   DEG_THRESHOLD= 0.2000000E-02 threshold for treating states as degnerate
   RTIME   =   -0.100 relaxation time in fs
  (WPLASMAI=    0.000 imaginary part of plasma frequency in eV, 0.658/RTIME)
   DFIELD  = 0.0000000 0.0000000 0.0000000 field for delta impulse in time
 
 Orbital magnetization related:
   ORBITALMAG=     F  switch on orbital magnetization
   LCHIMAG   =     F  perturbation theory with respect to B field
   DQ        =  0.001000  dq finite difference perturbation B field
   LLRAUG    =     F  two centre corrections for induced B field



--------------------------------------------------------------------------------------------------------


 conjugate gradient relaxation of ions
 charge density and potential will be updated during run
 non-spin polarized calculation
 Variant of blocked Davidson
 Davidson routine will perform the subspace rotation
 perform sub-space diagonalisation
    after iterative eigenvector-optimisation
 modified Broyden-mixing scheme, WC =      100.0
 initial mixing is a Kerker type mixing with AMIX =  0.4000 and BMIX =      1.0000
 Hartree-type preconditioning will be used
 using additional bands            4
 reciprocal scheme for non local part
 use partial core corrections
 calculate Harris-corrections to forces 
   (improved forces if not selfconsistent)
 use gradient corrections 
 use of overlap-Matrix (Vanderbilt PP)
 Gauss-broadening in eV      SIGMA  =   0.10


--------------------------------------------------------------------------------------------------------


  energy-cutoff  :      600.00
  volume of cell :      372.45
      direct lattice vectors                 reciprocal lattice vectors
     4.338533197 -0.021911784  0.000000000     0.230498467  0.001152492  0.000000000
    -0.021462389  4.292477857  0.000000000     0.001176624  0.232971558  0.000000000
     0.000000000  0.000000000 20.000000000     0.000000000  0.000000000  0.050000000

  length of vectors
     4.338588530  4.292531513 20.000000000     0.230501349  0.232974529  0.050000000


 
 k-points in units of 2pi/SCALE and weight: KMesh Grid                              
   0.00000000  0.00000000  0.00000000       0.004
   0.01536656  0.00007683  0.00000000       0.009
   0.03073313  0.00015367  0.00000000       0.009
   0.04609969  0.00023050  0.00000000       0.009
   0.06146626  0.00030733  0.00000000       0.009
   0.07683282  0.00038416  0.00000000       0.009
   0.09219939  0.00046100  0.00000000       0.009
   0.10756595  0.00053783  0.00000000       0.009
   0.00007844  0.01553144  0.00000000       0.009
   0.01544501  0.01560827  0.00000000       0.009
   0.03081157  0.01568510  0.00000000       0.009
   0.04617814  0.01576194  0.00000000       0.009
   0.06154470  0.01583877  0.00000000       0.009
   0.07691126  0.01591560  0.00000000       0.009
   0.09227783  0.01599243  0.00000000       0.009
   0.10764439  0.01606927  0.00000000       0.009
  -0.10748751  0.01499361  0.00000000       0.009
  -0.09212095  0.01507044  0.00000000       0.009
  -0.07675438  0.01514727  0.00000000       0.009
  -0.06138782  0.01522411  0.00000000       0.009
  -0.04602125  0.01530094  0.00000000       0.009
  -0.03065469  0.01537777  0.00000000       0.009
  -0.01528812  0.01545460  0.00000000       0.009
   0.00015688  0.03106287  0.00000000       0.009
   0.01552345  0.03113971  0.00000000       0.009
   0.03089001  0.03121654  0.00000000       0.009
   0.04625658  0.03129337  0.00000000       0.009
   0.06162314  0.03137021  0.00000000       0.009
   0.07698971  0.03144704  0.00000000       0.009
   0.09235627  0.03152387  0.00000000       0.009
   0.10772283  0.03160070  0.00000000       0.009
  -0.10740907  0.03052504  0.00000000       0.009
  -0.09204250  0.03060188  0.00000000       0.009
  -0.07667594  0.03067871  0.00000000       0.009
  -0.06130937  0.03075554  0.00000000       0.009
  -0.04594281  0.03083238  0.00000000       0.009
  -0.03057625  0.03090921  0.00000000       0.009
  -0.01520968  0.03098604  0.00000000       0.009
   0.00023532  0.04659431  0.00000000       0.009
   0.01560189  0.04667114  0.00000000       0.009
   0.03096845  0.04674798  0.00000000       0.009
   0.04633502  0.04682481  0.00000000       0.009
   0.06170158  0.04690164  0.00000000       0.009
   0.07706815  0.04697848  0.00000000       0.009
   0.09243471  0.04705531  0.00000000       0.009
   0.10780128  0.04713214  0.00000000       0.009
  -0.10733063  0.04605648  0.00000000       0.009
  -0.09196406  0.04613331  0.00000000       0.009
  -0.07659750  0.04621015  0.00000000       0.009
  -0.06123093  0.04628698  0.00000000       0.009
  -0.04586437  0.04636381  0.00000000       0.009
  -0.03049780  0.04644065  0.00000000       0.009
  -0.01513124  0.04651748  0.00000000       0.009
   0.00031377  0.06212575  0.00000000       0.009
   0.01568033  0.06220258  0.00000000       0.009
   0.03104690  0.06227941  0.00000000       0.009
   0.04641346  0.06235625  0.00000000       0.009
   0.06178002  0.06243308  0.00000000       0.009
   0.07714659  0.06250991  0.00000000       0.009
   0.09251315  0.06258675  0.00000000       0.009
   0.10787972  0.06266358  0.00000000       0.009
  -0.10725219  0.06158792  0.00000000       0.009
  -0.09188562  0.06166475  0.00000000       0.009
  -0.07651906  0.06174158  0.00000000       0.009
  -0.06115249  0.06181842  0.00000000       0.009
  -0.04578593  0.06189525  0.00000000       0.009
  -0.03041936  0.06197208  0.00000000       0.009
  -0.01505280  0.06204892  0.00000000       0.009
   0.00039221  0.07765719  0.00000000       0.009
   0.01575877  0.07773402  0.00000000       0.009
   0.03112534  0.07781085  0.00000000       0.009
   0.04649190  0.07788768  0.00000000       0.009
   0.06185847  0.07796452  0.00000000       0.009
   0.07722503  0.07804135  0.00000000       0.009
   0.09259160  0.07811818  0.00000000       0.009
   0.10795816  0.07819502  0.00000000       0.009
  -0.10717374  0.07711936  0.00000000       0.009
  -0.09180718  0.07719619  0.00000000       0.009
  -0.07644061  0.07727302  0.00000000       0.009
  -0.06107405  0.07734985  0.00000000       0.009
  -0.04570749  0.07742669  0.00000000       0.009
  -0.03034092  0.07750352  0.00000000       0.009
  -0.01497436  0.07758035  0.00000000       0.009
   0.00047065  0.09318862  0.00000000       0.009
   0.01583721  0.09326546  0.00000000       0.009
   0.03120378  0.09334229  0.00000000       0.009
   0.04657034  0.09341912  0.00000000       0.009
   0.06193691  0.09349595  0.00000000       0.009
   0.07730347  0.09357279  0.00000000       0.009
   0.09267004  0.09364962  0.00000000       0.009
   0.10803660  0.09372645  0.00000000       0.009
  -0.10709530  0.09265079  0.00000000       0.009
  -0.09172874  0.09272763  0.00000000       0.009
  -0.07636217  0.09280446  0.00000000       0.009
  -0.06099561  0.09288129  0.00000000       0.009
  -0.04562904  0.09295812  0.00000000       0.009
  -0.03026248  0.09303496  0.00000000       0.009
  -0.01489591  0.09311179  0.00000000       0.009
   0.00054909  0.10872006  0.00000000       0.009
   0.01591566  0.10879689  0.00000000       0.009
   0.03128222  0.10887373  0.00000000       0.009
   0.04664878  0.10895056  0.00000000       0.009
   0.06201535  0.10902739  0.00000000       0.009
   0.07738191  0.10910422  0.00000000       0.009
   0.09274848  0.10918106  0.00000000       0.009
   0.10811504  0.10925789  0.00000000       0.009
  -0.10701686  0.10818223  0.00000000       0.009
  -0.09165030  0.10825906  0.00000000       0.009
  -0.07628373  0.10833590  0.00000000       0.009
  -0.06091717  0.10841273  0.00000000       0.009
  -0.04555060  0.10848956  0.00000000       0.009
  -0.03018404  0.10856639  0.00000000       0.009
  -0.01481747  0.10864323  0.00000000       0.009
 
 k-points in reciprocal lattice and weights: KMesh Grid                              
   0.00000000  0.00000000  0.00000000       0.004
   0.06666667  0.00000000  0.00000000       0.009
   0.13333333  0.00000000  0.00000000       0.009
   0.20000000  0.00000000  0.00000000       0.009
   0.26666667  0.00000000  0.00000000       0.009
   0.33333333 -0.00000000  0.00000000       0.009
   0.40000000  0.00000000  0.00000000       0.009
   0.46666667  0.00000000  0.00000000       0.009
  -0.00000000  0.06666667  0.00000000       0.009
   0.06666667  0.06666667  0.00000000       0.009
   0.13333333  0.06666667  0.00000000       0.009
   0.20000000  0.06666667  0.00000000       0.009
   0.26666667  0.06666667  0.00000000       0.009
   0.33333333  0.06666667  0.00000000       0.009
   0.40000000  0.06666667  0.00000000       0.009
   0.46666667  0.06666667  0.00000000       0.009
  -0.46666667  0.06666667  0.00000000       0.009
  -0.40000000  0.06666667  0.00000000       0.009
  -0.33333333  0.06666667  0.00000000       0.009
  -0.26666667  0.06666667  0.00000000       0.009
  -0.20000000  0.06666667  0.00000000       0.009
  -0.13333333  0.06666667  0.00000000       0.009
  -0.06666667  0.06666667  0.00000000       0.009
   0.00000000  0.13333333  0.00000000       0.009
   0.06666667  0.13333333  0.00000000       0.009
   0.13333333  0.13333333  0.00000000       0.009
   0.20000000  0.13333333  0.00000000       0.009
   0.26666667  0.13333333  0.00000000       0.009
   0.33333333  0.13333333  0.00000000       0.009
   0.40000000  0.13333333  0.00000000       0.009
   0.46666667  0.13333333  0.00000000       0.009
  -0.46666667  0.13333333  0.00000000       0.009
  -0.40000000  0.13333333  0.00000000       0.009
  -0.33333333  0.13333333  0.00000000       0.009
  -0.26666667  0.13333333  0.00000000       0.009
  -0.20000000  0.13333333  0.00000000       0.009
  -0.13333333  0.13333333  0.00000000       0.009
  -0.06666667  0.13333333  0.00000000       0.009
  -0.00000000  0.20000000  0.00000000       0.009
   0.06666667  0.20000000  0.00000000       0.009
   0.13333333  0.20000000  0.00000000       0.009
   0.20000000  0.20000000  0.00000000       0.009
   0.26666667  0.20000000  0.00000000       0.009
   0.33333333  0.20000000  0.00000000       0.009
   0.40000000  0.20000000  0.00000000       0.009
   0.46666667  0.20000000  0.00000000       0.009
  -0.46666667  0.20000000  0.00000000       0.009
  -0.40000000  0.20000000  0.00000000       0.009
  -0.33333333  0.20000000  0.00000000       0.009
  -0.26666667  0.20000000  0.00000000       0.009
  -0.20000000  0.20000000  0.00000000       0.009
  -0.13333333  0.20000000  0.00000000       0.009
  -0.06666667  0.20000000  0.00000000       0.009
  -0.00000000  0.26666667  0.00000000       0.009
   0.06666667  0.26666667  0.00000000       0.009
   0.13333333  0.26666667  0.00000000       0.009
   0.20000000  0.26666667  0.00000000       0.009
   0.26666667  0.26666667  0.00000000       0.009
   0.33333333  0.26666667  0.00000000       0.009
   0.40000000  0.26666667  0.00000000       0.009
   0.46666667  0.26666667  0.00000000       0.009
  -0.46666667  0.26666667  0.00000000       0.009
  -0.40000000  0.26666667  0.00000000       0.009
  -0.33333333  0.26666667  0.00000000       0.009
  -0.26666667  0.26666667  0.00000000       0.009
  -0.20000000  0.26666667  0.00000000       0.009
  -0.13333333  0.26666667  0.00000000       0.009
  -0.06666667  0.26666667  0.00000000       0.009
  -0.00000000  0.33333333  0.00000000       0.009
   0.06666667  0.33333333  0.00000000       0.009
   0.13333333  0.33333333  0.00000000       0.009
   0.20000000  0.33333333  0.00000000       0.009
   0.26666667  0.33333333  0.00000000       0.009
   0.33333333  0.33333333  0.00000000       0.009
   0.40000000  0.33333333  0.00000000       0.009
   0.46666667  0.33333333  0.00000000       0.009
  -0.46666667  0.33333333  0.00000000       0.009
  -0.40000000  0.33333333  0.00000000       0.009
  -0.33333333  0.33333333  0.00000000       0.009
  -0.26666667  0.33333333  0.00000000       0.009
  -0.20000000  0.33333333  0.00000000       0.009
  -0.13333333  0.33333333  0.00000000       0.009
  -0.06666667  0.33333333  0.00000000       0.009
  -0.00000000  0.40000000  0.00000000       0.009
   0.06666667  0.40000000  0.00000000       0.009
   0.13333333  0.40000000  0.00000000       0.009
   0.20000000  0.40000000  0.00000000       0.009
   0.26666667  0.40000000  0.00000000       0.009
   0.33333333  0.40000000  0.00000000       0.009
   0.40000000  0.40000000  0.00000000       0.009
   0.46666667  0.40000000  0.00000000       0.009
  -0.46666667  0.40000000  0.00000000       0.009
  -0.40000000  0.40000000  0.00000000       0.009
  -0.33333333  0.40000000  0.00000000       0.009
  -0.26666667  0.40000000  0.00000000       0.009
  -0.20000000  0.40000000  0.00000000       0.009
  -0.13333333  0.40000000  0.00000000       0.009
  -0.06666667  0.40000000  0.00000000       0.009
  -0.00000000  0.46666667  0.00000000       0.009
   0.06666667  0.46666667  0.00000000       0.009
   0.13333333  0.46666667  0.00000000       0.009
   0.20000000  0.46666667  0.00000000       0.009
   0.26666667  0.46666667  0.00000000       0.009
   0.33333333  0.46666667  0.00000000       0.009
   0.40000000  0.46666667  0.00000000       0.009
   0.46666667  0.46666667  0.00000000       0.009
  -0.46666667  0.46666667  0.00000000       0.009
  -0.40000000  0.46666667  0.00000000       0.009
  -0.33333333  0.46666667  0.00000000       0.009
  -0.26666667  0.46666667  0.00000000       0.009
  -0.20000000  0.46666667  0.00000000       0.009
  -0.13333333  0.46666667  0.00000000       0.009
  -0.06666667  0.46666667  0.00000000       0.009
 
 position of ions in fractional coordinates (direct lattice) 
   0.58124336  0.75000000  0.56874314
   0.08124336  0.25000000  0.43125686
   0.03286064  0.25000000  0.56707387
   0.53286061  0.75000000  0.43292613
 
 position of ions in cartesian coordinates  (Angst):
   2.50564681  3.20662231 11.37486283
   0.34711141  1.07133928  8.62513717
   0.13720139  1.07239943 11.34147733
   2.29573668  3.20768247  8.65852267
 


--------------------------------------------------------------------------------------------------------


 k-point  1 :   0.0000 0.0000 0.0000  plane waves:   12499
 k-point  2 :   0.0667 0.0000 0.0000  plane waves:   12469
 k-point  3 :   0.1333 0.0000 0.0000  plane waves:   12442
 k-point  4 :   0.2000 0.0000 0.0000  plane waves:   12432
 k-point  5 :   0.2667 0.0000 0.0000  plane waves:   12429
 k-point  6 :   0.3333-0.0000 0.0000  plane waves:   12434
 k-point  7 :   0.4000 0.0000 0.0000  plane waves:   12457
 k-point  8 :   0.4667 0.0000 0.0000  plane waves:   12464
 k-point  9 :  -0.0000 0.0667 0.0000  plane waves:   12465
 k-point 10 :   0.0667 0.0667 0.0000  plane waves:   12478
 k-point 11 :   0.1333 0.0667 0.0000  plane waves:   12440
 k-point 12 :   0.2000 0.0667 0.0000  plane waves:   12457
 k-point 13 :   0.2667 0.0667 0.0000  plane waves:   12455
 k-point 14 :   0.3333 0.0667 0.0000  plane waves:   12439
 k-point 15 :   0.4000 0.0667 0.0000  plane waves:   12459
 k-point 16 :   0.4667 0.0667 0.0000  plane waves:   12470
 k-point 17 :  -0.4667 0.0667 0.0000  plane waves:   12446
 k-point 18 :  -0.4000 0.0667 0.0000  plane waves:   12442
 k-point 19 :  -0.3333 0.0667 0.0000  plane waves:   12440
 k-point 20 :  -0.2667 0.0667 0.0000  plane waves:   12432
 k-point 21 :  -0.2000 0.0667 0.0000  plane waves:   12414
 k-point 22 :  -0.1333 0.0667 0.0000  plane waves:   12426
 k-point 23 :  -0.0667 0.0667 0.0000  plane waves:   12438
 k-point 24 :   0.0000 0.1333 0.0000  plane waves:   12456
 k-point 25 :   0.0667 0.1333 0.0000  plane waves:   12442
 k-point 26 :   0.1333 0.1333 0.0000  plane waves:   12461
 k-point 27 :   0.2000 0.1333 0.0000  plane waves:   12426
 k-point 28 :   0.2667 0.1333 0.0000  plane waves:   12461
 k-point 29 :   0.3333 0.1333 0.0000  plane waves:   12434
 k-point 30 :   0.4000 0.1333 0.0000  plane waves:   12446
 k-point 31 :   0.4667 0.1333 0.0000  plane waves:   12456
 k-point 32 :  -0.4667 0.1333 0.0000  plane waves:   12428
 k-point 33 :  -0.4000 0.1333 0.0000  plane waves:   12432
 k-point 34 :  -0.3333 0.1333 0.0000  plane waves:   12426
 k-point 35 :  -0.2667 0.1333 0.0000  plane waves:   12414
 k-point 36 :  -0.2000 0.1333 0.0000  plane waves:   12413
 k-point 37 :  -0.1333 0.1333 0.0000  plane waves:   12418
 k-point 38 :  -0.0667 0.1333 0.0000  plane waves:   12453
 k-point 39 :  -0.0000 0.2000 0.0000  plane waves:   12450
 k-point 40 :   0.0667 0.2000 0.0000  plane waves:   12458
 k-point 41 :   0.1333 0.2000 0.0000  plane waves:   12462
 k-point 42 :   0.2000 0.2000 0.0000  plane waves:   12444
 k-point 43 :   0.2667 0.2000 0.0000  plane waves:   12431
 k-point 44 :   0.3333 0.2000 0.0000  plane waves:   12426
 k-point 45 :   0.4000 0.2000 0.0000  plane waves:   12431
 k-point 46 :   0.4667 0.2000 0.0000  plane waves:   12431
 k-point 47 :  -0.4667 0.2000 0.0000  plane waves:   12428
 k-point 48 :  -0.4000 0.2000 0.0000  plane waves:   12424
 k-point 49 :  -0.3333 0.2000 0.0000  plane waves:   12426
 k-point 50 :  -0.2667 0.2000 0.0000  plane waves:   12432
 k-point 51 :  -0.2000 0.2000 0.0000  plane waves:   12427
 k-point 52 :  -0.1333 0.2000 0.0000  plane waves:   12434
 k-point 53 :  -0.0667 0.2000 0.0000  plane waves:   12439
 k-point 54 :  -0.0000 0.2667 0.0000  plane waves:   12440
 k-point 55 :   0.0667 0.2667 0.0000  plane waves:   12449
 k-point 56 :   0.1333 0.2667 0.0000  plane waves:   12454
 k-point 57 :   0.2000 0.2667 0.0000  plane waves:   12444
 k-point 58 :   0.2667 0.2667 0.0000  plane waves:   12417
 k-point 59 :   0.3333 0.2667 0.0000  plane waves:   12425
 k-point 60 :   0.4000 0.2667 0.0000  plane waves:   12417
 k-point 61 :   0.4667 0.2667 0.0000  plane waves:   12422
 k-point 62 :  -0.4667 0.2667 0.0000  plane waves:   12425
 k-point 63 :  -0.4000 0.2667 0.0000  plane waves:   12410
 k-point 64 :  -0.3333 0.2667 0.0000  plane waves:   12419
 k-point 65 :  -0.2667 0.2667 0.0000  plane waves:   12424
 k-point 66 :  -0.2000 0.2667 0.0000  plane waves:   12413
 k-point 67 :  -0.1333 0.2667 0.0000  plane waves:   12426
 k-point 68 :  -0.0667 0.2667 0.0000  plane waves:   12444
 k-point 69 :  -0.0000 0.3333 0.0000  plane waves:   12423
 k-point 70 :   0.0667 0.3333 0.0000  plane waves:   12435
 k-point 71 :   0.1333 0.3333 0.0000  plane waves:   12444
 k-point 72 :   0.2000 0.3333 0.0000  plane waves:   12438
 k-point 73 :   0.2667 0.3333 0.0000  plane waves:   12416
 k-point 74 :   0.3333 0.3333 0.0000  plane waves:   12396
 k-point 75 :   0.4000 0.3333 0.0000  plane waves:   12404
 k-point 76 :   0.4667 0.3333 0.0000  plane waves:   12422
 k-point 77 :  -0.4667 0.3333 0.0000  plane waves:   12408
 k-point 78 :  -0.4000 0.3333 0.0000  plane waves:   12411
 k-point 79 :  -0.3333 0.3333 0.0000  plane waves:   12417
 k-point 80 :  -0.2667 0.3333 0.0000  plane waves:   12402
 k-point 81 :  -0.2000 0.3333 0.0000  plane waves:   12423
 k-point 82 :  -0.1333 0.3333 0.0000  plane waves:   12435
 k-point 83 :  -0.0667 0.3333 0.0000  plane waves:   12431
 k-point 84 :  -0.0000 0.4000 0.0000  plane waves:   12408
 k-point 85 :   0.0667 0.4000 0.0000  plane waves:   12419
 k-point 86 :   0.1333 0.4000 0.0000  plane waves:   12423
 k-point 87 :   0.2000 0.4000 0.0000  plane waves:   12428
 k-point 88 :   0.2667 0.4000 0.0000  plane waves:   12407
 k-point 89 :   0.3333 0.4000 0.0000  plane waves:   12402
 k-point 90 :   0.4000 0.4000 0.0000  plane waves:   12402
 k-point 91 :   0.4667 0.4000 0.0000  plane waves:   12405
 k-point 92 :  -0.4667 0.4000 0.0000  plane waves:   12393
 k-point 93 :  -0.4000 0.4000 0.0000  plane waves:   12395
 k-point 94 :  -0.3333 0.4000 0.0000  plane waves:   12390
 k-point 95 :  -0.2667 0.4000 0.0000  plane waves:   12400
 k-point 96 :  -0.2000 0.4000 0.0000  plane waves:   12438
 k-point 97 :  -0.1333 0.4000 0.0000  plane waves:   12436
 k-point 98 :  -0.0667 0.4000 0.0000  plane waves:   12404
 k-point 99 :  -0.0000 0.4667 0.0000  plane waves:   12430
 k-point ** :   0.0667 0.4667 0.0000  plane waves:   12431
 k-point ** :   0.1333 0.4667 0.0000  plane waves:   12427
 k-point ** :   0.2000 0.4667 0.0000  plane waves:   12407
 k-point ** :   0.2667 0.4667 0.0000  plane waves:   12392
 k-point ** :   0.3333 0.4667 0.0000  plane waves:   12388
 k-point ** :   0.4000 0.4667 0.0000  plane waves:   12387
 k-point ** :   0.4667 0.4667 0.0000  plane waves:   12399
 k-point ** :  -0.4667 0.4667 0.0000  plane waves:   12385
 k-point ** :  -0.4000 0.4667 0.0000  plane waves:   12404
 k-point ** :  -0.3333 0.4667 0.0000  plane waves:   12371
 k-point ** :  -0.2667 0.4667 0.0000  plane waves:   12407
 k-point ** :  -0.2000 0.4667 0.0000  plane waves:   12416
 k-point ** :  -0.1333 0.4667 0.0000  plane waves:   12428
 k-point ** :  -0.0667 0.4667 0.0000  plane waves:   12415

 maximum and minimum number of plane-waves per node :       535      495

 maximum number of plane-waves:     12499
 maximum index in each direction: 
   IXMAX=    9   IYMAX=    8   IZMAX=   39
   IXMIN=   -9   IYMIN=   -9   IZMIN=  -39


 parallel 3D FFT for wavefunctions:
    minimum data exchange during FFTs selected (reduces bandwidth)
 parallel 3D FFT for charge:
    minimum data exchange during FFTs selected (reduces bandwidth)


 total amount of memory used by VASP MPI-rank0    63221. kBytes
=======================================================================

   base      :      30000. kBytes
   nonl-proj :      12467. kBytes
   fftplans  :       2678. kBytes
   grid      :       4349. kBytes
   one-center:          8. kBytes
   wavefun   :      13719. kBytes
 
     INWAV:  cpu time    0.0000: real time    0.0000
 Broyden mixing: mesh for mixing (old mesh)
   NGX = 17   NGY = 17   NGZ = 79
  (NGX  = 72   NGY  = 72   NGZ  =320)
  gives a total of  22831 points

 initial charge density was supplied:
 charge density of overlapping atoms calculated
 number of electron      20.0000000 magnetization 
 keeping initial charge density in first step


--------------------------------------------------------------------------------------------------------


 Maximum index for augmentation-charges         2248 (set IRDMAX)


--------------------------------------------------------------------------------------------------------


 First call to EWALD:  gamma=   0.246
 Maximum number of real-space cells 4x 4x 1
 Maximum number of reciprocal cells 2x 2x 7

    FEWALD:  cpu time    0.0014: real time    0.0023


--------------------------------------- Iteration      1(   1)  ---------------------------------------


    POTLOK:  cpu time    0.0502: real time    0.5888
    SETDIJ:  cpu time    0.0040: real time    0.0060
     EDDAV:  cpu time    2.3163: real time    2.3228
       DOS:  cpu time    0.0044: real time    0.0044
    --------------------------------------------
      LOOP:  cpu time    2.3749: real time    2.9221

 eigenvalue-minimisations  :  3164
 total energy-change (2. order) : 0.1442881E+03  (-0.6274534E+03)
 number of electron      20.0000000 magnetization 
 augmentation part       20.0000000 magnetization 

 Free energy of the ion-electron system (eV)
  ---------------------------------------------------
  alpha Z        PSCENC =         9.60046218
  Ewald energy   TEWEN  =      1169.00908503
  -Hartree energ DENC   =     -1771.09619782
  -exchange      EXHF   =         0.00000000
  -V(xc)+E(xc)   XCENC  =      -238.51795263
  PAW double counting   =       799.43158084     -524.17639913
  entropy T*S    EENTRO =        -0.01313506
  eigenvalues    EBANDS =        -2.37725249
  atomic energy  EATOM  =       702.42789710
  Solvation  Ediel_sol  =         0.00000000
  ---------------------------------------------------
  free energy    TOTEN  =       144.28808802 eV

  energy without entropy =      144.30122308  energy(sigma->0) =      144.29465555


--------------------------------------------------------------------------------------------------------




--------------------------------------- Iteration      1(   2)  ---------------------------------------


     EDDAV:  cpu time    3.2136: real time    3.2143
       DOS:  cpu time    0.0043: real time    0.0043
    --------------------------------------------
      LOOP:  cpu time    3.2179: real time    3.2186

 eigenvalue-minimisations  :  5152
 total energy-change (2. order) :-0.1395433E+03  (-0.1352441E+03)
 number of electron      20.0000000 magnetization 
 augmentation part       20.0000000 magnetization 

 Free energy of the ion-electron system (eV)
  ---------------------------------------------------
  alpha Z        PSCENC =         9.60046218
  Ewald energy   TEWEN  =      1169.00908503
  -Hartree energ DENC   =     -1771.09619782
  -exchange      EXHF   =         0.00000000
  -V(xc)+E(xc)   XCENC  =      -238.51795263
  PAW double counting   =       799.43158084     -524.17639913
  entropy T*S    EENTRO =        -0.00181447
  eigenvalues    EBANDS =      -141.93190152
  atomic energy  EATOM  =       702.42789710
  Solvation  Ediel_sol  =         0.00000000
  ---------------------------------------------------
  free energy    TOTEN  =         4.74475958 eV

  energy without entropy =        4.74657405  energy(sigma->0) =        4.74566682


--------------------------------------------------------------------------------------------------------




--------------------------------------- Iteration      1(   3)  ---------------------------------------


     EDDAV:  cpu time    2.7116: real time    2.7123
       DOS:  cpu time    0.0029: real time    0.0029
    --------------------------------------------
      LOOP:  cpu time    2.7144: real time    2.7151

 eigenvalue-minimisations  :  4078
 total energy-change (2. order) :-0.2071424E+02  (-0.2055941E+02)
 number of electron      20.0000000 magnetization 
 augmentation part       20.0000000 magnetization 

 Free energy of the ion-electron system (eV)
  ---------------------------------------------------
  alpha Z        PSCENC =         9.60046218
  Ewald energy   TEWEN  =      1169.00908503
  -Hartree energ DENC   =     -1771.09619782
  -exchange      EXHF   =         0.00000000
  -V(xc)+E(xc)   XCENC  =      -238.51795263
  PAW double counting   =       799.43158084     -524.17639913
  entropy T*S    EENTRO =        -0.00000000
  eigenvalues    EBANDS =      -162.64795468
  atomic energy  EATOM  =       702.42789710
  Solvation  Ediel_sol  =         0.00000000
  ---------------------------------------------------
  free energy    TOTEN  =       -15.96947911 eV

  energy without entropy =      -15.96947911  energy(sigma->0) =      -15.96947911


--------------------------------------------------------------------------------------------------------




--------------------------------------- Iteration      1(   4)  ---------------------------------------


     EDDAV:  cpu time    2.8427: real time    2.8433
       DOS:  cpu time    0.0030: real time    0.0030
    --------------------------------------------
      LOOP:  cpu time    2.8456: real time    2.8463

 eigenvalue-minimisations  :  4418
 total energy-change (2. order) :-0.7953415E+00  (-0.7932410E+00)
 number of electron      20.0000000 magnetization 
 augmentation part       20.0000000 magnetization 

 Free energy of the ion-electron system (eV)
  ---------------------------------------------------
  alpha Z        PSCENC =         9.60046218
  Ewald energy   TEWEN  =      1169.00908503
  -Hartree energ DENC   =     -1771.09619782
  -exchange      EXHF   =         0.00000000
  -V(xc)+E(xc)   XCENC  =      -238.51795263
  PAW double counting   =       799.43158084     -524.17639913
  entropy T*S    EENTRO =        -0.00000000
  eigenvalues    EBANDS =      -163.44329618
  atomic energy  EATOM  =       702.42789710
  Solvation  Ediel_sol  =         0.00000000
  ---------------------------------------------------
  free energy    TOTEN  =       -16.76482060 eV

  energy without entropy =      -16.76482060  energy(sigma->0) =      -16.76482060


--------------------------------------------------------------------------------------------------------




--------------------------------------- Iteration      1(   5)  ---------------------------------------


     EDDAV:  cpu time    2.7755: real time    2.7762
       DOS:  cpu time    0.0030: real time    0.0030
    CHARGE:  cpu time    0.2009: real time    0.2010
    MIXING:  cpu time    0.0019: real time    0.0023
    --------------------------------------------
      LOOP:  cpu time    2.9814: real time    2.9825

 eigenvalue-minimisations  :  4270
 total energy-change (2. order) :-0.1802351E-01  (-0.1800925E-01)
 number of electron      20.0000000 magnetization 
 augmentation part       -4.5257872 magnetization 

 Broyden mixing:
  rms(total) = 0.45628E+00    rms(broyden)= 0.45628E+00
  rms(prec ) = 0.49560E+00
  weight for this iteration     100.00

 Free energy of the ion-electron system (eV)
  ---------------------------------------------------
  alpha Z        PSCENC =         9.60046218
  Ewald energy   TEWEN  =      1169.00908503
  -Hartree energ DENC   =     -1771.09619782
  -exchange      EXHF   =         0.00000000
  -V(xc)+E(xc)   XCENC  =      -238.51795263
  PAW double counting   =       799.43158084     -524.17639913
  entropy T*S    EENTRO =        -0.00000000
  eigenvalues    EBANDS =      -163.46131969
  atomic energy  EATOM  =       702.42789710
  Solvation  Ediel_sol  =         0.00000000
  ---------------------------------------------------
  free energy    TOTEN  =       -16.78284411 eV

  energy without entropy =      -16.78284411  energy(sigma->0) =      -16.78284411


--------------------------------------------------------------------------------------------------------




--------------------------------------- Iteration      1(   6)  ---------------------------------------


    POTLOK:  cpu time    0.0390: real time    0.0390
    SETDIJ:  cpu time    0.0032: real time    0.0032
     EDDAV:  cpu time    2.6091: real time    2.6097
       DOS:  cpu time    0.0030: real time    0.0030
    CHARGE:  cpu time    0.1992: real time    0.1998
    MIXING:  cpu time    0.0018: real time    0.0020
    --------------------------------------------
      LOOP:  cpu time    2.8553: real time    2.8568

 eigenvalue-minimisations  :  3946
 total energy-change (2. order) : 0.4799838E+00  (-0.1207458E+00)
 number of electron      20.0000000 magnetization 
 augmentation part       -4.4935106 magnetization 

 Broyden mixing:
  rms(total) = 0.28062E+00    rms(broyden)= 0.28062E+00
  rms(prec ) = 0.28972E+00
  weight for this iteration     100.00

 eigenvalues of (default mixing * dielectric matrix)
  average eigenvalue GAMMA=   1.8379
  1.8379

 Free energy of the ion-electron system (eV)
  ---------------------------------------------------
  alpha Z        PSCENC =         9.60046218
  Ewald energy   TEWEN  =      1169.00908503
  -Hartree energ DENC   =     -1778.95136423
  -exchange      EXHF   =         0.00000000
  -V(xc)+E(xc)   XCENC  =      -238.03749681
  PAW double counting   =       926.72611146     -651.65837921
  entropy T*S    EENTRO =        -0.00000000
  eigenvalues    EBANDS =      -155.41917583
  atomic energy  EATOM  =       702.42789710
  Solvation  Ediel_sol  =         0.00000000
  ---------------------------------------------------
  free energy    TOTEN  =       -16.30286031 eV

  energy without entropy =      -16.30286031  energy(sigma->0) =      -16.30286031


--------------------------------------------------------------------------------------------------------




--------------------------------------- Iteration      1(   7)  ---------------------------------------


    POTLOK:  cpu time    0.0388: real time    0.0388
    SETDIJ:  cpu time    0.0031: real time    0.0031
     EDDAV:  cpu time    2.6864: real time    2.6871
       DOS:  cpu time    0.0030: real time    0.0030
    CHARGE:  cpu time    0.1990: real time    0.1990
    MIXING:  cpu time    0.0018: real time    0.0019
    --------------------------------------------
      LOOP:  cpu time    2.9321: real time    2.9329

 eigenvalue-minimisations  :  4150
 total energy-change (2. order) : 0.2902266E-01  (-0.3193377E-01)
 number of electron      20.0000000 magnetization 
 augmentation part       -4.4842657 magnetization 

 Broyden mixing:
  rms(total) = 0.10341E+00    rms(broyden)= 0.10341E+00
  rms(prec ) = 0.10888E+00
  weight for this iteration     100.00

 eigenvalues of (default mixing * dielectric matrix)
  average eigenvalue GAMMA=   1.7384
  1.3782  2.0985

 Free energy of the ion-electron system (eV)
  ---------------------------------------------------
  alpha Z        PSCENC =         9.60046218
  Ewald energy   TEWEN  =      1169.00908503
  -Hartree energ DENC   =     -1784.16264948
  -exchange      EXHF   =         0.00000000
  -V(xc)+E(xc)   XCENC  =      -237.70394038
  PAW double counting   =      1073.94654752     -799.02686250
  entropy T*S    EENTRO =        -0.00000000
  eigenvalues    EBANDS =      -150.36437712
  atomic energy  EATOM  =       702.42789710
  Solvation  Ediel_sol  =         0.00000000
  ---------------------------------------------------
  free energy    TOTEN  =       -16.27383766 eV

  energy without entropy =      -16.27383766  energy(sigma->0) =      -16.27383766


--------------------------------------------------------------------------------------------------------




--------------------------------------- Iteration      1(   8)  ---------------------------------------


    POTLOK:  cpu time    0.0388: real time    0.0388
    SETDIJ:  cpu time    0.0031: real time    0.0031
     EDDAV:  cpu time    2.8160: real time    2.8167
       DOS:  cpu time    0.0030: real time    0.0030
    CHARGE:  cpu time    0.1992: real time    0.1997
    MIXING:  cpu time    0.0019: real time    0.0019
    --------------------------------------------
      LOOP:  cpu time    3.0620: real time    3.0632

 eigenvalue-minimisations  :  4412
 total energy-change (2. order) : 0.1002267E-01  (-0.3964220E-02)
 number of electron      20.0000000 magnetization 
 augmentation part       -4.4884713 magnetization 

 Broyden mixing:
  rms(total) = 0.20384E-01    rms(broyden)= 0.20384E-01
  rms(prec ) = 0.27849E-01
  weight for this iteration     100.00

 eigenvalues of (default mixing * dielectric matrix)
  average eigenvalue GAMMA=   1.7185
  2.5405  1.3075  1.3075

 Free energy of the ion-electron system (eV)
  ---------------------------------------------------
  alpha Z        PSCENC =         9.60046218
  Ewald energy   TEWEN  =      1169.00908503
  -Hartree energ DENC   =     -1785.84415628
  -exchange      EXHF   =         0.00000000
  -V(xc)+E(xc)   XCENC  =      -237.62798024
  PAW double counting   =      1139.22905378     -864.34873902
  entropy T*S    EENTRO =        -0.00000000
  eigenvalues    EBANDS =      -148.70943755
  atomic energy  EATOM  =       702.42789710
  Solvation  Ediel_sol  =         0.00000000
  ---------------------------------------------------
  free energy    TOTEN  =       -16.26381499 eV

  energy without entropy =      -16.26381499  energy(sigma->0) =      -16.26381499


--------------------------------------------------------------------------------------------------------




--------------------------------------- Iteration      1(   9)  ---------------------------------------


    POTLOK:  cpu time    0.0390: real time    0.0390
    SETDIJ:  cpu time    0.0032: real time    0.0032
     EDDAV:  cpu time    2.8171: real time    2.8198
       DOS:  cpu time    0.0030: real time    0.0030
    CHARGE:  cpu time    0.1997: real time    0.1998
    MIXING:  cpu time    0.0020: real time    0.0020
    --------------------------------------------
      LOOP:  cpu time    3.0640: real time    3.0668

 eigenvalue-minimisations  :  4358
 total energy-change (2. order) : 0.3795351E-02  (-0.6684983E-03)
 number of electron      20.0000000 magnetization 
 augmentation part       -4.4865053 magnetization 

 Broyden mixing:
  rms(total) = 0.10093E-01    rms(broyden)= 0.10093E-01
  rms(prec ) = 0.15675E-01
  weight for this iteration     100.00

 eigenvalues of (default mixing * dielectric matrix)
  average eigenvalue GAMMA=   1.6977
  2.2015  2.2015  1.1939  1.1939

 Free energy of the ion-electron system (eV)
  ---------------------------------------------------
  alpha Z        PSCENC =         9.60046218
  Ewald energy   TEWEN  =      1169.00908503
  -Hartree energ DENC   =     -1787.86062884
  -exchange      EXHF   =         0.00000000
  -V(xc)+E(xc)   XCENC  =      -237.55401893
  PAW double counting   =      1157.84130043     -882.97353989
  entropy T*S    EENTRO =        -0.00000000
  eigenvalues    EBANDS =      -146.75057672
  atomic energy  EATOM  =       702.42789710
  Solvation  Ediel_sol  =         0.00000000
  ---------------------------------------------------
  free energy    TOTEN  =       -16.26001964 eV

  energy without entropy =      -16.26001964  energy(sigma->0) =      -16.26001964


--------------------------------------------------------------------------------------------------------




--------------------------------------- Iteration      1(  10)  ---------------------------------------


    POTLOK:  cpu time    0.0394: real time    0.0394
    SETDIJ:  cpu time    0.0031: real time    0.0031
     EDDAV:  cpu time    2.8297: real time    2.8304
       DOS:  cpu time    0.0030: real time    0.0030
    CHARGE:  cpu time    0.1991: real time    0.1992
    MIXING:  cpu time    0.0020: real time    0.0020
    --------------------------------------------
      LOOP:  cpu time    3.0763: real time    3.0771

 eigenvalue-minimisations  :  4358
 total energy-change (2. order) : 0.1238349E-02  (-0.1168658E-03)
 number of electron      20.0000000 magnetization 
 augmentation part       -4.4852629 magnetization 

 Broyden mixing:
  rms(total) = 0.52033E-02    rms(broyden)= 0.52033E-02
  rms(prec ) = 0.94979E-02
  weight for this iteration     100.00

 eigenvalues of (default mixing * dielectric matrix)
  average eigenvalue GAMMA=   1.8777
  3.3821  2.5970  1.2488  1.2488  0.9117

 Free energy of the ion-electron system (eV)
  ---------------------------------------------------
  alpha Z        PSCENC =         9.60046218
  Ewald energy   TEWEN  =      1169.00908503
  -Hartree energ DENC   =     -1789.11315147
  -exchange      EXHF   =         0.00000000
  -V(xc)+E(xc)   XCENC  =      -237.54360360
  PAW double counting   =      1147.10657081     -872.22826939
  entropy T*S    EENTRO =        -0.00000000
  eigenvalues    EBANDS =      -145.51777195
  atomic energy  EATOM  =       702.42789710
  Solvation  Ediel_sol  =         0.00000000
  ---------------------------------------------------
  free energy    TOTEN  =       -16.25878129 eV

  energy without entropy =      -16.25878129  energy(sigma->0) =      -16.25878129


--------------------------------------------------------------------------------------------------------




--------------------------------------- Iteration      1(  11)  ---------------------------------------


    POTLOK:  cpu time    0.0393: real time    0.0394
    SETDIJ:  cpu time    0.0032: real time    0.0032
     EDDAV:  cpu time    2.7694: real time    2.7701
       DOS:  cpu time    0.0030: real time    0.0030
    CHARGE:  cpu time    0.1987: real time    0.1988
    MIXING:  cpu time    0.0020: real time    0.0020
    --------------------------------------------
      LOOP:  cpu time    3.0156: real time    3.0164

 eigenvalue-minimisations  :  4286
 total energy-change (2. order) : 0.7482603E-03  (-0.1329683E-03)
 number of electron      20.0000000 magnetization 
 augmentation part       -4.4838214 magnetization 

 Broyden mixing:
  rms(total) = 0.33419E-02    rms(broyden)= 0.33419E-02
  rms(prec ) = 0.50222E-02
  weight for this iteration     100.00

 eigenvalues of (default mixing * dielectric matrix)
  average eigenvalue GAMMA=   1.8532
  3.4068  2.2152  2.2152  1.2017  1.2017  0.8790

 Free energy of the ion-electron system (eV)
  ---------------------------------------------------
  alpha Z        PSCENC =         9.60046218
  Ewald energy   TEWEN  =      1169.00908503
  -Hartree energ DENC   =     -1790.77264523
  -exchange      EXHF   =         0.00000000
  -V(xc)+E(xc)   XCENC  =      -237.51124681
  PAW double counting   =      1148.53140227     -873.65206063
  entropy T*S    EENTRO =        -0.00000000
  eigenvalues    EBANDS =      -143.89092694
  atomic energy  EATOM  =       702.42789710
  Solvation  Ediel_sol  =         0.00000000
  ---------------------------------------------------
  free energy    TOTEN  =       -16.25803303 eV

  energy without entropy =      -16.25803303  energy(sigma->0) =      -16.25803303


--------------------------------------------------------------------------------------------------------




--------------------------------------- Iteration      1(  12)  ---------------------------------------


    POTLOK:  cpu time    0.0394: real time    0.0394
    SETDIJ:  cpu time    0.0031: real time    0.0031
     EDDAV:  cpu time    2.4237: real time    2.4243
       DOS:  cpu time    0.0030: real time    0.0030
    CHARGE:  cpu time    0.1986: real time    0.1986
    MIXING:  cpu time    0.0021: real time    0.0021
    --------------------------------------------
      LOOP:  cpu time    2.6698: real time    2.6705

 eigenvalue-minimisations  :  3566
 total energy-change (2. order) :-0.8401678E-03  (-0.3136219E-04)
 number of electron      20.0000000 magnetization 
 augmentation part       -4.4831854 magnetization 

 Broyden mixing:
  rms(total) = 0.19361E-02    rms(broyden)= 0.19361E-02
  rms(prec ) = 0.28839E-02
  weight for this iteration     100.00

 eigenvalues of (default mixing * dielectric matrix)
  average eigenvalue GAMMA=   2.0718
  4.5982  3.0987  2.5024  1.2162  1.2162  1.0299  0.8413

 Free energy of the ion-electron system (eV)
  ---------------------------------------------------
  alpha Z        PSCENC =         9.60046218
  Ewald energy   TEWEN  =      1169.00908503
  -Hartree energ DENC   =     -1791.40363225
  -exchange      EXHF   =         0.00000000
  -V(xc)+E(xc)   XCENC  =      -237.50167508
  PAW double counting   =      1150.54141293     -875.66508558
  entropy T*S    EENTRO =        -0.00000000
  eigenvalues    EBANDS =      -143.26733753
  atomic energy  EATOM  =       702.42789710
  Solvation  Ediel_sol  =         0.00000000
  ---------------------------------------------------
  free energy    TOTEN  =       -16.25887320 eV

  energy without entropy =      -16.25887320  energy(sigma->0) =      -16.25887320


--------------------------------------------------------------------------------------------------------




--------------------------------------- Iteration      1(  13)  ---------------------------------------


    POTLOK:  cpu time    0.0396: real time    0.0396
    SETDIJ:  cpu time    0.0032: real time    0.0032
     EDDAV:  cpu time    2.4889: real time    2.4896
       DOS:  cpu time    0.0030: real time    0.0030
    CHARGE:  cpu time    0.1987: real time    0.1987
    MIXING:  cpu time    0.0021: real time    0.0021
    --------------------------------------------
      LOOP:  cpu time    2.7354: real time    2.7362

 eigenvalue-minimisations  :  3704
 total energy-change (2. order) :-0.4252464E-03  (-0.8186870E-05)
 number of electron      20.0000000 magnetization 
 augmentation part       -4.4829965 magnetization 

 Broyden mixing:
  rms(total) = 0.11972E-02    rms(broyden)= 0.11972E-02
  rms(prec ) = 0.15613E-02
  weight for this iteration     100.00

 eigenvalues of (default mixing * dielectric matrix)
  average eigenvalue GAMMA=   2.2355
  5.6017  3.3091  2.4715  2.1984  1.1687  1.1687  1.0540  0.9119

 Free energy of the ion-electron system (eV)
  ---------------------------------------------------
  alpha Z        PSCENC =         9.60046218
  Ewald energy   TEWEN  =      1169.00908503
  -Hartree energ DENC   =     -1791.80740624
  -exchange      EXHF   =         0.00000000
  -V(xc)+E(xc)   XCENC  =      -237.50073841
  PAW double counting   =      1149.24228068     -874.36461204
  entropy T*S    EENTRO =        -0.00000000
  eigenvalues    EBANDS =      -142.86626674
  atomic energy  EATOM  =       702.42789710
  Solvation  Ediel_sol  =         0.00000000
  ---------------------------------------------------
  free energy    TOTEN  =       -16.25929844 eV

  energy without entropy =      -16.25929844  energy(sigma->0) =      -16.25929844


--------------------------------------------------------------------------------------------------------




--------------------------------------- Iteration      1(  14)  ---------------------------------------


    POTLOK:  cpu time    0.0406: real time    0.0406
    SETDIJ:  cpu time    0.0031: real time    0.0031
     EDDAV:  cpu time    2.6030: real time    2.6037
       DOS:  cpu time    0.0030: real time    0.0030
    CHARGE:  cpu time    0.2022: real time    0.2023
    MIXING:  cpu time    0.0022: real time    0.0022
    --------------------------------------------
      LOOP:  cpu time    2.8542: real time    2.8550

 eigenvalue-minimisations  :  3926
 total energy-change (2. order) :-0.2648830E-03  (-0.4367789E-05)
 number of electron      20.0000000 magnetization 
 augmentation part       -4.4829740 magnetization 

 Broyden mixing:
  rms(total) = 0.41382E-03    rms(broyden)= 0.41382E-03
  rms(prec ) = 0.63202E-03
  weight for this iteration     100.00

 eigenvalues of (default mixing * dielectric matrix)
  average eigenvalue GAMMA=   2.2426
  6.7314  3.0735  2.5264  2.5264  1.1921  1.1921  1.0658  0.9378  0.9378

 Free energy of the ion-electron system (eV)
  ---------------------------------------------------
  alpha Z        PSCENC =         9.60046218
  Ewald energy   TEWEN  =      1169.00908503
  -Hartree energ DENC   =     -1792.01684000
  -exchange      EXHF   =         0.00000000
  -V(xc)+E(xc)   XCENC  =      -237.50061249
  PAW double counting   =      1149.52813246     -874.64986195
  entropy T*S    EENTRO =        -0.00000000
  eigenvalues    EBANDS =      -142.65782565
  atomic energy  EATOM  =       702.42789710
  Solvation  Ediel_sol  =         0.00000000
  ---------------------------------------------------
  free energy    TOTEN  =       -16.25956333 eV

  energy without entropy =      -16.25956333  energy(sigma->0) =      -16.25956333


--------------------------------------------------------------------------------------------------------




--------------------------------------- Iteration      1(  15)  ---------------------------------------


    POTLOK:  cpu time    0.0405: real time    0.0406
    SETDIJ:  cpu time    0.0031: real time    0.0031
     EDDAV:  cpu time    2.5629: real time    2.5636
       DOS:  cpu time    0.0031: real time    0.0031
    CHARGE:  cpu time    0.1994: real time    0.1994
    MIXING:  cpu time    0.0023: real time    0.0023
    --------------------------------------------
      LOOP:  cpu time    2.8114: real time    2.8120

 eigenvalue-minimisations  :  3810
 total energy-change (2. order) :-0.5489874E-04  (-0.2051437E-06)
 number of electron      20.0000000 magnetization 
 augmentation part       -4.4829910 magnetization 

 Broyden mixing:
  rms(total) = 0.34062E-03    rms(broyden)= 0.34062E-03
  rms(prec ) = 0.51256E-03
  weight for this iteration     100.00

 eigenvalues of (default mixing * dielectric matrix)
  average eigenvalue GAMMA=   2.3605
  6.5349  4.2963  2.7072  2.7072  1.9854  1.1468  1.1468  1.2077  0.9362  0.9362

 Free energy of the ion-electron system (eV)
  ---------------------------------------------------
  alpha Z        PSCENC =         9.60046218
  Ewald energy   TEWEN  =      1169.00908503
  -Hartree energ DENC   =     -1792.03094431
  -exchange      EXHF   =         0.00000000
  -V(xc)+E(xc)   XCENC  =      -237.50089768
  PAW double counting   =      1149.38108962     -874.50273086
  entropy T*S    EENTRO =        -0.00000000
  eigenvalues    EBANDS =      -142.64357930
  atomic energy  EATOM  =       702.42789710
  Solvation  Ediel_sol  =         0.00000000
  ---------------------------------------------------
  free energy    TOTEN  =       -16.25961822 eV

  energy without entropy =      -16.25961822  energy(sigma->0) =      -16.25961822


--------------------------------------------------------------------------------------------------------




--------------------------------------- Iteration      1(  16)  ---------------------------------------


    POTLOK:  cpu time    0.0396: real time    0.0396
    SETDIJ:  cpu time    0.0032: real time    0.0032
     EDDAV:  cpu time    2.3759: real time    2.3764
       DOS:  cpu time    0.0030: real time    0.0030
    CHARGE:  cpu time    0.2061: real time    0.2062
    MIXING:  cpu time    0.0021: real time    0.0021
    --------------------------------------------
      LOOP:  cpu time    2.6299: real time    2.6306

[...]
  band No.  band energies     occupation 
      1     -14.5459      2.00000
      2     -14.2734      2.00000
      3      -8.7848      2.00000
      4      -8.5814      2.00000
      5      -6.0931      2.00000
      6      -5.1269      2.00000
      7      -4.7657      2.00000
      8      -4.0815      2.00000
      9      -3.9217      2.00000
     10      -3.0763      2.00000
     11       0.1727      0.00000
     12       1.1204      0.00000
     13       1.2387      0.00000
     14       1.6467      0.00000

 k-point    96 :      -0.2000    0.4000    0.0000
  band No.  band energies     occupation 
      1     -14.6178      2.00000
      2     -14.3014      2.00000
      3      -8.9651      2.00000
      4      -8.6909      2.00000
      5      -5.6248      2.00000
      6      -4.8202      2.00000
      7      -4.5273      2.00000
      8      -3.9390      2.00000
      9      -3.5076      2.00000
     10      -2.6953      2.00000
     11      -0.3037      0.00000
     12       0.6485      0.00000
     13       0.7294      0.00000
     14       1.2666      0.00000

 k-point    97 :      -0.1333    0.4000    0.0000
  band No.  band energies     occupation 
      1     -14.6748      2.00000
      2     -14.3288      2.00000
      3      -9.1048      2.00000
      4      -8.7827      2.00000
      5      -5.0765      2.00000
      6      -4.7507      2.00000
      7      -4.1239      2.00000
      8      -3.8938      2.00000
      9      -2.8935      2.00000
     10      -2.4436      2.00000
     11      -0.6052      0.00000
     12      -0.1018      0.00000
     13       0.4952      0.00000
     14       0.8641      0.00000

 k-point    98 :      -0.0667    0.4000    0.0000
  band No.  band energies     occupation 
      1     -14.7106      2.00000
      2     -14.3488      2.00000
      3      -9.1934      2.00000
      4      -8.8441      2.00000
      5      -4.7590      2.00000
      6      -4.5141      2.00000
      7      -3.9185      2.00000
      8      -3.6929      2.00000
      9      -2.5995      2.00000
     10      -2.2759      2.00000
     11      -0.7213      0.00000
     12      -0.3672      0.00000
     13       0.2915      0.00000
     14       0.3713      0.00000

 k-point    99 :      -0.0000    0.4667    0.0000
  band No.  band energies     occupation 
      1     -14.5755      2.00000
      2     -14.4501      2.00000
      3      -9.2135      2.00000
      4      -9.0901      2.00000
      5      -4.5128      2.00000
      6      -4.2798      2.00000
      7      -3.7921      2.00000
      8      -3.5903      2.00000
      9      -2.4726      2.00000
     10      -2.1038      2.00000
     11      -0.8573      0.00000
     12      -0.3997      0.00000
     13      -0.0581      0.00000
     14       0.1448      0.00000

 k-point   100 :       0.0667    0.4667    0.0000
  band No.  band energies     occupation 
      1     -14.5625      2.00000
      2     -14.4434      2.00000
      3      -9.1862      2.00000
      4      -9.0647      2.00000
      5      -4.5170      2.00000
      6      -4.3988      2.00000
      7      -3.9698      2.00000
      8      -3.8065      2.00000
      9      -2.3388      2.00000
     10      -2.2922      2.00000
     11      -0.7692      0.00000
     12      -0.6607      0.00000
     13       0.3313      0.00000
     14       0.6142      0.00000

 k-point   101 :       0.1333    0.4667    0.0000
  band No.  band energies     occupation 
      1     -14.5291      2.00000
      2     -14.4207      2.00000
      3      -9.1021      2.00000
      4      -8.9874      2.00000
      5      -4.8237      2.00000
      6      -4.6011      2.00000
      7      -4.2241      2.00000
      8      -4.0914      2.00000
      9      -2.7876      2.00000
     10      -2.5252      2.00000
     11      -0.4990      0.00000
     12      -0.2720      0.00000
     13       0.8009      0.00000
     14       0.9225      0.00000

 k-point   102 :       0.2000    0.4667    0.0000
  band No.  band energies     occupation 
      1     -14.4794      2.00000
      2     -14.3862      2.00000
      3      -8.9654      2.00000
      4      -8.8619      2.00000
      5      -5.3510      2.00000
      6      -4.9902      2.00000
      7      -4.4266      2.00000
      8      -4.1534      2.00000
      9      -3.3224      2.00000
     10      -3.0146      2.00000
     11       0.0566      0.00000
     12       0.3890      0.00000
     13       1.0485      0.00000
     14       1.2591      0.00000

 k-point   103 :       0.2667    0.4667    0.0000
  band No.  band energies     occupation 
      1     -14.4200      2.00000
      2     -14.3463      2.00000
      3      -8.7845      2.00000
      4      -8.6955      2.00000
      5      -5.8346      2.00000
      6      -5.4850      2.00000
      7      -4.6221      2.00000
      8      -4.3026      2.00000
      9      -3.6711      2.00000
     10      -3.4428      2.00000
     11       0.5578      0.00000
     12       0.8904      0.00000
     13       1.5056      0.00000
     14       1.7217      0.00000

 k-point   104 :       0.3333    0.4667    0.0000
  band No.  band energies     occupation 
      1     -14.3592      2.00000
      2     -14.3092      2.00000
      3      -8.5768      2.00000
      4      -8.5025      2.00000
      5      -6.2256      2.00000
      6      -5.9411      2.00000
      7      -4.9297      2.00000
      8      -4.6160      2.00000
      9      -3.7755      2.00000
     10      -3.6501      2.00000
     11       0.8844      0.00000
     12       1.1544      0.00000
     13       2.1096      0.00000
     14       2.3292      0.00000

 k-point   105 :       0.4000    0.4667    0.0000
  band No.  band energies     occupation 
      1     -14.3065      2.00000
      2     -14.2835      2.00000
      3      -8.3772      2.00000
      4      -8.3100      2.00000
      5      -6.4897      2.00000
      6      -6.3311      2.00000
      7      -5.1945      2.00000
      8      -4.9691      2.00000
      9      -3.7639      2.00000
     10      -3.7227      2.00000
     11       1.1129      0.00000
     12       1.3076      0.00000
     13       2.5982      0.00000
     14       2.7743      0.00000

 k-point   106 :       0.4667    0.4667    0.0000
  band No.  band energies     occupation 
      1     -14.2762      2.00000
      2     -14.2702      2.00000
      3      -8.2463      2.00000
      4      -8.1710      2.00000
      5      -6.6144      2.00000
      6      -6.5875      2.00000
      7      -5.3070      2.00000
      8      -5.2225      2.00000
      9      -3.7633      2.00000
     10      -3.7229      2.00000
     11       1.2632      0.00000
     12       1.3679      0.00000
     13       2.7255      0.00000
     14       2.7477      0.00000

 k-point   107 :      -0.4667    0.4667    0.0000
  band No.  band energies     occupation 
      1     -14.2909      2.00000
      2     -14.2558      2.00000
      3      -8.2410      2.00000
      4      -8.1655      2.00000
      5      -6.7086      2.00000
      6      -6.4958      2.00000
      7      -5.3026      2.00000
      8      -5.2379      2.00000
      9      -3.8047      2.00000
     10      -3.6823      2.00000
     11       1.3092      0.00000
     12       1.3206      0.00000
     13       2.6848      0.00000
     14       2.8083      0.00000

 k-point   108 :      -0.4000    0.4667    0.0000
  band No.  band energies     occupation 
      1     -14.3264      2.00000
      2     -14.2643      2.00000
      3      -8.3513      2.00000
      4      -8.3139      2.00000
      5      -6.5737      2.00000
      6      -6.2520      2.00000
      7      -5.1800      2.00000
      8      -5.0076      2.00000
      9      -3.8461      2.00000
     10      -3.6441      2.00000
     11       1.1365      0.00000
     12       1.2819      0.00000
     13       2.5634      0.00000
     14       2.8037      0.00000

 k-point   109 :      -0.3333    0.4667    0.0000
  band No.  band energies     occupation 
      1     -14.3775      2.00000
      2     -14.2921      2.00000
      3      -8.5359      2.00000
      4      -8.5206      2.00000
      5      -6.2652      2.00000
      6      -5.9110      2.00000
      7      -4.8892      2.00000
      8      -4.6760      2.00000
      9      -3.8573      2.00000
     10      -3.5802      2.00000
     11       0.8825      0.00000
     12       1.1549      0.00000
     13       2.0549      0.00000
     14       2.3991      0.00000

 k-point   110 :      -0.2667    0.4667    0.0000
  band No.  band energies     occupation 
      1     -14.4356      2.00000
      2     -14.3319      2.00000
      3      -8.7596      2.00000
      4      -8.7004      2.00000
      5      -5.8383      2.00000
      6      -5.4962      2.00000
      7      -4.5652      2.00000
      8      -4.3592      2.00000
      9      -3.7385      2.00000
     10      -3.4075      2.00000
     11       0.5336      0.00000
     12       0.9148      0.00000
     13       1.4686      0.00000
     14       1.7641      0.00000

 k-point   111 :      -0.2000    0.4667    0.0000
  band No.  band energies     occupation 
      1     -14.4917      2.00000
      2     -14.3750      2.00000
      3      -8.9507      2.00000
      4      -8.8608      2.00000
      5      -5.3276      2.00000
      6      -5.0312      2.00000
      7      -4.3863      2.00000
      8      -4.1828      2.00000
      9      -3.3436      2.00000
     10      -3.0390      2.00000
     11       0.0232      0.00000
     12       0.4288      0.00000
     13       1.0311      0.00000
     14       1.2759      0.00000

 k-point   112 :      -0.1333    0.4667    0.0000
  band No.  band energies     occupation 
      1     -14.5375      2.00000
      2     -14.4131      2.00000
      3      -9.0940      2.00000
      4      -8.9848      2.00000
      5      -4.7811      2.00000
      6      -4.6412      2.00000
      7      -4.2155      2.00000
      8      -4.1070      2.00000
      9      -2.7680      2.00000
     10      -2.5973      2.00000
     11      -0.5164      0.00000
     12      -0.2438      0.00000
     13       0.7895      0.00000
     14       0.9211      0.00000

 k-point   113 :      -0.0667    0.4667    0.0000
  band No.  band energies     occupation 
      1     -14.5668      2.00000
      2     -14.4395      2.00000
      3      -9.1825      2.00000
      4      -9.0628      2.00000
      5      -4.5287      2.00000
      6      -4.3643      2.00000
      7      -3.9697      2.00000
      8      -3.8288      2.00000
      9      -2.4164      2.00000
     10      -2.2494      2.00000
     11      -0.7696      0.00000
     12      -0.6691      0.00000
     13       0.3231      0.00000
     14       0.6209      0.00000


--------------------------------------------------------------------------------------------------------


 soft charge-density along one line, spin component           1
         0         1         2         3         4         5         6         7         8         9
 total charge-density along one line
 
 pseudopotential strength for first ion, spin component:           1
 30.068 -23.424  -0.008  -0.089   0.027  -0.013  -0.140   0.043
-23.424  28.110   0.005   0.050  -0.015   0.008   0.082  -0.024
 -0.008   0.005   6.328  -0.000  -0.000   9.790  -0.001  -0.000
 -0.089   0.050  -0.000   6.326   0.001  -0.001   9.787   0.002
  0.027  -0.015  -0.000   0.001   6.328  -0.000   0.002   9.790
 -0.013   0.008   9.790  -0.001  -0.000  15.217  -0.001  -0.000
 -0.140   0.082  -0.001   9.787   0.002  -0.001  15.211   0.003
  0.043  -0.024  -0.000   0.002   9.790  -0.000   0.003  15.216
 -0.000  -0.000   0.006  -0.000  -0.002   0.009  -0.000  -0.003
 -0.001   0.000  -0.020  -0.002  -0.000  -0.031  -0.003  -0.000
 -0.002   0.003   0.001  -0.022  -0.003   0.002  -0.035  -0.005
  0.002  -0.001  -0.000   0.006  -0.020  -0.000   0.010  -0.031
 -0.000   0.000   0.002  -0.000   0.006   0.003  -0.000   0.010
 total augmentation occupancy for first ion, spin component:           1
  2.026  -0.015   0.021   0.237  -0.067  -0.004  -0.042   0.012  -0.002  -0.000   0.024   0.002  -0.000
 -0.015   0.009  -0.007  -0.073   0.021   0.002   0.018  -0.005   0.000  -0.000  -0.002   0.001  -0.000
  0.021  -0.007   1.510  -0.002  -0.005  -0.407   0.004   0.001   0.096  -0.042   0.020   0.001  -0.002
  0.237  -0.073  -0.002   1.837  -0.000   0.004  -0.487  -0.011   0.001   0.005  -0.268  -0.014  -0.000
 -0.067   0.021  -0.005  -0.000   1.502   0.001  -0.011  -0.401  -0.031   0.001  -0.061  -0.043  -0.005
 -0.004   0.002  -0.407   0.004   0.001   0.118  -0.002  -0.000  -0.026   0.012  -0.005  -0.000   0.001
 -0.042   0.018   0.004  -0.487  -0.011  -0.002   0.141   0.006  -0.000  -0.001   0.074   0.004   0.000
  0.012  -0.005   0.001  -0.011  -0.401  -0.000   0.006   0.116   0.008  -0.000   0.016   0.012   0.002
 -0.002   0.000   0.096   0.001  -0.031  -0.026  -0.000   0.008   0.079   0.000  -0.001  -0.000  -0.000
 -0.000  -0.000  -0.042   0.005   0.001   0.012  -0.001  -0.000   0.000   0.021  -0.002  -0.000   0.000
  0.024  -0.002   0.020  -0.268  -0.061  -0.005   0.074   0.016  -0.001  -0.002   0.079   0.004   0.001
  0.002   0.001   0.001  -0.014  -0.043  -0.000   0.004   0.012  -0.000  -0.000   0.004   0.022   0.000
 -0.000  -0.000  -0.002  -0.000  -0.005   0.001   0.000   0.002  -0.000   0.000   0.001   0.000   0.017


------------------------ aborting loop because EDIFF is reached ----------------------------------------


    CHARGE:  cpu time    0.2010: real time    0.2010
    FORLOC:  cpu time    0.0023: real time    0.0023
    FORNL :  cpu time    0.3204: real time    0.3204
    STRESS:  cpu time    0.6111: real time    0.6113
    FORCOR:  cpu time    0.0428: real time    0.0428
    FORHAR:  cpu time    0.0109: real time    0.0109
    MIXING:  cpu time    0.0009: real time    0.0009
    OFIELD:  cpu time    0.0000: real time    0.0000

  FORCE on cell =-STRESS in cart. coord.  units (eV):
  Direction    XX          YY          ZZ          XY          YZ          ZX
  --------------------------------------------------------------------------------------
  Alpha Z     9.60046     9.60046     9.60046
  Ewald    1623.97051  1626.29030 -2083.24720     1.61112    -0.00000     0.00000
  Hartree  1743.26484  1744.11075 -1696.97718     0.57967     0.00000     0.00000
  E(xc)     -77.70783   -77.71486   -78.94078     0.02658    -0.00000     0.00000
  Local   -3619.97048 -3622.83045  3525.30259    -2.23459     0.00000     0.00000
  n-local   162.66178   162.76085   167.26810    -0.09185    -0.00000     0.00000
  augment   -31.87278   -31.84099   -32.80137     0.01125     0.00000     0.00000
  Kinetic   190.31655   189.88829   189.79466     0.31529    -0.00000    -0.00000
  Fock        0.00000     0.00000     0.00000     0.00000     0.00000     0.00000
  -------------------------------------------------------------------------------------
  Total       0.26304     0.26435    -0.00072     0.21746     0.00000     0.00000
  in kB       1.13154     1.13715    -0.00310     0.93546     0.00000     0.00000
  external pressure =        0.76 kB  Pullay stress =        0.00 kB


 VOLUME and BASIS-vectors are now :
 -----------------------------------------------------------------------------
  energy-cutoff  :      600.00
  volume of cell :      372.45
      direct lattice vectors                 reciprocal lattice vectors
     4.338533197 -0.021911784  0.000000000     0.230498467  0.001152492  0.000000000
    -0.021462389  4.292477857  0.000000000     0.001176624  0.232971558  0.000000000
     0.000000000  0.000000000 20.000000000     0.000000000  0.000000000  0.050000000

  length of vectors
     4.338588530  4.292531513 20.000000000     0.230501349  0.232974529  0.050000000


 FORCES acting on ions
    electron-ion (+dipol)            ewald-force                    non-local-force                 convergence-correction
 -----------------------------------------------------------------------------------------------
   0.320E+01 -.997E+00 -.145E+03   -.435E+01 0.136E+01 0.149E+03   0.115E+01 -.362E+00 -.379E+01   -.415E-04 -.116E-04 0.948E-03
   0.320E+01 -.997E+00 0.145E+03   -.435E+01 0.136E+01 -.149E+03   0.115E+01 -.362E+00 0.379E+01   -.415E-04 -.116E-04 -.948E-03
   -.402E+01 0.126E+01 -.209E+03   0.435E+01 -.136E+01 0.211E+03   -.334E+00 0.990E-01 -.203E+01   0.134E-02 0.309E-04 0.328E-02
   -.402E+01 0.126E+01 0.209E+03   0.435E+01 -.136E+01 -.211E+03   -.334E+00 0.990E-01 0.203E+01   0.134E-02 0.309E-04 -.328E-02
 -----------------------------------------------------------------------------------------------
   -.164E+01 0.527E+00 0.855E-07   0.178E-14 -.133E-14 0.000E+00   0.164E+01 -.527E+00 0.000E+00   0.260E-02 0.386E-04 0.391E-10
 
 
 POSITION                                       TOTAL-FORCE (eV/Angst)
 -----------------------------------------------------------------------------------
      2.48146      3.17879     11.37368        -0.000151      0.000636      0.000459
      0.32292      1.04350      8.62632        -0.000151      0.000636     -0.000459
      0.16139      1.10024     11.34606         0.000151     -0.000636     -0.000538
      2.31993      3.23552      8.65394         0.000151     -0.000636      0.000538
 -----------------------------------------------------------------------------------
    total drift:                                0.000239     -0.000000      0.000000


--------------------------------------------------------------------------------------------------------



  FREE ENERGIE OF THE ION-ELECTRON SYSTEM (eV)
  ---------------------------------------------------
  free  energy   TOTEN  =       -16.26201243 eV

  energy  without entropy=      -16.26201243  energy(sigma->0) =      -16.26201243
 
 d Force = 0.1167085E-05[ 0.676E-06, 0.166E-05]  d Energy = 0.1251934E-05-0.848E-07
 d Force =-0.1357286E+00[-0.136E+00,-0.136E+00]  d Ewald  =-0.1357286E+00 0.227E-08


--------------------------------------------------------------------------------------------------------


    POTLOK:  cpu time    0.0420: real time    0.0420


--------------------------------------------------------------------------------------------------------


 Conjugate gradient step on ions:
 trial-energy change:   -0.000001  1 .order   -0.000001   -0.000002   -0.000001
  (g-gl).g = 0.356E-06      g.g   = 0.358E-06  gl.gl    = 0.578E-06
 g(Force)  = 0.358E-06   g(Stress)= 0.000E+00 ortho     =-0.421E-07
 gamma     =   0.61706
 trial     =   4.98993
 opt step  =   8.42930  (harmonic =   8.42930) maximal distance =0.00082775
 next E    =   -16.262013   (d E  =  -0.00000)


--------------------------------------------------------------------------------------------------------


  
 reached required accuracy - stopping structural energy minimisation
 writing wavefunctions
     LOOP+:  cpu time   10.0262: real time   10.6521
    4ORBIT:  cpu time    0.0000: real time    0.0000

 total amount of memory used by VASP MPI-rank0    63221. kBytes
=======================================================================

   base      :      30000. kBytes
   nonl-proj :      12467. kBytes
   fftplans  :       2678. kBytes
   grid      :       4349. kBytes
   one-center:          8. kBytes
   wavefun   :      13719. kBytes
 
  
  
 General timing and accounting informations for this job:
 ========================================================
  
                  Total CPU time used (sec):      292.812
                            User time (sec):      292.090
                          System time (sec):        0.722
                         Elapsed time (sec):      305.691
  
                   Maximum memory used (kb):      211376.
                   Average memory used (kb):           0.
  
                          Minor page faults:       162146
                          Major page faults:          104
                 Voluntary context switches:        10378
