 running on  192 total cores
 distrk:  each k-point on  192 cores,    1 groups
 distr:  one band on   24 cores,    8 groups
 using from now: INCAR     
 vasp.5.4.4.18Apr17-6-g9f103f2a35 (build Oct 01 2024 10:11:53) complex          
  
 POSCAR found type information on POSCAR  Se Sn
 POSCAR found :  2 types and       4 ions
 scaLAPACK will be used
 WARNING: PSMAXN for non-local potential too small
 LDA part: xc-table for Pade appr. of Perdew
 found WAVECAR, reading the header
  number of k-points has changed, file:    41 present:    40
  trying to continue reading WAVECAR, but it might fail
 WARNING: stress and forces are not correct
 POSCAR, INCAR and KPOINTS ok, starting setup
 FFT: planning ...
 reading WAVECAR
 the WAVECAR file was read successfully
 charge-density read from file: unknown                                 
 entering main loop
       N       E                     dE             d eps       ncg     rms          rms(c)
DAV:   1    -0.131758962054E+02   -0.13176E+02   -0.37741E+02  1728   0.642E+01
DAV:   2    -0.162286369364E+02   -0.30527E+01   -0.30271E+01  1528   0.228E+01
DAV:   3    -0.162648164727E+02   -0.36180E-01   -0.36159E-01  1752   0.291E+00
DAV:   4    -0.162652699814E+02   -0.45351E-03   -0.45349E-03  1600   0.322E-01
DAV:   5    -0.162652822642E+02   -0.12283E-04   -0.12282E-04  1760   0.521E-02
DAV:   6    -0.162652827019E+02   -0.43768E-06   -0.43769E-06  1568   0.884E-03
   1 F= -.16265283E+02 E0= -.16265283E+02  d E =0.000000E+00
 writing wavefunctions
