Pristine 1T-MoS2

6  atoms 
2  atom types
0.0      5.4878110031549392  xlo xhi
0.0      3.1632862955117349  ylo yhi
0.0                    20.0  zlo zhi

Atoms 

1   1 0.0     0.00000000 0.00000000 10.0917664
2   1 0.0     2.75572326 1.58301505 9.90834764
3   2 0.0     1.74445344 0.00149326 8.38203474
4   2 0.0     4.66309492 1.58441378 8.43434445
5   2 0.0     1.01126431 1.58451157 11.6179069
6   2 0.0     3.58044834 0.00139855 11.5655995
