
     Program BANDS v.6.6 starts on  8Sep2022 at  0: 9:22 

     This program is part of the open-source Quantum ESPRESSO suite
     for quantum simulation of materials; please cite
         "P. Giannozzi et al., J. Phys.:Condens. Matter 21 395502 (2009);
         "P. Giannozzi et al., J. Phys.:Condens. Matter 29 465901 (2017);
          URL http://www.quantum-espresso.org", 
     in publications or presentations arising from this work. More details at
     http://www.quantum-espresso.org/quote

     Parallel version (MPI), running on    24 processors

     MPI processes distributed on     1 nodes
     R & G space division:  proc/nbgrp/npool/nimage =      24
     Fft bands division:     nmany     =       1

     Reading xml data from directory:

     ./wfc-out/pwscf.save/
     file In.pbe-dn-kjpaw_psl.1.0.0.UPF: wavefunction(s)  5S 5P 4D renormalized
     file Se.pbe-dn-kjpaw_psl.1.0.0.UPF: wavefunction(s)  4S 4P 3D renormalized

     IMPORTANT: XC functional enforced from input :
     Exchange-correlation= PBE
                           (   1   4   3   4   0   0   0)
     Any further DFT definition will be discarded
     Please, verify this is what you really want

 
     Parallelization info
     --------------------
     sticks:   dense  smooth     PW     G-vecs:    dense   smooth      PW
     Min         102      40     11                25588     6464     981
     Max         103      41     12                25613     6483    1000
     Sum        2455     979    283               614361   155271   23821
 

     negative rho (up, down):  6.451E-05 0.000E+00
     Reading collected, re-writing distributed wavefunctions
     high-symmetry point:  0.0000 0.0000 0.0000   x coordinate   0.0000
     high-symmetry point:  0.3333 0.5774 0.0000   x coordinate   0.6667
     high-symmetry point:  0.5000 0.2887 0.0000   x coordinate   1.0000
     high-symmetry point:  0.0000 0.0000 0.0000   x coordinate   1.5774

     Plottable bands (eV) written to file bands.gnu
     Bands written to file bands

 **************************************************************************

                    xk=(   0.00000,   0.00000,   0.00000  )

     point group D_3h (-62m)
     there are  6 classes
     the character table:

       E     2C3   3C2   s_h   2S3   3s_v 
A'_1   1.00  1.00  1.00  1.00  1.00  1.00
A'_2   1.00  1.00 -1.00  1.00  1.00 -1.00
E'     2.00 -1.00  0.00  2.00 -1.00  0.00
A''1   1.00  1.00  1.00 -1.00 -1.00 -1.00
A''2   1.00  1.00 -1.00 -1.00 -1.00  1.00
E''    2.00 -1.00  0.00 -2.00  1.00  0.00

     the symmetry operations in each class and the name of the first element:

     E        1
                                                                 
     2C3      3    4
                                                                 
     3C2      2    6    5
                                                                 
     s_h      7
                                                                 
     2S3      9   10
                                                                 
     3s_v     8   11   12
                                                                 

     Band symmetry, D_3h (-62m) point group:

     e(  1 -  2) =    -48.70695  eV     2   -->   ?
     e(  3 -  4) =    -48.70678  eV     2   -->   ?
     e(  5 -  6) =    -48.67647  eV     2   -->   ?
     e(  7 -  8) =    -48.67630  eV     2   -->   ?
     e(  9 -  9) =    -48.66552  eV     1   -->   ?
     e( 10 - 10) =    -48.66532  eV     1   -->   ?
     e( 11 - 11) =    -16.07290  eV     1   --> A'_1           
     e( 12 - 13) =    -15.90007  eV     2   --> E'             
     e( 14 - 15) =    -15.82397  eV     2   --> E''            
     e( 16 - 17) =    -15.82003  eV     2   --> E'             
     e( 18 - 19) =    -15.65715  eV     2   --> E''            
     e( 20 - 20) =    -15.61389  eV     1   --> A''2           
     e( 21 - 21) =    -14.45437  eV     1   --> A'_1           
     e( 22 - 22) =    -14.34311  eV     1   --> A''2           
     e( 23 - 23) =     -7.30069  eV     1   --> A'_1           
     e( 24 - 24) =     -5.05024  eV     1   --> A''2           
     e( 25 - 26) =     -2.56189  eV     2   --> E'             
     e( 27 - 28) =     -2.49100  eV     2   --> E''            
     e( 29 - 29) =     -2.10493  eV     1   --> A'_1           
     e( 30 - 30) =     -0.59696  eV     1   --> A''2           
     e( 31 - 31) =      0.62486  eV     1   --> A'_1           
     e( 32 - 33) =      2.88061  eV     2   --> E'             
     e( 34 - 34) =      3.48145  eV     1   --> A'_1           
     e( 35 - 35) =      3.52734  eV     1   --> A''2           

 **************************************************************************

 **************************************************************************

                    xk=(   0.01667,   0.02887,   0.00000  )

     point group C_s (m)    
     there are  2 classes
     the character table:

       E     s    
A'     1.00  1.00
A''    1.00 -1.00

     the symmetry operations in each class and the name of the first element:

     E        1
                                                                 
     s        2
                                                                 

     Band symmetry, C_s (m)     point group:

     e(  1 -  2) =    -48.70698  eV     2   -->   ?
     e(  3 -  4) =    -48.70681  eV     2   -->   ?
     e(  5 -  6) =    -48.67650  eV     2   -->   ?
     e(  7 -  8) =    -48.67631  eV     2   -->   ?
     e(  9 -  9) =    -48.66551  eV     1   -->   ?
     e( 10 - 10) =    -48.66534  eV     1   -->   ?
     e( 11 - 11) =    -16.07281  eV     1   --> A'             
     e( 12 - 12) =    -15.90254  eV     1   --> A'             
     e( 13 - 13) =    -15.89997  eV     1   --> A'             
     e( 14 - 14) =    -15.82653  eV     1   --> A''            
     e( 15 - 15) =    -15.82345  eV     1   --> A''            
     e( 16 - 16) =    -15.82026  eV     1   --> A'             
     e( 17 - 17) =    -15.81971  eV     1   --> A'             
     e( 18 - 18) =    -15.65992  eV     1   --> A''            
     e( 19 - 19) =    -15.65724  eV     1   --> A''            
     e( 20 - 20) =    -15.61068  eV     1   --> A''            
     e( 21 - 21) =    -14.44674  eV     1   --> A'             
     e( 22 - 22) =    -14.33580  eV     1   --> A''            
     e( 23 - 23) =     -7.29674  eV     1   --> A'             
     e( 24 - 24) =     -5.05278  eV     1   --> A''            
     e( 25 - 25) =     -2.61895  eV     1   --> A'             
     e( 26 - 26) =     -2.57203  eV     1   --> A'             
     e( 27 - 27) =     -2.54592  eV     1   --> A''            
     e( 28 - 28) =     -2.49994  eV     1   --> A''            
     e( 29 - 29) =     -2.09444  eV     1   --> A'             
     e( 30 - 30) =     -0.54384  eV     1   --> A''            
     e( 31 - 31) =      0.67555  eV     1   --> A'             
     e( 32 - 32) =      2.82183  eV     1   --> A'             
     e( 33 - 33) =      2.88934  eV     1   --> A'             
     e( 34 - 34) =      3.49599  eV     1   --> A'             
     e( 35 - 35) =      3.53238  eV     1   --> A''            

 **************************************************************************

 **************************************************************************

                    xk=(   0.03333,   0.05774,   0.00000  )

     Band symmetry, C_s (m)     point group:

     e(  1 -  2) =    -48.70694  eV     2   -->   ?
     e(  3 -  4) =    -48.70677  eV     2   -->   ?
     e(  5 -  6) =    -48.67648  eV     2   -->   ?
     e(  7 -  8) =    -48.67630  eV     2   -->   ?
     e(  9 -  9) =    -48.66546  eV     1   -->   ?
     e( 10 - 10) =    -48.66529  eV     1   -->   ?
     e( 11 - 11) =    -16.07248  eV     1   --> A'             
     e( 12 - 12) =    -15.90968  eV     1   --> A'             
     e( 13 - 13) =    -15.89963  eV     1   --> A'             
     e( 14 - 14) =    -15.83400  eV     1   --> A''            
     e( 15 - 15) =    -15.82187  eV     1   -->   ?
     e( 16 - 16) =    -15.82084  eV     1   --> A'             
     e( 17 - 17) =    -15.81860  eV     1   -->   ?
     e( 18 - 18) =    -15.66614  eV     1   --> A''            
     e( 19 - 19) =    -15.65744  eV     1   --> A''            
     e( 20 - 20) =    -15.60294  eV     1   --> A''            
     e( 21 - 21) =    -14.42410  eV     1   --> A'             
     e( 22 - 22) =    -14.31415  eV     1   --> A''            
     e( 23 - 23) =     -7.28517  eV     1   --> A'             
     e( 24 - 24) =     -5.06138  eV     1   --> A''            
     e( 25 - 25) =     -2.76894  eV     1   --> A'             
     e( 26 - 26) =     -2.69046  eV     1   --> A''            
     e( 27 - 27) =     -2.60287  eV     1   --> A'             
     e( 28 - 28) =     -2.52708  eV     1   --> A''            
     e( 29 - 29) =     -2.07395  eV     1   --> A'             
     e( 30 - 30) =     -0.40400  eV     1   --> A''            
     e( 31 - 31) =      0.81623  eV     1   --> A'             
     e( 32 - 32) =      2.66752  eV     1   --> A'             
     e( 33 - 33) =      2.91420  eV     1   --> A'             
     e( 34 - 34) =      3.53302  eV     1   --> A'             
     e( 35 - 35) =      3.54192  eV     1   --> A''            

 **************************************************************************

 **************************************************************************

                    xk=(   0.05000,   0.08660,   0.00000  )

     Band symmetry, C_s (m)     point group:

     e(  1 -  2) =    -48.70691  eV     2   -->   ?
     e(  3 -  4) =    -48.70674  eV     2   -->   ?
     e(  5 -  6) =    -48.67648  eV     2   -->   ?
     e(  7 -  8) =    -48.67630  eV     2   -->   ?
     e(  9 -  9) =    -48.66543  eV     1   -->   ?
     e( 10 - 10) =    -48.66526  eV     1   -->   ?
     e( 11 - 11) =    -16.07204  eV     1   --> A'             
     e( 12 - 12) =    -15.92092  eV     1   --> A'             
     e( 13 - 13) =    -15.89919  eV     1   --> A'             
     e( 14 - 14) =    -15.84605  eV     1   --> A''            
     e( 15 - 15) =    -15.82170  eV     1   --> A'             
     e( 16 - 16) =    -15.81939  eV     1   -->   ?
     e( 17 - 17) =    -15.81681  eV     1   -->   ?
     e( 18 - 18) =    -15.67318  eV     1   --> A''            
     e( 19 - 19) =    -15.65777  eV     1   --> A''            
     e( 20 - 20) =    -15.59344  eV     1   --> A''            
     e( 21 - 21) =    -14.38724  eV     1   --> A'             
     e( 22 - 22) =    -14.27889  eV     1   --> A''            
     e( 23 - 23) =     -7.26688  eV     1   --> A'             
     e( 24 - 24) =     -5.07900  eV     1   --> A''            
     e( 25 - 25) =     -2.97595  eV     1   --> A'             
     e( 26 - 26) =     -2.88398  eV     1   --> A''            
     e( 27 - 27) =     -2.65490  eV     1   --> A'             
     e( 28 - 28) =     -2.57273  eV     1   --> A''            
     e( 29 - 29) =     -2.05579  eV     1   --> A'             
     e( 30 - 30) =     -0.21582  eV     1   --> A''            
     e( 31 - 31) =      1.01985  eV     1   --> A'             
     e( 32 - 32) =      2.45899  eV     1   --> A'             
     e( 33 - 33) =      2.95084  eV     1   --> A'             
     e( 34 - 34) =      3.53390  eV     1   --> A''            
     e( 35 - 35) =      3.58552  eV     1   --> A'             

 **************************************************************************

 **************************************************************************

                    xk=(   0.06667,   0.11547,   0.00000  )

     Band symmetry, C_s (m)     point group:

     e(  1 -  2) =    -48.70690  eV     2   -->   ?
     e(  3 -  4) =    -48.70673  eV     2   -->   ?
     e(  5 -  6) =    -48.67647  eV     2   -->   ?
     e(  7 -  8) =    -48.67630  eV     2   -->   ?
     e(  9 -  9) =    -48.66542  eV     1   -->   ?
     e( 10 - 10) =    -48.66525  eV     1   -->   ?
     e( 11 - 11) =    -16.07170  eV     1   --> A'             
     e( 12 - 12) =    -15.93529  eV     1   --> A'             
     e( 13 - 13) =    -15.89873  eV     1   --> A'             
     e( 14 - 14) =    -15.86183  eV     1   --> A''            
     e( 15 - 15) =    -15.82283  eV     1   --> A'             
     e( 16 - 16) =    -15.81608  eV     1   -->   ?
     e( 17 - 17) =    -15.81439  eV     1   -->   ?
     e( 18 - 18) =    -15.67975  eV     1   --> A''            
     e( 19 - 19) =    -15.65822  eV     1   --> A''            
     e( 20 - 20) =    -15.58349  eV     1   --> A''            
     e( 21 - 21) =    -14.33736  eV     1   --> A'             
     e( 22 - 22) =    -14.23113  eV     1   --> A''            
     e( 23 - 23) =     -7.24342  eV     1   --> A'             
     e( 24 - 24) =     -5.11063  eV     1   --> A''            
     e( 25 - 25) =     -3.21134  eV     1   --> A'             
     e( 26 - 26) =     -3.09020  eV     1   --> A''            
     e( 27 - 27) =     -2.72885  eV     1   --> A'             
     e( 28 - 28) =     -2.63735  eV     1   --> A''            
     e( 29 - 29) =     -2.04361  eV     1   --> A'             
     e( 30 - 30) =     -0.01144  eV     1   --> A''            
     e( 31 - 31) =      1.25602  eV     1   --> A'             
     e( 32 - 32) =      2.23058  eV     1   --> A'             
     e( 33 - 33) =      2.99106  eV     1   --> A'             
     e( 34 - 34) =      3.47222  eV     1   --> A''            
     e( 35 - 35) =      3.65309  eV     1   --> A'             

 **************************************************************************

 **************************************************************************

                    xk=(   0.08333,   0.14434,   0.00000  )

     Band symmetry, C_s (m)     point group:

     e(  1 -  2) =    -48.70691  eV     2   -->   ?
     e(  3 -  4) =    -48.70674  eV     2   -->   ?
     e(  5 -  6) =    -48.67648  eV     2   -->   ?
     e(  7 -  8) =    -48.67630  eV     2   -->   ?
     e(  9 -  9) =    -48.66541  eV     1   -->   ?
     e( 10 - 10) =    -48.66524  eV     1   -->   ?
     e( 11 - 11) =    -16.07168  eV     1   --> A'             
     e( 12 - 12) =    -15.95163  eV     1   --> A'             
     e( 13 - 13) =    -15.89835  eV     1   --> A'             
     e( 14 - 14) =    -15.88037  eV     1   --> A''            
     e( 15 - 15) =    -15.82413  eV     1   --> A'             
     e( 16 - 16) =    -15.81212  eV     1   -->   ?
     e( 17 - 17) =    -15.81133  eV     1   -->   ?
     e( 18 - 18) =    -15.68544  eV     1   --> A''            
     e( 19 - 19) =    -15.65887  eV     1   --> A''            
     e( 20 - 20) =    -15.57366  eV     1   --> A''            
     e( 21 - 21) =    -14.27595  eV     1   --> A'             
     e( 22 - 22) =    -14.17231  eV     1   --> A''            
     e( 23 - 23) =     -7.21701  eV     1   --> A'             
     e( 24 - 24) =     -5.16283  eV     1   --> A''            
     e( 25 - 25) =     -3.45387  eV     1   --> A'             
     e( 26 - 26) =     -3.28238  eV     1   --> A''            
     e( 27 - 27) =     -2.82525  eV     1   --> A'             
     e( 28 - 28) =     -2.72125  eV     1   --> A''            
     e( 29 - 29) =     -2.03854  eV     1   --> A'             
     e( 30 - 30) =      0.18819  eV     1   --> A''            
     e( 31 - 31) =      1.49707  eV     1   --> A'             
     e( 32 - 32) =      2.00748  eV     1   --> A'             
     e( 33 - 33) =      3.02294  eV     1   --> A'             
     e( 34 - 34) =      3.36430  eV     1   --> A''            
     e( 35 - 35) =      3.73823  eV     1   --> A'             

 **************************************************************************

 **************************************************************************

                    xk=(   0.10000,   0.17321,   0.00000  )

     Band symmetry, C_s (m)     point group:

     e(  1 -  2) =    -48.70689  eV     2   -->   ?
     e(  3 -  4) =    -48.70672  eV     2   -->   ?
     e(  5 -  6) =    -48.67648  eV     2   -->   ?
     e(  7 -  8) =    -48.67631  eV     2   -->   ?
     e(  9 -  9) =    -48.66539  eV     1   -->   ?
     e( 10 - 10) =    -48.66522  eV     1   -->   ?
     e( 11 - 11) =    -16.07236  eV     1   --> A'             
     e( 12 - 12) =    -15.96864  eV     1   --> A'             
     e( 13 - 13) =    -15.90063  eV     1   --> A''            
     e( 14 - 14) =    -15.89818  eV     1   --> A'             
     e( 15 - 15) =    -15.82548  eV     1   --> A'             
     e( 16 - 16) =    -15.80774  eV     1   -->   ?
     e( 17 - 17) =    -15.80764  eV     1   -->   ?
     e( 18 - 18) =    -15.69021  eV     1   --> A''            
     e( 19 - 19) =    -15.65963  eV     1   --> A''            
     e( 20 - 20) =    -15.56420  eV     1   --> A''            
     e( 21 - 21) =    -14.20470  eV     1   --> A'             
     e( 22 - 22) =    -14.10407  eV     1   --> A''            
     e( 23 - 23) =     -7.19059  eV     1   --> A'             
     e( 24 - 24) =     -5.24201  eV     1   --> A''            
     e( 25 - 25) =     -3.68742  eV     1   --> A'             
     e( 26 - 26) =     -3.44163  eV     1   --> A''            
     e( 27 - 27) =     -2.94410  eV     1   --> A'             
     e( 28 - 28) =     -2.82433  eV     1   --> A''            
     e( 29 - 29) =     -2.04207  eV     1   --> A'             
     e( 30 - 30) =      0.36995  eV     1   --> A''            
     e( 31 - 31) =      1.69349  eV     1   --> A'             
     e( 32 - 32) =      1.83397  eV     1   --> A'             
     e( 33 - 33) =      3.03455  eV     1   --> A'             
     e( 34 - 34) =      3.25387  eV     1   --> A''            
     e( 35 - 35) =      3.84379  eV     1   --> A'             

 **************************************************************************

 **************************************************************************

                    xk=(   0.11667,   0.20207,   0.00000  )

     Band symmetry, C_s (m)     point group:

     e(  1 -  2) =    -48.70688  eV     2   -->   ?
     e(  3 -  4) =    -48.70671  eV     2   -->   ?
     e(  5 -  6) =    -48.67650  eV     2   -->   ?
     e(  7 -  8) =    -48.67633  eV     2   -->   ?
     e(  9 -  9) =    -48.66540  eV     1   -->   ?
     e( 10 - 10) =    -48.66523  eV     1   -->   ?
     e( 11 - 11) =    -16.07436  eV     1   --> A'             
     e( 12 - 12) =    -15.98491  eV     1   --> A'             
     e( 13 - 13) =    -15.92164  eV     1   --> A''            
     e( 14 - 14) =    -15.89831  eV     1   --> A'             
     e( 15 - 15) =    -15.82681  eV     1   --> A'             
     e( 16 - 16) =    -15.80372  eV     1   -->   ?
     e( 17 - 17) =    -15.80290  eV     1   -->   ?
     e( 18 - 18) =    -15.69411  eV     1   --> A''            
     e( 19 - 19) =    -15.66051  eV     1   --> A''            
     e( 20 - 20) =    -15.55522  eV     1   --> A''            
     e( 21 - 21) =    -14.12546  eV     1   --> A'             
     e( 22 - 22) =    -14.02822  eV     1   --> A''            
     e( 23 - 23) =     -7.16771  eV     1   --> A'             
     e( 24 - 24) =     -5.35128  eV     1   --> A''            
     e( 25 - 25) =     -3.89930  eV     1   --> A'             
     e( 26 - 26) =     -3.55689  eV     1   --> A''            
     e( 27 - 27) =     -3.08446  eV     1   --> A'             
     e( 28 - 28) =     -2.94586  eV     1   --> A''            
     e( 29 - 29) =     -2.05629  eV     1   --> A'             
     e( 30 - 30) =      0.52559  eV     1   --> A''            
     e( 31 - 31) =      1.59370  eV     1   --> A'             
     e( 32 - 32) =      1.95421  eV     1   --> A'             
     e( 33 - 33) =      3.02217  eV     1   --> A'             
     e( 34 - 34) =      3.16916  eV     1   --> A''            
     e( 35 - 35) =      3.93054  eV     1   --> A''            

 **************************************************************************

 **************************************************************************

                    xk=(   0.13333,   0.23094,   0.00000  )

     Band symmetry, C_s (m)     point group:

     e(  1 -  4) =    -48.70686  eV     4   -->   2 A'             
     e(  1 -  4) =    -48.70686  eV     4   -->   2 A''            
     e(  5 -  6) =    -48.67650  eV     2   -->   ?
     e(  7 -  8) =    -48.67632  eV     2   -->   ?
     e(  9 -  9) =    -48.66538  eV     1   -->   ?
     e( 10 - 10) =    -48.66520  eV     1   -->   ?
     e( 11 - 11) =    -16.07840  eV     1   --> A'             
     e( 12 - 12) =    -15.99893  eV     1   --> A'             
     e( 13 - 13) =    -15.94256  eV     1   --> A''            
     e( 14 - 14) =    -15.89880  eV     1   --> A'             
     e( 15 - 15) =    -15.82802  eV     1   --> A'             
     e( 16 - 16) =    -15.79949  eV     1   -->   ?
     e( 17 - 17) =    -15.79804  eV     1   -->   ?
     e( 18 - 18) =    -15.69723  eV     1   --> A''            
     e( 19 - 19) =    -15.66156  eV     1   --> A''            
     e( 20 - 20) =    -15.54674  eV     1   --> A''            
     e( 21 - 21) =    -14.04018  eV     1   --> A'             
     e( 22 - 22) =    -13.94669  eV     1   --> A''            
     e( 23 - 23) =     -7.15223  eV     1   --> A'             
     e( 24 - 24) =     -5.48773  eV     1   --> A''            
     e( 25 - 25) =     -4.07923  eV     1   --> A'             
     e( 26 - 26) =     -3.62587  eV     1   --> A''            
     e( 27 - 27) =     -3.24426  eV     1   --> A'             
     e( 28 - 28) =     -3.08429  eV     1   --> A''            
     e( 29 - 29) =     -2.08357  eV     1   --> A'             
     e( 30 - 30) =      0.65012  eV     1   --> A''            
     e( 31 - 31) =      1.44639  eV     1   --> A'             
     e( 32 - 32) =      2.10701  eV     1   --> A'             
     e( 33 - 33) =      2.99810  eV     1   --> A'             
     e( 34 - 34) =      3.12373  eV     1   --> A''            
     e( 35 - 35) =      3.86344  eV     1   --> A''            

 **************************************************************************

 **************************************************************************

                    xk=(   0.15000,   0.25981,   0.00000  )

     Band symmetry, C_s (m)     point group:

     e(  1 -  4) =    -48.70684  eV     4   -->   2 A'             
     e(  1 -  4) =    -48.70684  eV     4   -->   2 A''            
     e(  5 -  6) =    -48.67648  eV     2   -->   ?
     e(  7 -  8) =    -48.67631  eV     2   -->   ?
     e(  9 -  9) =    -48.66534  eV     1   -->   ?
     e( 10 - 10) =    -48.66517  eV     1   -->   ?
     e( 11 - 11) =    -16.08506  eV     1   --> A'             
     e( 12 - 12) =    -16.00954  eV     1   --> A'             
     e( 13 - 13) =    -15.96274  eV     1   --> A''            
     e( 14 - 14) =    -15.89968  eV     1   --> A'             
     e( 15 - 15) =    -15.82901  eV     1   --> A'             
     e( 16 - 16) =    -15.79525  eV     1   -->   ?
     e( 17 - 17) =    -15.79327  eV     1   -->   ?
     e( 18 - 18) =    -15.69967  eV     1   --> A''            
     e( 19 - 19) =    -15.66273  eV     1   --> A''            
     e( 20 - 20) =    -15.53884  eV     1   --> A''            
     e( 21 - 21) =    -13.95094  eV     1   --> A'             
     e( 22 - 22) =    -13.86152  eV     1   --> A''            
     e( 23 - 23) =     -7.14764  eV     1   --> A'             
     e( 24 - 24) =     -5.64284  eV     1   --> A''            
     e( 25 - 25) =     -4.21916  eV     1   --> A'             
     e( 26 - 26) =     -3.65370  eV     1   --> A''            
     e( 27 - 27) =     -3.42026  eV     1   --> A'             
     e( 28 - 28) =     -3.23713  eV     1   --> A''            
     e( 29 - 29) =     -2.12596  eV     1   --> A'             
     e( 30 - 30) =      0.74163  eV     1   --> A''            
     e( 31 - 31) =      1.32491  eV     1   --> A'             
     e( 32 - 32) =      2.19879  eV     1   --> A'             
     e( 33 - 33) =      2.99090  eV     1   --> A'             
     e( 34 - 34) =      3.12215  eV     1   --> A''            
     e( 35 - 35) =      3.78944  eV     1   --> A''            

 **************************************************************************

 **************************************************************************

                    xk=(   0.16667,   0.28868,   0.00000  )

     Band symmetry, C_s (m)     point group:

     e(  1 -  1) =    -48.70680  eV     1   -->   ?
     e(  2 -  3) =    -48.70668  eV     2   -->   ?
     e(  4 -  4) =    -48.70651  eV     1   -->   ?
     e(  5 -  6) =    -48.67651  eV     2   -->   ?
     e(  7 -  8) =    -48.67633  eV     2   -->   ?
     e(  9 -  9) =    -48.66530  eV     1   -->   ?
     e( 10 - 10) =    -48.66513  eV     1   -->   ?
     e( 11 - 11) =    -16.09420  eV     1   --> A'             
     e( 12 - 12) =    -16.01645  eV     1   --> A'             
     e( 13 - 13) =    -15.98165  eV     1   --> A''            
     e( 14 - 14) =    -15.90094  eV     1   --> A'             
     e( 15 - 15) =    -15.82970  eV     1   --> A'             
     e( 16 - 16) =    -15.79123  eV     1   -->   ?
     e( 17 - 17) =    -15.78874  eV     1   -->   ?
     e( 18 - 18) =    -15.70144  eV     1   --> A''            
     e( 19 - 19) =    -15.66407  eV     1   --> A''            
     e( 20 - 20) =    -15.53159  eV     1   --> A''            
     e( 21 - 21) =    -13.85994  eV     1   --> A'             
     e( 22 - 22) =    -13.77485  eV     1   --> A''            
     e( 23 - 23) =     -7.15614  eV     1   --> A'             
     e( 24 - 24) =     -5.80557  eV     1   --> A''            
     e( 25 - 25) =     -4.31371  eV     1   --> A'             
     e( 26 - 26) =     -3.64967  eV     1   --> A''            
     e( 27 - 27) =     -3.60823  eV     1   --> A'             
     e( 28 - 28) =     -3.40075  eV     1   --> A''            
     e( 29 - 29) =     -2.18474  eV     1   --> A'             
     e( 30 - 30) =      0.80161  eV     1   --> A''            
     e( 31 - 31) =      1.22821  eV     1   --> A'             
     e( 32 - 32) =      2.21406  eV     1   --> A'             
     e( 33 - 33) =      3.02799  eV     1   --> A'             
     e( 34 - 34) =      3.16041  eV     1   --> A''            
     e( 35 - 35) =      3.72437  eV     1   --> A''            

 **************************************************************************

 **************************************************************************

                    xk=(   0.18333,   0.31754,   0.00000  )

     Band symmetry, C_s (m)     point group:

     e(  1 -  1) =    -48.70678  eV     1   -->   ?
     e(  2 -  3) =    -48.70663  eV     2   -->   ?
     e(  4 -  4) =    -48.70646  eV     1   -->   ?
     e(  5 -  6) =    -48.67650  eV     2   -->   ?
     e(  7 -  8) =    -48.67633  eV     2   -->   ?
     e(  9 -  9) =    -48.66527  eV     1   -->   ?
     e( 10 - 10) =    -48.66511  eV     1   -->   ?
     e( 11 - 11) =    -16.10479  eV     1   --> A'             
     e( 12 - 12) =    -16.02032  eV     1   --> A'             
     e( 13 - 13) =    -15.99893  eV     1   --> A''            
     e( 14 - 14) =    -15.90253  eV     1   --> A'             
     e( 15 - 15) =    -15.83003  eV     1   --> A'             
     e( 16 - 16) =    -15.78762  eV     1   -->   ?
     e( 17 - 17) =    -15.78468  eV     1   -->   ?
     e( 18 - 18) =    -15.70252  eV     1   --> A''            
     e( 19 - 19) =    -15.66555  eV     1   --> A''            
     e( 20 - 20) =    -15.52509  eV     1   --> A''            
     e( 21 - 21) =    -13.76948  eV     1   --> A'             
     e( 22 - 22) =    -13.68894  eV     1   --> A''            
     e( 23 - 23) =     -7.17766  eV     1   --> A'             
     e( 24 - 24) =     -5.96546  eV     1   --> A''            
     e( 25 - 25) =     -4.36091  eV     1   --> A'             
     e( 26 - 26) =     -3.80326  eV     1   --> A'             
     e( 27 - 27) =     -3.63075  eV     1   --> A''            
     e( 28 - 28) =     -3.56370  eV     1   --> A''            
     e( 29 - 29) =     -2.26009  eV     1   --> A'             
     e( 30 - 30) =      0.83476  eV     1   --> A''            
     e( 31 - 31) =      1.14931  eV     1   --> A'             
     e( 32 - 32) =      2.16927  eV     1   --> A'             
     e( 33 - 33) =      3.10922  eV     1   --> A'             
     e( 34 - 34) =      3.22221  eV     1   --> A''            
     e( 35 - 35) =      3.68654  eV     1   --> A''            

 **************************************************************************

 **************************************************************************

                    xk=(   0.20000,   0.34641,   0.00000  )

     Band symmetry, C_s (m)     point group:

     e(  1 -  1) =    -48.70678  eV     1   -->   ?
     e(  2 -  3) =    -48.70662  eV     2   -->   ?
     e(  4 -  4) =    -48.70644  eV     1   -->   ?
     e(  5 -  6) =    -48.67649  eV     2   -->   ?
     e(  7 -  8) =    -48.67632  eV     2   -->   ?
     e(  9 -  9) =    -48.66527  eV     1   -->   ?
     e( 10 - 10) =    -48.66510  eV     1   -->   ?
     e( 11 - 11) =    -16.11560  eV     1   --> A'             
     e( 12 - 12) =    -16.02221  eV     1   --> A'             
     e( 13 - 13) =    -16.01427  eV     1   --> A''            
     e( 14 - 14) =    -15.90441  eV     1   --> A'             
     e( 15 - 15) =    -15.82997  eV     1   --> A'             
     e( 16 - 16) =    -15.78467  eV     1   -->   ?
     e( 17 - 17) =    -15.78119  eV     1   -->   ?
     e( 18 - 18) =    -15.70294  eV     1   --> A''            
     e( 19 - 19) =    -15.66721  eV     1   --> A''            
     e( 20 - 20) =    -15.51938  eV     1   --> A''            
     e( 21 - 21) =    -13.68197  eV     1   --> A'             
     e( 22 - 22) =    -13.60605  eV     1   --> A''            
     e( 23 - 23) =     -7.20950  eV     1   --> A'             
     e( 24 - 24) =     -6.11397  eV     1   --> A''            
     e( 25 - 25) =     -4.36264  eV     1   --> A'             
     e( 26 - 26) =     -3.99999  eV     1   --> A'             
     e( 27 - 27) =     -3.75604  eV     1   --> A''            
     e( 28 - 28) =     -3.57091  eV     1   --> A''            
     e( 29 - 29) =     -2.35090  eV     1   --> A'             
     e( 30 - 30) =      0.84803  eV     1   --> A''            
     e( 31 - 31) =      1.07843  eV     1   --> A'             
     e( 32 - 32) =      2.09952  eV     1   --> A'             
     e( 33 - 33) =      3.21609  eV     1   --> A'             
     e( 34 - 34) =      3.27321  eV     1   --> A''            
     e( 35 - 35) =      3.70616  eV     1   --> A''            

 **************************************************************************

 **************************************************************************

                    xk=(   0.21667,   0.37528,   0.00000  )

     Band symmetry, C_s (m)     point group:

     e(  1 -  1) =    -48.70676  eV     1   -->   ?
     e(  2 -  3) =    -48.70660  eV     2   -->   ?
     e(  4 -  4) =    -48.70643  eV     1   -->   ?
     e(  5 -  6) =    -48.67649  eV     2   -->   ?
     e(  7 -  8) =    -48.67632  eV     2   -->   ?
     e(  9 -  9) =    -48.66526  eV     1   -->   ?
     e( 10 - 10) =    -48.66509  eV     1   -->   ?
     e( 11 - 11) =    -16.12565  eV     1   --> A'             
     e( 12 - 12) =    -16.02754  eV     1   --> A''            
     e( 13 - 13) =    -16.02288  eV     1   --> A'             
     e( 14 - 14) =    -15.90652  eV     1   --> A'             
     e( 15 - 15) =    -15.82943  eV     1   --> A'             
     e( 16 - 16) =    -15.78249  eV     1   --> A'             
     e( 17 - 17) =    -15.77834  eV     1   --> A''            
     e( 18 - 18) =    -15.70273  eV     1   --> A''            
     e( 19 - 19) =    -15.66906  eV     1   --> A''            
     e( 20 - 20) =    -15.51450  eV     1   --> A''            
     e( 21 - 21) =    -13.59979  eV     1   --> A'             
     e( 22 - 22) =    -13.52845  eV     1   --> A''            
     e( 23 - 23) =     -7.24691  eV     1   --> A'             
     e( 24 - 24) =     -6.24479  eV     1   --> A''            
     e( 25 - 25) =     -4.32533  eV     1   --> A'             
     e( 26 - 26) =     -4.19165  eV     1   --> A'             
     e( 27 - 27) =     -3.92956  eV     1   --> A''            
     e( 28 - 28) =     -3.52086  eV     1   --> A''            
     e( 29 - 29) =     -2.45488  eV     1   --> A'             
     e( 30 - 30) =      0.84912  eV     1   --> A''            
     e( 31 - 31) =      1.00567  eV     1   --> A'             
     e( 32 - 32) =      2.03330  eV     1   --> A'             
     e( 33 - 33) =      3.28074  eV     1   --> A''            
     e( 34 - 34) =      3.33480  eV     1   --> A'             
     e( 35 - 35) =      3.80793  eV     1   --> A''            

 **************************************************************************

 **************************************************************************

                    xk=(   0.23333,   0.40415,   0.00000  )

     Band symmetry, C_s (m)     point group:

     e(  1 -  1) =    -48.70680  eV     1   -->   ?
     e(  2 -  3) =    -48.70663  eV     2   -->   ?
     e(  4 -  4) =    -48.70641  eV     1   -->   ?
     e(  5 -  6) =    -48.67650  eV     2   -->   ?
     e(  7 -  8) =    -48.67633  eV     2   -->   ?
     e(  9 -  9) =    -48.66528  eV     1   -->   ?
     e( 10 - 10) =    -48.66511  eV     1   -->   ?
     e( 11 - 11) =    -16.13438  eV     1   --> A'             
     e( 12 - 12) =    -16.03865  eV     1   --> A''            
     e( 13 - 13) =    -16.02296  eV     1   --> A'             
     e( 14 - 14) =    -15.90874  eV     1   --> A'             
     e( 15 - 15) =    -15.82848  eV     1   --> A'             
     e( 16 - 16) =    -15.78121  eV     1   --> A'             
     e( 17 - 17) =    -15.77614  eV     1   --> A''            
     e( 18 - 18) =    -15.70191  eV     1   --> A''            
     e( 19 - 19) =    -15.67107  eV     1   --> A''            
     e( 20 - 20) =    -15.51046  eV     1   --> A''            
     e( 21 - 21) =    -13.52525  eV     1   --> A'             
     e( 22 - 22) =    -13.45827  eV     1   --> A''            
     e( 23 - 23) =     -7.28428  eV     1   --> A'             
     e( 24 - 24) =     -6.35367  eV     1   --> A''            
     e( 25 - 25) =     -4.38337  eV     1   --> A'             
     e( 26 - 26) =     -4.24595  eV     1   --> A'             
     e( 27 - 27) =     -4.09934  eV     1   --> A''            
     e( 28 - 28) =     -3.46672  eV     1   --> A''            
     e( 29 - 29) =     -2.56866  eV     1   --> A'             
     e( 30 - 30) =      0.84529  eV     1   --> A''            
     e( 31 - 31) =      0.92491  eV     1   --> A'             
     e( 32 - 32) =      1.98569  eV     1   --> A'             
     e( 33 - 33) =      3.25106  eV     1   --> A''            
     e( 34 - 34) =      3.45983  eV     1   --> A'             
     e( 35 - 35) =      3.97601  eV     1   --> A''            

 **************************************************************************

 **************************************************************************

                    xk=(   0.25000,   0.43301,   0.00000  )

     Band symmetry, C_s (m)     point group:

     e(  1 -  1) =    -48.70678  eV     1   -->   ?
     e(  2 -  3) =    -48.70660  eV     2   -->   ?
     e(  4 -  4) =    -48.70639  eV     1   -->   ?
     e(  5 -  6) =    -48.67652  eV     2   -->   ?
     e(  7 -  8) =    -48.67634  eV     2   -->   ?
     e(  9 -  9) =    -48.66529  eV     1   -->   ?
     e( 10 - 10) =    -48.66512  eV     1   -->   ?
     e( 11 - 11) =    -16.14148  eV     1   --> A'             
     e( 12 - 12) =    -16.04758  eV     1   --> A''            
     e( 13 - 13) =    -16.02271  eV     1   --> A'             
     e( 14 - 14) =    -15.91097  eV     1   --> A'             
     e( 15 - 15) =    -15.82707  eV     1   --> A'             
     e( 16 - 16) =    -15.78078  eV     1   --> A'             
     e( 17 - 17) =    -15.77458  eV     1   --> A''            
     e( 18 - 18) =    -15.70050  eV     1   --> A''            
     e( 19 - 19) =    -15.67326  eV     1   --> A''            
     e( 20 - 20) =    -15.50728  eV     1   --> A''            
     e( 21 - 21) =    -13.46038  eV     1   --> A'             
     e( 22 - 22) =    -13.39735  eV     1   --> A''            
     e( 23 - 23) =     -7.31658  eV     1   --> A'             
     e( 24 - 24) =     -6.43828  eV     1   --> A''            
     e( 25 - 25) =     -4.55244  eV     1   --> A'             
     e( 26 - 26) =     -4.25943  eV     1   --> A''            
     e( 27 - 27) =     -4.15079  eV     1   --> A'             
     e( 28 - 28) =     -3.41442  eV     1   --> A''            
     e( 29 - 29) =     -2.68802  eV     1   --> A'             
     e( 30 - 30) =      0.83666  eV     1   --> A'             
     e( 31 - 31) =      0.84245  eV     1   --> A''            
     e( 32 - 32) =      1.95965  eV     1   --> A'             
     e( 33 - 33) =      3.20249  eV     1   --> A''            
     e( 34 - 34) =      3.58967  eV     1   --> A'             
     e( 35 - 35) =      4.18289  eV     1   --> A''            

 **************************************************************************

 **************************************************************************

                    xk=(   0.26667,   0.46188,   0.00000  )

     Band symmetry, C_s (m)     point group:

     e(  1 -  1) =    -48.70674  eV     1   -->   ?
     e(  2 -  3) =    -48.70657  eV     2   -->   ?
     e(  4 -  4) =    -48.70639  eV     1   -->   ?
     e(  5 -  6) =    -48.67652  eV     2   -->   ?
     e(  7 -  8) =    -48.67634  eV     2   -->   ?
     e(  9 -  9) =    -48.66528  eV     1   -->   ?
     e( 10 - 10) =    -48.66511  eV     1   -->   ?
     e( 11 - 11) =    -16.14685  eV     1   --> A'             
     e( 12 - 12) =    -16.05443  eV     1   --> A''            
     e( 13 - 13) =    -16.02236  eV     1   --> A'             
     e( 14 - 14) =    -15.91309  eV     1   --> A'             
     e( 15 - 15) =    -15.82529  eV     1   --> A'             
     e( 16 - 16) =    -15.78119  eV     1   --> A'             
     e( 17 - 17) =    -15.77360  eV     1   --> A''            
     e( 18 - 18) =    -15.69856  eV     1   --> A''            
     e( 19 - 19) =    -15.67565  eV     1   --> A''            
     e( 20 - 20) =    -15.50485  eV     1   --> A''            
     e( 21 - 21) =    -13.40679  eV     1   --> A'             
     e( 22 - 22) =    -13.34715  eV     1   --> A''            
     e( 23 - 23) =     -7.34039  eV     1   --> A'             
     e( 24 - 24) =     -6.49830  eV     1   --> A''            
     e( 25 - 25) =     -4.70394  eV     1   --> A'             
     e( 26 - 26) =     -4.40451  eV     1   --> A''            
     e( 27 - 27) =     -4.03942  eV     1   --> A'             
     e( 28 - 28) =     -3.36803  eV     1   --> A''            
     e( 29 - 29) =     -2.80765  eV     1   --> A'             
     e( 30 - 30) =      0.74732  eV     1   --> A'             
     e( 31 - 31) =      0.84452  eV     1   --> A''            
     e( 32 - 32) =      1.95016  eV     1   --> A'             
     e( 33 - 33) =      3.14575  eV     1   --> A''            
     e( 34 - 34) =      3.72311  eV     1   --> A'             
     e( 35 - 35) =      4.41067  eV     1   --> A''            

 **************************************************************************

 **************************************************************************

                    xk=(   0.28333,   0.49075,   0.00000  )

     Band symmetry, C_s (m)     point group:

     e(  1 -  1) =    -48.70674  eV     1   -->   ?
     e(  2 -  3) =    -48.70660  eV     2   -->   ?
     e(  4 -  4) =    -48.70643  eV     1   -->   ?
     e(  5 -  6) =    -48.67652  eV     2   -->   ?
     e(  7 -  8) =    -48.67635  eV     2   -->   ?
     e(  9 -  9) =    -48.66528  eV     1   -->   ?
     e( 10 - 10) =    -48.66511  eV     1   -->   ?
     e( 11 - 11) =    -16.15060  eV     1   --> A'             
     e( 12 - 12) =    -16.05935  eV     1   --> A''            
     e( 13 - 13) =    -16.02206  eV     1   --> A'             
     e( 14 - 14) =    -15.91494  eV     1   --> A'             
     e( 15 - 15) =    -15.82333  eV     1   --> A'             
     e( 16 - 16) =    -15.78230  eV     1   --> A'             
     e( 17 - 17) =    -15.77312  eV     1   --> A''            
     e( 18 - 18) =    -15.69622  eV     1   --> A''            
     e( 19 - 19) =    -15.67825  eV     1   --> A''            
     e( 20 - 20) =    -15.50314  eV     1   --> A''            
     e( 21 - 21) =    -13.36552  eV     1   --> A'             
     e( 22 - 22) =    -13.30856  eV     1   --> A''            
     e( 23 - 23) =     -7.35451  eV     1   --> A'             
     e( 24 - 24) =     -6.53549  eV     1   --> A''            
     e( 25 - 25) =     -4.83088  eV     1   --> A'             
     e( 26 - 26) =     -4.52884  eV     1   --> A''            
     e( 27 - 27) =     -3.92496  eV     1   --> A'             
     e( 28 - 28) =     -3.33047  eV     1   --> A''            
     e( 29 - 29) =     -2.92070  eV     1   --> A'             
     e( 30 - 30) =      0.66590  eV     1   --> A'             
     e( 31 - 31) =      0.85280  eV     1   --> A''            
     e( 32 - 32) =      1.94938  eV     1   --> A'             
     e( 33 - 33) =      3.08866  eV     1   --> A''            
     e( 34 - 34) =      3.85634  eV     1   --> A'             
     e( 35 - 35) =      4.64667  eV     1   --> A''            

 **************************************************************************

 **************************************************************************

                    xk=(   0.30000,   0.51962,   0.00000  )

     Band symmetry, C_s (m)     point group:

     e(  1 -  2) =    -48.70670  eV     2   -->   ?
     e(  3 -  4) =    -48.70653  eV     2   -->   ?
     e(  5 -  6) =    -48.67650  eV     2   -->   ?
     e(  7 -  8) =    -48.67633  eV     2   -->   ?
     e(  9 -  9) =    -48.66528  eV     1   -->   ?
     e( 10 - 10) =    -48.66511  eV     1   -->   ?
     e( 11 - 11) =    -16.15290  eV     1   --> A'             
     e( 12 - 12) =    -16.06251  eV     1   --> A''            
     e( 13 - 13) =    -16.02184  eV     1   --> A'             
     e( 14 - 14) =    -15.91641  eV     1   --> A'             
     e( 15 - 15) =    -15.82136  eV     1   --> A'             
     e( 16 - 16) =    -15.78372  eV     1   --> A'             
     e( 17 - 17) =    -15.77297  eV     1   --> A''            
     e( 18 - 18) =    -15.69349  eV     1   --> A''            
     e( 19 - 19) =    -15.68105  eV     1   --> A''            
     e( 20 - 20) =    -15.50206  eV     1   --> A''            
     e( 21 - 21) =    -13.33691  eV     1   --> A'             
     e( 22 - 22) =    -13.28184  eV     1   --> A''            
     e( 23 - 23) =     -7.36009  eV     1   --> A'             
     e( 24 - 24) =     -6.55388  eV     1   --> A''            
     e( 25 - 25) =     -4.92748  eV     1   --> A'             
     e( 26 - 26) =     -4.62606  eV     1   --> A''            
     e( 27 - 27) =     -3.82214  eV     1   --> A'             
     e( 28 - 28) =     -3.30353  eV     1   --> A''            
     e( 29 - 29) =     -3.01732  eV     1   --> A'             
     e( 30 - 30) =      0.60122  eV     1   --> A'             
     e( 31 - 31) =      0.86564  eV     1   --> A''            
     e( 32 - 32) =      1.95073  eV     1   --> A'             
     e( 33 - 33) =      3.03939  eV     1   --> A''            
     e( 34 - 34) =      3.98011  eV     1   --> A'             
     e( 35 - 35) =      4.87915  eV     1   --> A''            

 **************************************************************************

 **************************************************************************

                    xk=(   0.31667,   0.54848,   0.00000  )

     Band symmetry, C_s (m)     point group:

     e(  1 -  2) =    -48.70671  eV     2   -->   ?
     e(  3 -  4) =    -48.70654  eV     2   -->   ?
     e(  5 -  6) =    -48.67651  eV     2   -->   ?
     e(  7 -  8) =    -48.67634  eV     2   -->   ?
     e(  9 -  9) =    -48.66528  eV     1   -->   ?
     e( 10 - 10) =    -48.66511  eV     1   -->   ?
     e( 11 - 11) =    -16.15404  eV     1   --> A'             
     e( 12 - 12) =    -16.06421  eV     1   --> A''            
     e( 13 - 13) =    -16.02170  eV     1   --> A'             
     e( 14 - 14) =    -15.91739  eV     1   --> A'             
     e( 15 - 15) =    -15.81985  eV     1   --> A'             
     e( 16 - 16) =    -15.78501  eV     1   --> A'             
     e( 17 - 17) =    -15.77302  eV     1   --> A''            
     e( 18 - 18) =    -15.69050  eV     1   --> A''            
     e( 19 - 19) =    -15.68405  eV     1   --> A''            
     e( 20 - 20) =    -15.50150  eV     1   --> A''            
     e( 21 - 21) =    -13.32058  eV     1   --> A'             
     e( 22 - 22) =    -13.26661  eV     1   --> A''            
     e( 23 - 23) =     -7.36028  eV     1   --> A'             
     e( 24 - 24) =     -6.55950  eV     1   --> A''            
     e( 25 - 25) =     -4.98836  eV     1   --> A'             
     e( 26 - 26) =     -4.68923  eV     1   --> A''            
     e( 27 - 27) =     -3.74956  eV     1   --> A'             
     e( 28 - 28) =     -3.28782  eV     1   --> A''            
     e( 29 - 29) =     -3.08348  eV     1   --> A'             
     e( 30 - 30) =      0.56013  eV     1   --> A'             
     e( 31 - 31) =      0.87842  eV     1   --> A''            
     e( 32 - 32) =      1.95080  eV     1   --> A'             
     e( 33 - 33) =      3.00614  eV     1   --> A''            
     e( 34 - 34) =      4.07638  eV     1   --> A'             
     e( 35 - 35) =      5.09372  eV     1   --> A''            

 **************************************************************************

 **************************************************************************

                    xk=(   0.33333,   0.57735,   0.00000  )

     point group C_3h (-6)  
     there are  6 classes
     the character table:

       E     C3    C3^2  s_h   S3    S3^5 
A'     1.00  1.00  1.00  1.00  1.00  1.00
E'     1.00 -0.50 -0.50  1.00 -0.50 -0.50
E'*    1.00 -0.50 -0.50  1.00 -0.50 -0.50
A''    1.00  1.00  1.00 -1.00 -1.00 -1.00
E''    1.00 -0.50 -0.50 -1.00  0.50  0.50
E''*   1.00 -0.50 -0.50 -1.00  0.50  0.50
     imaginary part
A'     0.00  0.00  0.00  0.00  0.00  0.00
E'     0.00  0.87 -0.87  0.00  0.87 -0.87
E'*    0.00 -0.87  0.87  0.00 -0.87  0.87
A''    0.00  0.00  0.00  0.00  0.00  0.00
E''    0.00  0.87 -0.87  0.00 -0.87  0.87
E''*   0.00 -0.87  0.87  0.00  0.87 -0.87

     the symmetry operations in each class and the name of the first element:

     E        1
                                                                 
     C3       2
                                                                 
     C3^2     3
                                                                 
     s_h      4
                                                                 
     S3       6
                                                                 
     S3^5     5
                                                                 

     Band symmetry, C_3h (-6)   point group:

     e(  1 -  2) =    -48.70669  eV     2   -->   ?
     e(  3 -  4) =    -48.70652  eV     2   -->   ?
     e(  5 -  6) =    -48.67651  eV     2   -->   ?
     e(  7 -  8) =    -48.67634  eV     2   -->   ?
     e(  9 -  9) =    -48.66528  eV     1   -->   ?
     e( 10 - 10) =    -48.66511  eV     1   -->   ?
     e( 11 - 11) =    -16.15435  eV     1   --> E'             
     e( 12 - 12) =    -16.06471  eV     1   --> E''            
     e( 13 - 13) =    -16.02166  eV     1   --> E'*            
     e( 14 - 14) =    -15.91774  eV     1   --> A'             
     e( 15 - 15) =    -15.81923  eV     1   --> E'             
     e( 16 - 16) =    -15.78557  eV     1   --> A'             
     e( 17 - 17) =    -15.77308  eV     1   --> A''            
     e( 18 - 18) =    -15.68776  eV     1   --> E''            
     e( 19 - 19) =    -15.68680  eV     1   --> A''            
     e( 20 - 20) =    -15.50134  eV     1   --> E''*           
     e( 21 - 21) =    -13.31548  eV     1   --> E'             
     e( 22 - 22) =    -13.26184  eV     1   --> E''            
     e( 23 - 23) =     -7.35936  eV     1   --> E'*            
     e( 24 - 24) =     -6.55972  eV     1   --> E''*           
     e( 25 - 25) =     -5.00925  eV     1   --> A'             
     e( 26 - 26) =     -4.71159  eV     1   --> A''            
     e( 27 - 27) =     -3.72417  eV     1   --> E'             
     e( 28 - 28) =     -3.28284  eV     1   --> E''            
     e( 29 - 29) =     -3.10608  eV     1   --> E'*            
     e( 30 - 30) =      0.54634  eV     1   --> A'             
     e( 31 - 31) =      0.88435  eV     1   --> E''*           
     e( 32 - 32) =      1.95004  eV     1   --> E'             
     e( 33 - 33) =      2.99469  eV     1   --> A''            
     e( 34 - 34) =      4.11622  eV     1   --> E'*            
     e( 35 - 35) =      5.22751  eV     1   --> E''            

 **************************************************************************

 **************************************************************************

                    xk=(   0.34167,   0.56292,   0.00000  )

     point group C_s (m)    
     there are  2 classes
     the character table:

       E     s    
A'     1.00  1.00
A''    1.00 -1.00

     the symmetry operations in each class and the name of the first element:

     E        1
                                                                 
     s        2
                                                                 

     Band symmetry, C_s (m)     point group:

     e(  1 -  2) =    -48.70669  eV     2   -->   ?
     e(  3 -  4) =    -48.70652  eV     2   -->   ?
     e(  5 -  6) =    -48.67650  eV     2   -->   ?
     e(  7 -  8) =    -48.67633  eV     2   -->   ?
     e(  9 -  9) =    -48.66528  eV     1   -->   ?
     e( 10 - 10) =    -48.66511  eV     1   -->   ?
     e( 11 - 11) =    -16.15429  eV     1   --> A'             
     e( 12 - 12) =    -16.06459  eV     1   --> A''            
     e( 13 - 13) =    -16.02167  eV     1   --> A'             
     e( 14 - 14) =    -15.91764  eV     1   --> A'             
     e( 15 - 15) =    -15.81940  eV     1   --> A'             
     e( 16 - 16) =    -15.78540  eV     1   --> A'             
     e( 17 - 17) =    -15.77305  eV     1   --> A''            
     e( 18 - 18) =    -15.68897  eV     1   --> A''            
     e( 19 - 19) =    -15.68555  eV     1   --> A''            
     e( 20 - 20) =    -15.50137  eV     1   --> A''            
     e( 21 - 21) =    -13.31664  eV     1   --> A'             
     e( 22 - 22) =    -13.26293  eV     1   --> A''            
     e( 23 - 23) =     -7.35983  eV     1   --> A'             
     e( 24 - 24) =     -6.56008  eV     1   --> A''            
     e( 25 - 25) =     -5.00399  eV     1   --> A'             
     e( 26 - 26) =     -4.70574  eV     1   --> A''            
     e( 27 - 27) =     -3.72980  eV     1   --> A'             
     e( 28 - 28) =     -3.28398  eV     1   --> A''            
     e( 29 - 29) =     -3.10125  eV     1   --> A'             
     e( 30 - 30) =      0.54959  eV     1   --> A'             
     e( 31 - 31) =      0.88242  eV     1   --> A''            
     e( 32 - 32) =      1.95062  eV     1   --> A'             
     e( 33 - 33) =      2.99729  eV     1   --> A''            
     e( 34 - 34) =      4.10423  eV     1   --> A'             
     e( 35 - 35) =      5.17460  eV     1   --> A''            

 **************************************************************************

 **************************************************************************

                    xk=(   0.35000,   0.54848,   0.00000  )

     Band symmetry, C_s (m)     point group:

     e(  1 -  2) =    -48.70671  eV     2   -->   ?
     e(  3 -  4) =    -48.70654  eV     2   -->   ?
     e(  5 -  6) =    -48.67651  eV     2   -->   ?
     e(  7 -  8) =    -48.67633  eV     2   -->   ?
     e(  9 -  9) =    -48.66528  eV     1   -->   ?
     e( 10 - 10) =    -48.66511  eV     1   -->   ?
     e( 11 - 11) =    -16.15415  eV     1   --> A'             
     e( 12 - 12) =    -16.06431  eV     1   --> A''            
     e( 13 - 13) =    -16.02170  eV     1   --> A'             
     e( 14 - 14) =    -15.91736  eV     1   --> A'             
     e( 15 - 15) =    -15.81994  eV     1   --> A'             
     e( 16 - 16) =    -15.78490  eV     1   --> A'             
     e( 17 - 17) =    -15.77296  eV     1   --> A''            
     e( 18 - 18) =    -15.69063  eV     1   --> A''            
     e( 19 - 19) =    -15.68393  eV     1   --> A''            
     e( 20 - 20) =    -15.50146  eV     1   --> A''            
     e( 21 - 21) =    -13.31997  eV     1   --> A'             
     e( 22 - 22) =    -13.26604  eV     1   --> A''            
     e( 23 - 23) =     -7.36149  eV     1   --> A'             
     e( 24 - 24) =     -6.56160  eV     1   --> A''            
     e( 25 - 25) =     -4.98830  eV     1   --> A'             
     e( 26 - 26) =     -4.68800  eV     1   --> A''            
     e( 27 - 27) =     -3.74483  eV     1   --> A'             
     e( 28 - 28) =     -3.28724  eV     1   --> A''            
     e( 29 - 29) =     -3.08862  eV     1   --> A'             
     e( 30 - 30) =      0.55879  eV     1   --> A'             
     e( 31 - 31) =      0.87608  eV     1   --> A''            
     e( 32 - 32) =      1.95303  eV     1   --> A'             
     e( 33 - 33) =      3.00415  eV     1   --> A''            
     e( 34 - 34) =      4.06643  eV     1   --> A'             
     e( 35 - 35) =      5.05776  eV     1   --> A''            

 **************************************************************************

 **************************************************************************

                    xk=(   0.35833,   0.53405,   0.00000  )

     Band symmetry, C_s (m)     point group:

     e(  1 -  2) =    -48.70670  eV     2   -->   ?
     e(  3 -  4) =    -48.70653  eV     2   -->   ?
     e(  5 -  6) =    -48.67649  eV     2   -->   ?
     e(  7 -  8) =    -48.67632  eV     2   -->   ?
     e(  9 -  9) =    -48.66527  eV     1   -->   ?
     e( 10 - 10) =    -48.66510  eV     1   -->   ?
     e( 11 - 11) =    -16.15396  eV     1   --> A'             
     e( 12 - 12) =    -16.06388  eV     1   --> A''            
     e( 13 - 13) =    -16.02170  eV     1   --> A'             
     e( 14 - 14) =    -15.91689  eV     1   --> A'             
     e( 15 - 15) =    -15.82079  eV     1   --> A'             
     e( 16 - 16) =    -15.78404  eV     1   --> A'             
     e( 17 - 17) =    -15.77279  eV     1   --> A''            
     e( 18 - 18) =    -15.69235  eV     1   --> A''            
     e( 19 - 19) =    -15.68226  eV     1   --> A''            
     e( 20 - 20) =    -15.50160  eV     1   --> A''            
     e( 21 - 21) =    -13.32520  eV     1   --> A'             
     e( 22 - 22) =    -13.27092  eV     1   --> A''            
     e( 23 - 23) =     -7.36463  eV     1   --> A'             
     e( 24 - 24) =     -6.56481  eV     1   --> A''            
     e( 25 - 25) =     -4.96258  eV     1   --> A'             
     e( 26 - 26) =     -4.65831  eV     1   --> A''            
     e( 27 - 27) =     -3.76616  eV     1   --> A'             
     e( 28 - 28) =     -3.29234  eV     1   --> A''            
     e( 29 - 29) =     -3.07117  eV     1   --> A'             
     e( 30 - 30) =      0.57275  eV     1   --> A'             
     e( 31 - 31) =      0.86465  eV     1   --> A''            
     e( 32 - 32) =      1.95856  eV     1   --> A'             
     e( 33 - 33) =      3.01301  eV     1   --> A''            
     e( 34 - 34) =      4.00185  eV     1   --> A'             
     e( 35 - 35) =      4.92073  eV     1   --> A''            

 **************************************************************************

 **************************************************************************

                    xk=(   0.36667,   0.51962,   0.00000  )

     Band symmetry, C_s (m)     point group:

     e(  1 -  1) =    -48.70673  eV     1   -->   ?
     e(  2 -  3) =    -48.70663  eV     2   -->   ?
     e(  4 -  4) =    -48.70646  eV     1   -->   ?
     e(  5 -  6) =    -48.67649  eV     2   -->   ?
     e(  7 -  8) =    -48.67632  eV     2   -->   ?
     e(  9 -  9) =    -48.66528  eV     1   -->   ?
     e( 10 - 10) =    -48.66511  eV     1   -->   ?
     e( 11 - 11) =    -16.15378  eV     1   --> A'             
     e( 12 - 12) =    -16.06335  eV     1   --> A''            
     e( 13 - 13) =    -16.02172  eV     1   --> A'             
     e( 14 - 14) =    -15.91625  eV     1   --> A'             
     e( 15 - 15) =    -15.82197  eV     1   --> A'             
     e( 16 - 16) =    -15.78288  eV     1   --> A'             
     e( 17 - 17) =    -15.77256  eV     1   --> A''            
     e( 18 - 18) =    -15.69408  eV     1   --> A''            
     e( 19 - 19) =    -15.68059  eV     1   --> A''            
     e( 20 - 20) =    -15.50179  eV     1   --> A''            
     e( 21 - 21) =    -13.33206  eV     1   --> A'             
     e( 22 - 22) =    -13.27732  eV     1   --> A''            
     e( 23 - 23) =     -7.36938  eV     1   --> A'             
     e( 24 - 24) =     -6.57001  eV     1   --> A''            
     e( 25 - 25) =     -4.92756  eV     1   --> A'             
     e( 26 - 26) =     -4.61690  eV     1   --> A''            
     e( 27 - 27) =     -3.79076  eV     1   --> A'             
     e( 28 - 28) =     -3.29901  eV     1   --> A''            
     e( 29 - 29) =     -3.05156  eV     1   --> A'             
     e( 30 - 30) =      0.58974  eV     1   --> A'             
     e( 31 - 31) =      0.84759  eV     1   --> A''            
     e( 32 - 32) =      1.96877  eV     1   --> A'             
     e( 33 - 33) =      3.02028  eV     1   --> A''            
     e( 34 - 34) =      3.91210  eV     1   --> A'             
     e( 35 - 35) =      4.78302  eV     1   --> A''            

 **************************************************************************

 **************************************************************************

                    xk=(   0.37500,   0.50518,   0.00000  )

     Band symmetry, C_s (m)     point group:

     e(  1 -  1) =    -48.70673  eV     1   -->   ?
     e(  2 -  3) =    -48.70662  eV     2   -->   ?
     e(  4 -  4) =    -48.70645  eV     1   -->   ?
     e(  5 -  6) =    -48.67649  eV     2   -->   ?
     e(  7 -  8) =    -48.67632  eV     2   -->   ?
     e(  9 -  9) =    -48.66527  eV     1   -->   ?
     e( 10 - 10) =    -48.66510  eV     1   -->   ?
     e( 11 - 11) =    -16.15361  eV     1   --> A'             
     e( 12 - 12) =    -16.06274  eV     1   --> A''            
     e( 13 - 13) =    -16.02173  eV     1   --> A'             
     e( 14 - 14) =    -15.91543  eV     1   --> A'             
     e( 15 - 15) =    -15.82337  eV     1   --> A'             
     e( 16 - 16) =    -15.78147  eV     1   --> A'             
     e( 17 - 17) =    -15.77220  eV     1   --> A''            
     e( 18 - 18) =    -15.69583  eV     1   --> A''            
     e( 19 - 19) =    -15.67895  eV     1   --> A''            
     e( 20 - 20) =    -15.50199  eV     1   --> A''            
     e( 21 - 21) =    -13.34027  eV     1   --> A'             
     e( 22 - 22) =    -13.28498  eV     1   --> A''            
     e( 23 - 23) =     -7.37579  eV     1   --> A'             
     e( 24 - 24) =     -6.57727  eV     1   --> A''            
     e( 25 - 25) =     -4.88432  eV     1   --> A'             
     e( 26 - 26) =     -4.56434  eV     1   --> A''            
     e( 27 - 27) =     -3.81598  eV     1   --> A'             
     e( 28 - 28) =     -3.30694  eV     1   --> A''            
     e( 29 - 29) =     -3.03183  eV     1   --> A'             
     e( 30 - 30) =      0.60753  eV     1   --> A'             
     e( 31 - 31) =      0.82457  eV     1   --> A''            
     e( 32 - 32) =      1.98547  eV     1   --> A'             
     e( 33 - 33) =      3.02087  eV     1   --> A''            
     e( 34 - 34) =      3.80111  eV     1   --> A'             
     e( 35 - 35) =      4.65745  eV     1   --> A''            

 **************************************************************************

 **************************************************************************

                    xk=(   0.38333,   0.49075,   0.00000  )

     Band symmetry, C_s (m)     point group:

     e(  1 -  1) =    -48.70673  eV     1   -->   ?
     e(  2 -  3) =    -48.70659  eV     2   -->   ?
     e(  4 -  4) =    -48.70642  eV     1   -->   ?
     e(  5 -  6) =    -48.67649  eV     2   -->   ?
     e(  7 -  8) =    -48.67632  eV     2   -->   ?
     e(  9 -  9) =    -48.66526  eV     1   -->   ?
     e( 10 - 10) =    -48.66510  eV     1   -->   ?
     e( 11 - 11) =    -16.15347  eV     1   --> A'             
     e( 12 - 12) =    -16.06208  eV     1   --> A''            
     e( 13 - 13) =    -16.02172  eV     1   --> A'             
     e( 14 - 14) =    -15.91441  eV     1   --> A'             
     e( 15 - 15) =    -15.82495  eV     1   --> A'             
     e( 16 - 16) =    -15.77984  eV     1   --> A'             
     e( 17 - 17) =    -15.77172  eV     1   --> A''            
     e( 18 - 18) =    -15.69760  eV     1   --> A''            
     e( 19 - 19) =    -15.67730  eV     1   --> A''            
     e( 20 - 20) =    -15.50221  eV     1   --> A''            
     e( 21 - 21) =    -13.34954  eV     1   --> A'             
     e( 22 - 22) =    -13.29363  eV     1   --> A''            
     e( 23 - 23) =     -7.38372  eV     1   --> A'             
     e( 24 - 24) =     -6.58648  eV     1   --> A''            
     e( 25 - 25) =     -4.83438  eV     1   --> A'             
     e( 26 - 26) =     -4.50148  eV     1   --> A''            
     e( 27 - 27) =     -3.83951  eV     1   --> A'             
     e( 28 - 28) =     -3.31584  eV     1   --> A''            
     e( 29 - 29) =     -3.01331  eV     1   --> A'             
     e( 30 - 30) =      0.62348  eV     1   --> A'             
     e( 31 - 31) =      0.79538  eV     1   --> A''            
     e( 32 - 32) =      2.01065  eV     1   --> A'             
     e( 33 - 33) =      3.00868  eV     1   --> A''            
     e( 34 - 34) =      3.67424  eV     1   --> A'             
     e( 35 - 35) =      4.55486  eV     1   --> A''            

 **************************************************************************

 **************************************************************************

                    xk=(   0.39167,   0.47631,   0.00000  )

     Band symmetry, C_s (m)     point group:

     e(  1 -  1) =    -48.70674  eV     1   -->   ?
     e(  2 -  3) =    -48.70660  eV     2   -->   ?
     e(  4 -  4) =    -48.70643  eV     1   -->   ?
     e(  5 -  6) =    -48.67650  eV     2   -->   ?
     e(  7 -  8) =    -48.67633  eV     2   -->   ?
     e(  9 -  9) =    -48.66527  eV     1   -->   ?
     e( 10 - 10) =    -48.66510  eV     1   -->   ?
     e( 11 - 11) =    -16.15341  eV     1   --> A'             
     e( 12 - 12) =    -16.06142  eV     1   --> A''            
     e( 13 - 13) =    -16.02173  eV     1   --> A'             
     e( 14 - 14) =    -15.91327  eV     1   --> A'             
     e( 15 - 15) =    -15.82668  eV     1   --> A'             
     e( 16 - 16) =    -15.77811  eV     1   --> A'             
     e( 17 - 17) =    -15.77114  eV     1   --> A''            
     e( 18 - 18) =    -15.69936  eV     1   --> A''            
     e( 19 - 19) =    -15.67573  eV     1   --> A''            
     e( 20 - 20) =    -15.50243  eV     1   --> A''            
     e( 21 - 21) =    -13.35959  eV     1   --> A'             
     e( 22 - 22) =    -13.30302  eV     1   --> A''            
     e( 23 - 23) =     -7.39298  eV     1   --> A'             
     e( 24 - 24) =     -6.59737  eV     1   --> A''            
     e( 25 - 25) =     -4.77968  eV     1   --> A'             
     e( 26 - 26) =     -4.42944  eV     1   --> A''            
     e( 27 - 27) =     -3.85925  eV     1   --> A'             
     e( 28 - 28) =     -3.32540  eV     1   --> A''            
     e( 29 - 29) =     -2.99684  eV     1   --> A'             
     e( 30 - 30) =      0.63477  eV     1   --> A'             
     e( 31 - 31) =      0.75997  eV     1   --> A''            
     e( 32 - 32) =      2.04623  eV     1   --> A'             
     e( 33 - 33) =      2.97792  eV     1   --> A''            
     e( 34 - 34) =      3.53740  eV     1   --> A'             
     e( 35 - 35) =      4.48418  eV     1   --> A''            

 **************************************************************************

 **************************************************************************

                    xk=(   0.40000,   0.46188,   0.00000  )

     Band symmetry, C_s (m)     point group:

     e(  1 -  1) =    -48.70679  eV     1   -->   ?
     e(  2 -  3) =    -48.70662  eV     2   -->   ?
     e(  4 -  4) =    -48.70642  eV     1   -->   ?
     e(  5 -  6) =    -48.67651  eV     2   -->   ?
     e(  7 -  8) =    -48.67634  eV     2   -->   ?
     e(  9 -  9) =    -48.66529  eV     1   -->   ?
     e( 10 - 10) =    -48.66511  eV     1   -->   ?
     e( 11 - 11) =    -16.15343  eV     1   --> A'             
     e( 12 - 12) =    -16.06080  eV     1   --> A''            
     e( 13 - 13) =    -16.02173  eV     1   --> A'             
     e( 14 - 14) =    -15.91203  eV     1   --> A'             
     e( 15 - 15) =    -15.82849  eV     1   --> A'             
     e( 16 - 16) =    -15.77628  eV     1   --> A'             
     e( 17 - 17) =    -15.77046  eV     1   --> A''            
     e( 18 - 18) =    -15.70113  eV     1   --> A''            
     e( 19 - 19) =    -15.67423  eV     1   --> A''            
     e( 20 - 20) =    -15.50269  eV     1   --> A''            
     e( 21 - 21) =    -13.37015  eV     1   --> A'             
     e( 22 - 22) =    -13.31288  eV     1   --> A''            
     e( 23 - 23) =     -7.40329  eV     1   --> A'             
     e( 24 - 24) =     -6.60957  eV     1   --> A''            
     e( 25 - 25) =     -4.72267  eV     1   --> A'             
     e( 26 - 26) =     -4.34956  eV     1   --> A''            
     e( 27 - 27) =     -3.87315  eV     1   --> A'             
     e( 28 - 28) =     -3.33533  eV     1   --> A''            
     e( 29 - 29) =     -2.98279  eV     1   --> A'             
     e( 30 - 30) =      0.63868  eV     1   --> A'             
     e( 31 - 31) =      0.71842  eV     1   --> A''            
     e( 32 - 32) =      2.09382  eV     1   --> A'             
     e( 33 - 33) =      2.92547  eV     1   --> A''            
     e( 34 - 34) =      3.39634  eV     1   --> A'             
     e( 35 - 35) =      4.45080  eV     1   --> A''            

 **************************************************************************

 **************************************************************************

                    xk=(   0.40833,   0.44745,   0.00000  )

     Band symmetry, C_s (m)     point group:

     e(  1 -  1) =    -48.70679  eV     1   -->   ?
     e(  2 -  3) =    -48.70662  eV     2   -->   ?
     e(  4 -  4) =    -48.70640  eV     1   -->   ?
     e(  5 -  6) =    -48.67651  eV     2   -->   ?
     e(  7 -  8) =    -48.67634  eV     2   -->   ?
     e(  9 -  9) =    -48.66528  eV     1   -->   ?
     e( 10 - 10) =    -48.66510  eV     1   -->   ?
     e( 11 - 11) =    -16.15349  eV     1   --> A'             
     e( 12 - 12) =    -16.06019  eV     1   --> A''            
     e( 13 - 13) =    -16.02171  eV     1   --> A'             
     e( 14 - 14) =    -15.91064  eV     1   --> A'             
     e( 15 - 15) =    -15.83029  eV     1   --> A'             
     e( 16 - 16) =    -15.77439  eV     1   --> A'             
     e( 17 - 17) =    -15.76962  eV     1   --> A''            
     e( 18 - 18) =    -15.70286  eV     1   --> A''            
     e( 19 - 19) =    -15.67278  eV     1   --> A''            
     e( 20 - 20) =    -15.50290  eV     1   --> A''            
     e( 21 - 21) =    -13.38094  eV     1   --> A'             
     e( 22 - 22) =    -13.32295  eV     1   --> A''            
     e( 23 - 23) =     -7.41432  eV     1   --> A'             
     e( 24 - 24) =     -6.62267  eV     1   --> A''            
     e( 25 - 25) =     -4.66622  eV     1   --> A'             
     e( 26 - 26) =     -4.26343  eV     1   --> A''            
     e( 27 - 27) =     -3.87910  eV     1   --> A'             
     e( 28 - 28) =     -3.34531  eV     1   --> A''            
     e( 29 - 29) =     -2.97130  eV     1   --> A'             
     e( 30 - 30) =      0.63306  eV     1   --> A'             
     e( 31 - 31) =      0.67094  eV     1   --> A''            
     e( 32 - 32) =      2.15433  eV     1   --> A'             
     e( 33 - 33) =      2.85263  eV     1   --> A''            
     e( 34 - 34) =      3.25630  eV     1   --> A'             
     e( 35 - 35) =      4.45504  eV     1   --> A''            

 **************************************************************************

 **************************************************************************

                    xk=(   0.41667,   0.43301,   0.00000  )

     Band symmetry, C_s (m)     point group:

     e(  1 -  1) =    -48.70680  eV     1   -->   ?
     e(  2 -  3) =    -48.70663  eV     2   -->   ?
     e(  4 -  4) =    -48.70639  eV     1   -->   ?
     e(  5 -  6) =    -48.67651  eV     2   -->   ?
     e(  7 -  8) =    -48.67633  eV     2   -->   ?
     e(  9 -  9) =    -48.66527  eV     1   -->   ?
     e( 10 - 10) =    -48.66510  eV     1   -->   ?
     e( 11 - 11) =    -16.15363  eV     1   --> A'             
     e( 12 - 12) =    -16.05961  eV     1   --> A''            
     e( 13 - 13) =    -16.02168  eV     1   --> A'             
     e( 14 - 14) =    -15.90919  eV     1   --> A'             
     e( 15 - 15) =    -15.83209  eV     1   --> A'             
     e( 16 - 16) =    -15.77253  eV     1   -->   ?
     e( 17 - 17) =    -15.76869  eV     1   -->   ?
     e( 18 - 18) =    -15.70456  eV     1   --> A''            
     e( 19 - 19) =    -15.67139  eV     1   --> A''            
     e( 20 - 20) =    -15.50311  eV     1   --> A''            
     e( 21 - 21) =    -13.39171  eV     1   --> A'             
     e( 22 - 22) =    -13.33302  eV     1   --> A''            
     e( 23 - 23) =     -7.42573  eV     1   --> A'             
     e( 24 - 24) =     -6.63620  eV     1   --> A''            
     e( 25 - 25) =     -4.61348  eV     1   --> A'             
     e( 26 - 26) =     -4.17279  eV     1   --> A''            
     e( 27 - 27) =     -3.87509  eV     1   --> A'             
     e( 28 - 28) =     -3.35508  eV     1   --> A''            
     e( 29 - 29) =     -2.96228  eV     1   --> A'             
     e( 30 - 30) =      0.61664  eV     1   --> A'             
     e( 31 - 31) =      0.61796  eV     1   --> A''            
     e( 32 - 32) =      2.22765  eV     1   --> A'             
     e( 33 - 33) =      2.76462  eV     1   --> A''            
     e( 34 - 34) =      3.12187  eV     1   --> A'             
     e( 35 - 35) =      4.49272  eV     1   --> A''            

 **************************************************************************

 **************************************************************************

                    xk=(   0.42500,   0.41858,   0.00000  )

     Band symmetry, C_s (m)     point group:

     e(  1 -  1) =    -48.70681  eV     1   -->   ?
     e(  2 -  2) =    -48.70664  eV     1   -->   ?
     e(  3 -  3) =    -48.70650  eV     1   -->   ?
     e(  4 -  4) =    -48.70633  eV     1   -->   ?
     e(  5 -  6) =    -48.67650  eV     2   -->   ?
     e(  7 -  8) =    -48.67632  eV     2   -->   ?
     e(  9 -  9) =    -48.66526  eV     1   -->   ?
     e( 10 - 10) =    -48.66508  eV     1   -->   ?
     e( 11 - 11) =    -16.15381  eV     1   --> A'             
     e( 12 - 12) =    -16.05908  eV     1   --> A''            
     e( 13 - 13) =    -16.02163  eV     1   --> A'             
     e( 14 - 14) =    -15.90770  eV     1   --> A'             
     e( 15 - 15) =    -15.83383  eV     1   --> A'             
     e( 16 - 16) =    -15.77064  eV     1   -->   ?
     e( 17 - 17) =    -15.76767  eV     1   -->   ?
     e( 18 - 18) =    -15.70619  eV     1   --> A''            
     e( 19 - 19) =    -15.67009  eV     1   --> A''            
     e( 20 - 20) =    -15.50332  eV     1   --> A''            
     e( 21 - 21) =    -13.40223  eV     1   --> A'             
     e( 22 - 22) =    -13.34284  eV     1   --> A''            
     e( 23 - 23) =     -7.43718  eV     1   --> A'             
     e( 24 - 24) =     -6.64976  eV     1   --> A''            
     e( 25 - 25) =     -4.56744  eV     1   --> A'             
     e( 26 - 26) =     -4.07963  eV     1   --> A''            
     e( 27 - 27) =     -3.85959  eV     1   --> A'             
     e( 28 - 28) =     -3.36432  eV     1   --> A''            
     e( 29 - 29) =     -2.95552  eV     1   --> A'             
     e( 30 - 30) =      0.56013  eV     1   --> A''            
     e( 31 - 31) =      0.58924  eV     1   --> A'             
     e( 32 - 32) =      2.31239  eV     1   --> A'             
     e( 33 - 33) =      2.66849  eV     1   --> A''            
     e( 34 - 34) =      2.99712  eV     1   --> A'             
     e( 35 - 35) =      4.55740  eV     1   --> A''            

 **************************************************************************

 **************************************************************************

                    xk=(   0.43333,   0.40415,   0.00000  )

     Band symmetry, C_s (m)     point group:

     e(  1 -  1) =    -48.70679  eV     1   -->   ?
     e(  2 -  2) =    -48.70662  eV     1   -->   ?
     e(  3 -  3) =    -48.70647  eV     1   -->   ?
     e(  4 -  4) =    -48.70630  eV     1   -->   ?
     e(  5 -  6) =    -48.67651  eV     2   -->   ?
     e(  7 -  8) =    -48.67633  eV     2   -->   ?
     e(  9 -  9) =    -48.66524  eV     1   -->   ?
     e( 10 - 10) =    -48.66507  eV     1   -->   ?
     e( 11 - 11) =    -16.15405  eV     1   --> A'             
     e( 12 - 12) =    -16.05862  eV     1   --> A''            
     e( 13 - 13) =    -16.02157  eV     1   --> A'             
     e( 14 - 14) =    -15.90620  eV     1   --> A'             
     e( 15 - 15) =    -15.83547  eV     1   --> A'             
     e( 16 - 16) =    -15.76888  eV     1   -->   ?
     e( 17 - 17) =    -15.76661  eV     1   -->   ?
     e( 18 - 18) =    -15.70777  eV     1   --> A''            
     e( 19 - 19) =    -15.66889  eV     1   --> A''            
     e( 20 - 20) =    -15.50350  eV     1   --> A''            
     e( 21 - 21) =    -13.41226  eV     1   --> A'             
     e( 22 - 22) =    -13.35222  eV     1   --> A''            
     e( 23 - 23) =     -7.44834  eV     1   --> A'             
     e( 24 - 24) =     -6.66293  eV     1   --> A''            
     e( 25 - 25) =     -4.53023  eV     1   --> A'             
     e( 26 - 26) =     -3.98612  eV     1   --> A''            
     e( 27 - 27) =     -3.83218  eV     1   --> A'             
     e( 28 - 28) =     -3.37275  eV     1   --> A''            
     e( 29 - 29) =     -2.95075  eV     1   --> A'             
     e( 30 - 30) =      0.49851  eV     1   --> A''            
     e( 31 - 31) =      0.55184  eV     1   --> A'             
     e( 32 - 32) =      2.40528  eV     1   --> A'             
     e( 33 - 33) =      2.57100  eV     1   --> A''            
     e( 34 - 34) =      2.88616  eV     1   --> A'             
     e( 35 - 35) =      4.64228  eV     1   --> A''            

 **************************************************************************

 **************************************************************************

                    xk=(   0.44167,   0.38971,   0.00000  )

     Band symmetry, C_s (m)     point group:

     e(  1 -  1) =    -48.70679  eV     1   -->   ?
     e(  2 -  2) =    -48.70662  eV     1   -->   ?
     e(  3 -  3) =    -48.70647  eV     1   -->   ?
     e(  4 -  4) =    -48.70630  eV     1   -->   ?
     e(  5 -  6) =    -48.67650  eV     2   -->   ?
     e(  7 -  8) =    -48.67633  eV     2   -->   ?
     e(  9 -  9) =    -48.66524  eV     1   -->   ?
     e( 10 - 10) =    -48.66507  eV     1   -->   ?
     e( 11 - 11) =    -16.15432  eV     1   --> A'             
     e( 12 - 12) =    -16.05823  eV     1   --> A''            
     e( 13 - 13) =    -16.02153  eV     1   --> A'             
     e( 14 - 14) =    -15.90474  eV     1   --> A'             
     e( 15 - 15) =    -15.83701  eV     1   --> A'             
     e( 16 - 16) =    -15.76726  eV     1   -->   ?
     e( 17 - 17) =    -15.76553  eV     1   -->   ?
     e( 18 - 18) =    -15.70927  eV     1   --> A''            
     e( 19 - 19) =    -15.66780  eV     1   --> A''            
     e( 20 - 20) =    -15.50369  eV     1   --> A''            
     e( 21 - 21) =    -13.42162  eV     1   --> A'             
     e( 22 - 22) =    -13.36096  eV     1   --> A''            
     e( 23 - 23) =     -7.45891  eV     1   --> A'             
     e( 24 - 24) =     -6.67536  eV     1   --> A''            
     e( 25 - 25) =     -4.50251  eV     1   --> A'             
     e( 26 - 26) =     -3.89471  eV     1   --> A''            
     e( 27 - 27) =     -3.79417  eV     1   --> A'             
     e( 28 - 28) =     -3.38002  eV     1   --> A''            
     e( 29 - 29) =     -2.94766  eV     1   --> A'             
     e( 30 - 30) =      0.43458  eV     1   --> A''            
     e( 31 - 31) =      0.50645  eV     1   --> A'             
     e( 32 - 32) =      2.47761  eV     1   --> A''            
     e( 33 - 33) =      2.49862  eV     1   --> A'             
     e( 34 - 34) =      2.79581  eV     1   --> A'             
     e( 35 - 35) =      4.74119  eV     1   --> A''            

 **************************************************************************

 **************************************************************************

                    xk=(   0.45000,   0.37528,   0.00000  )

     Band symmetry, C_s (m)     point group:

     e(  1 -  1) =    -48.70680  eV     1   -->   ?
     e(  2 -  2) =    -48.70663  eV     1   -->   ?
     e(  3 -  3) =    -48.70645  eV     1   -->   ?
     e(  4 -  4) =    -48.70628  eV     1   -->   ?
     e(  5 -  6) =    -48.67650  eV     2   -->   ?
     e(  7 -  8) =    -48.67633  eV     2   -->   ?
     e(  9 -  9) =    -48.66523  eV     1   -->   ?
     e( 10 - 10) =    -48.66506  eV     1   -->   ?
     e( 11 - 11) =    -16.15461  eV     1   --> A'             
     e( 12 - 12) =    -16.05788  eV     1   --> A''            
[...]
     e( 10 - 10) =    -48.66521  eV     1   -->   ?
     e( 11 - 11) =    -16.07461  eV     1   --> A_1  D_1  S_1  
     e( 12 - 12) =    -15.98416  eV     1   --> A_1  D_1  S_1  
     e( 13 - 13) =    -15.92096  eV     1   --> B_2  D_4  S_4  
     e( 14 - 14) =    -15.89729  eV     1   --> B_1  D_3  S_3  
     e( 15 - 15) =    -15.82811  eV     1   --> A_1  D_1  S_1  
     e( 16 - 16) =    -15.80258  eV     1   -->   ?
     e( 17 - 17) =    -15.80196  eV     1   -->   ?
     e( 18 - 18) =    -15.69465  eV     1   --> B_2  D_4  S_4  
     e( 19 - 19) =    -15.65988  eV     1   --> A_2  D_2  S_2  
     e( 20 - 20) =    -15.55584  eV     1   --> B_2  D_4  S_4  
     e( 21 - 21) =    -14.13190  eV     1   --> A_1  D_1  S_1  
     e( 22 - 22) =    -14.03435  eV     1   --> B_2  D_4  S_4  
     e( 23 - 23) =     -7.17128  eV     1   --> A_1  D_1  S_1  
     e( 24 - 24) =     -5.35343  eV     1   --> B_2  D_4  S_4  
     e( 25 - 25) =     -3.94701  eV     1   --> A_1  D_1  S_1  
     e( 26 - 26) =     -3.58932  eV     1   --> B_2  D_4  S_4  
     e( 27 - 27) =     -2.95135  eV     1   --> B_1  D_3  S_3  
     e( 28 - 28) =     -2.83807  eV     1   --> A_2  D_2  S_2  
     e( 29 - 29) =     -2.06384  eV     1   --> A_1  D_1  S_1  
     e( 30 - 30) =      0.43348  eV     1   --> B_2  D_4  S_4  
     e( 31 - 31) =      1.14660  eV     1   --> A_1  D_1  S_1  
     e( 32 - 32) =      2.38713  eV     1   --> A_1  D_1  S_1  
     e( 33 - 33) =      2.97871  eV     1   --> B_2  D_4  S_4  
     e( 34 - 34) =      3.12356  eV     1   --> B_1  D_3  S_3  
     e( 35 - 35) =      3.90451  eV     1   --> A_1  D_1  S_1  

 **************************************************************************

 **************************************************************************

                    xk=(   0.17500,   0.10104,   0.00000  )

     Band symmetry, C_2v (mm2)  point group:

     e(  1 -  4) =    -48.70689  eV     4   --> A_1  D_1  S_1  
     e(  1 -  4) =    -48.70689  eV     4   --> A_2  D_2  S_2  
     e(  1 -  4) =    -48.70689  eV     4   --> B_1  D_3  S_3  
     e(  1 -  4) =    -48.70689  eV     4   --> B_2  D_4  S_4  
     e(  5 -  6) =    -48.67648  eV     2   -->   ?
     e(  7 -  8) =    -48.67631  eV     2   -->   ?
     e(  9 -  9) =    -48.66539  eV     1   -->   ?
     e( 10 - 10) =    -48.66522  eV     1   -->   ?
     e( 11 - 11) =    -16.07264  eV     1   --> A_1  D_1  S_1  
     e( 12 - 12) =    -15.96999  eV     1   --> A_1  D_1  S_1  
     e( 13 - 13) =    -15.90248  eV     1   --> B_2  D_4  S_4  
     e( 14 - 14) =    -15.89757  eV     1   --> B_1  D_3  S_3  
     e( 15 - 15) =    -15.82645  eV     1   --> A_1  D_1  S_1  
     e( 16 - 17) =    -15.80659  eV     2   --> A_2  D_2  S_2  
     e( 16 - 17) =    -15.80659  eV     2   --> B_1  D_3  S_3  
     e( 18 - 18) =    -15.69095  eV     1   --> B_2  D_4  S_4  
     e( 19 - 19) =    -15.65933  eV     1   --> A_2  D_2  S_2  
     e( 20 - 20) =    -15.56363  eV     1   --> B_2  D_4  S_4  
     e( 21 - 21) =    -14.20023  eV     1   --> A_1  D_1  S_1  
     e( 22 - 22) =    -14.09978  eV     1   --> B_2  D_4  S_4  
     e( 23 - 23) =     -7.18992  eV     1   --> A_1  D_1  S_1  
     e( 24 - 24) =     -5.25296  eV     1   --> B_2  D_4  S_4  
     e( 25 - 25) =     -3.74338  eV     1   --> A_1  D_1  S_1  
     e( 26 - 26) =     -3.47862  eV     1   --> B_2  D_4  S_4  
     e( 27 - 27) =     -2.87523  eV     1   --> B_1  D_3  S_3  
     e( 28 - 28) =     -2.76974  eV     1   --> A_2  D_2  S_2  
     e( 29 - 29) =     -2.04758  eV     1   --> A_1  D_1  S_1  
     e( 30 - 30) =      0.33415  eV     1   --> B_2  D_4  S_4  
     e( 31 - 31) =      1.29213  eV     1   --> A_1  D_1  S_1  
     e( 32 - 32) =      2.23660  eV     1   --> A_1  D_1  S_1  
     e( 33 - 33) =      3.09229  eV     1   --> B_1  D_3  S_3  
     e( 34 - 34) =      3.11738  eV     1   --> B_2  D_4  S_4  
     e( 35 - 35) =      3.81883  eV     1   --> A_1  D_1  S_1  

 **************************************************************************

 **************************************************************************

                    xk=(   0.15000,   0.08660,   0.00000  )

     Band symmetry, C_2v (mm2)  point group:

     e(  1 -  2) =    -48.70692  eV     2   -->   ?
     e(  3 -  4) =    -48.70675  eV     2   -->   ?
     e(  5 -  6) =    -48.67647  eV     2   -->   ?
     e(  7 -  8) =    -48.67630  eV     2   -->   ?
     e(  9 -  9) =    -48.66541  eV     1   -->   ?
     e( 10 - 10) =    -48.66524  eV     1   -->   ?
     e( 11 - 11) =    -16.07183  eV     1   --> A_1  D_1  S_1  
     e( 12 - 12) =    -15.95515  eV     1   --> A_1  D_1  S_1  
     e( 13 - 13) =    -15.89796  eV     1   --> B_1  D_3  S_3  
     e( 14 - 14) =    -15.88458  eV     1   --> B_2  D_4  S_4  
     e( 15 - 15) =    -15.82492  eV     1   --> A_1  D_1  S_1  
     e( 16 - 16) =    -15.81079  eV     1   -->   ?
     e( 17 - 17) =    -15.81013  eV     1   -->   ?
     e( 18 - 18) =    -15.68670  eV     1   --> B_2  D_4  S_4  
     e( 19 - 19) =    -15.65881  eV     1   --> A_2  D_2  S_2  
     e( 20 - 20) =    -15.57178  eV     1   --> B_2  D_4  S_4  
     e( 21 - 21) =    -14.26279  eV     1   --> A_1  D_1  S_1  
     e( 22 - 22) =    -14.15970  eV     1   --> B_2  D_4  S_4  
     e( 23 - 23) =     -7.21206  eV     1   --> A_1  D_1  S_1  
     e( 24 - 24) =     -5.17802  eV     1   --> B_2  D_4  S_4  
     e( 25 - 25) =     -3.52705  eV     1   --> A_1  D_1  S_1  
     e( 26 - 26) =     -3.33544  eV     1   --> B_2  D_4  S_4  
     e( 27 - 27) =     -2.80259  eV     1   --> B_1  D_3  S_3  
     e( 28 - 28) =     -2.70473  eV     1   --> A_2  D_2  S_2  
     e( 29 - 29) =     -2.04110  eV     1   --> A_1  D_1  S_1  
     e( 30 - 30) =      0.20261  eV     1   --> B_2  D_4  S_4  
     e( 31 - 31) =      1.35547  eV     1   --> A_1  D_1  S_1  
     e( 32 - 32) =      2.15680  eV     1   --> A_1  D_1  S_1  
     e( 33 - 33) =      3.05478  eV     1   --> B_1  D_3  S_3  
     e( 34 - 34) =      3.26305  eV     1   --> B_2  D_4  S_4  
     e( 35 - 35) =      3.74153  eV     1   --> A_1  D_1  S_1  

 **************************************************************************

 **************************************************************************

                    xk=(   0.12500,   0.07217,   0.00000  )

     Band symmetry, C_2v (mm2)  point group:

     e(  1 -  2) =    -48.70691  eV     2   -->   ?
     e(  3 -  4) =    -48.70674  eV     2   -->   ?
     e(  5 -  6) =    -48.67647  eV     2   -->   ?
     e(  7 -  8) =    -48.67629  eV     2   -->   ?
     e(  9 -  9) =    -48.66541  eV     1   -->   ?
     e( 10 - 10) =    -48.66525  eV     1   -->   ?
     e( 11 - 11) =    -16.07166  eV     1   --> A_1  D_1  S_1  
     e( 12 - 12) =    -15.94064  eV     1   --> A_1  D_1  S_1  
     e( 13 - 13) =    -15.89841  eV     1   --> B_1  D_3  S_3  
     e( 14 - 14) =    -15.86789  eV     1   --> B_2  D_4  S_4  
     e( 15 - 15) =    -15.82353  eV     1   --> A_1  D_1  S_1  
     e( 16 - 16) =    -15.81459  eV     1   -->   ?
     e( 17 - 17) =    -15.81316  eV     1   -->   ?
     e( 18 - 18) =    -15.68184  eV     1   --> B_2  D_4  S_4  
     e( 19 - 19) =    -15.65834  eV     1   --> A_2  D_2  S_2  
     e( 20 - 20) =    -15.58022  eV     1   --> B_2  D_4  S_4  
     e( 21 - 21) =    -14.31832  eV     1   --> A_1  D_1  S_1  
     e( 22 - 22) =    -14.21289  eV     1   --> B_2  D_4  S_4  
     e( 23 - 23) =     -7.23500  eV     1   --> A_1  D_1  S_1  
     e( 24 - 24) =     -5.12587  eV     1   --> B_2  D_4  S_4  
     e( 25 - 25) =     -3.30609  eV     1   --> A_1  D_1  S_1  
     e( 26 - 26) =     -3.16713  eV     1   --> B_2  D_4  S_4  
     e( 27 - 27) =     -2.73569  eV     1   --> B_1  D_3  S_3  
     e( 28 - 28) =     -2.64506  eV     1   --> A_2  D_2  S_2  
     e( 29 - 29) =     -2.04236  eV     1   --> A_1  D_1  S_1  
     e( 30 - 30) =      0.04619  eV     1   --> B_2  D_4  S_4  
     e( 31 - 31) =      1.28001  eV     1   --> A_1  D_1  S_1  
     e( 32 - 32) =      2.21441  eV     1   --> A_1  D_1  S_1  
     e( 33 - 33) =      3.01379  eV     1   --> B_1  D_3  S_3  
     e( 34 - 34) =      3.40119  eV     1   --> B_2  D_4  S_4  
     e( 35 - 35) =      3.67269  eV     1   --> A_1  D_1  S_1  

 **************************************************************************

 **************************************************************************

                    xk=(   0.10000,   0.05774,   0.00000  )

     Band symmetry, C_2v (mm2)  point group:

     e(  1 -  2) =    -48.70693  eV     2   -->   ?
     e(  3 -  4) =    -48.70675  eV     2   -->   ?
     e(  5 -  6) =    -48.67648  eV     2   -->   ?
     e(  7 -  8) =    -48.67629  eV     2   -->   ?
     e(  9 -  9) =    -48.66543  eV     1   -->   ?
     e( 10 - 10) =    -48.66526  eV     1   -->   ?
     e( 11 - 11) =    -16.07186  eV     1   --> A_1  D_1  S_1  
     e( 12 - 12) =    -15.92731  eV     1   --> A_1  D_1  S_1  
     e( 13 - 13) =    -15.89891  eV     1   --> B_1  D_3  S_3  
     e( 14 - 14) =    -15.85306  eV     1   --> B_2  D_4  S_4  
     e( 15 - 15) =    -15.82233  eV     1   --> A_1  D_1  S_1  
     e( 16 - 16) =    -15.81782  eV     1   -->   ?
     e( 17 - 17) =    -15.81564  eV     1   -->   ?
     e( 18 - 18) =    -15.67635  eV     1   --> B_2  D_4  S_4  
     e( 19 - 19) =    -15.65793  eV     1   --> A_2  D_2  S_2  
     e( 20 - 20) =    -15.58884  eV     1   --> B_2  D_4  S_4  
     e( 21 - 21) =    -14.36563  eV     1   --> A_1  D_1  S_1  
     e( 22 - 22) =    -14.25820  eV     1   --> B_2  D_4  S_4  
     e( 23 - 23) =     -7.25654  eV     1   --> A_1  D_1  S_1  
     e( 24 - 24) =     -5.09171  eV     1   --> B_2  D_4  S_4  
     e( 25 - 25) =     -3.08998  eV     1   --> A_1  D_1  S_1  
     e( 26 - 26) =     -2.98519  eV     1   --> B_2  D_4  S_4  
     e( 27 - 27) =     -2.67684  eV     1   --> B_1  D_3  S_3  
     e( 28 - 28) =     -2.59273  eV     1   --> A_2  D_2  S_2  
     e( 29 - 29) =     -2.04986  eV     1   --> A_1  D_1  S_1  
     e( 30 - 30) =     -0.12460  eV     1   --> B_2  D_4  S_4  
     e( 31 - 31) =      1.11405  eV     1   --> A_1  D_1  S_1  
     e( 32 - 32) =      2.36820  eV     1   --> A_1  D_1  S_1  
     e( 33 - 33) =      2.97284  eV     1   --> B_1  D_3  S_3  
     e( 34 - 34) =      3.50179  eV     1   --> B_2  D_4  S_4  
     e( 35 - 35) =      3.61281  eV     1   --> A_1  D_1  S_1  

 **************************************************************************

 **************************************************************************

                    xk=(   0.07500,   0.04330,   0.00000  )

     Band symmetry, C_2v (mm2)  point group:

     e(  1 -  2) =    -48.70694  eV     2   -->   ?
     e(  3 -  4) =    -48.70677  eV     2   -->   ?
     e(  5 -  6) =    -48.67649  eV     2   -->   ?
     e(  7 -  8) =    -48.67631  eV     2   -->   ?
     e(  9 -  9) =    -48.66545  eV     1   -->   ?
     e( 10 - 10) =    -48.66528  eV     1   -->   ?
     e( 11 - 11) =    -16.07223  eV     1   --> A_1  D_1  S_1  
     e( 12 - 12) =    -15.91599  eV     1   --> A_1  D_1  S_1  
     e( 13 - 13) =    -15.89937  eV     1   --> B_1  D_3  S_3  
     e( 14 - 14) =    -15.84077  eV     1   --> B_2  D_4  S_4  
     e( 15 - 15) =    -15.82137  eV     1   --> A_1  D_1  S_1  
     e( 16 - 16) =    -15.82045  eV     1   -->   ?
     e( 17 - 17) =    -15.81760  eV     1   -->   ?
     e( 18 - 18) =    -15.67039  eV     1   --> B_2  D_4  S_4  
     e( 19 - 19) =    -15.65761  eV     1   --> A_2  D_2  S_2  
     e( 20 - 20) =    -15.59736  eV     1   --> B_2  D_4  S_4  
     e( 21 - 21) =    -14.40369  eV     1   --> A_1  D_1  S_1  
     e( 22 - 22) =    -14.29463  eV     1   --> B_2  D_4  S_4  
     e( 23 - 23) =     -7.27496  eV     1   --> A_1  D_1  S_1  
     e( 24 - 24) =     -5.07058  eV     1   --> B_2  D_4  S_4  
     e( 25 - 25) =     -2.89041  eV     1   --> A_1  D_1  S_1  
     e( 26 - 26) =     -2.80480  eV     1   --> B_2  D_4  S_4  
     e( 27 - 27) =     -2.62826  eV     1   --> B_1  D_3  S_3  
     e( 28 - 28) =     -2.54965  eV     1   --> A_2  D_2  S_2  
     e( 29 - 29) =     -2.06263  eV     1   --> A_1  D_1  S_1  
     e( 30 - 30) =     -0.29563  eV     1   --> B_2  D_4  S_4  
     e( 31 - 31) =      0.93024  eV     1   --> A_1  D_1  S_1  
     e( 32 - 32) =      2.54942  eV     1   --> A_1  D_1  S_1  
     e( 33 - 33) =      2.93577  eV     1   --> B_1  D_3  S_3  
     e( 34 - 34) =      3.54000  eV     1   --> B_2  D_4  S_4  
     e( 35 - 35) =      3.56221  eV     1   --> A_1  D_1  S_1  

 **************************************************************************

 **************************************************************************

                    xk=(   0.05000,   0.02887,   0.00000  )

     Band symmetry, C_2v (mm2)  point group:

     e(  1 -  2) =    -48.70695  eV     2   -->   ?
     e(  3 -  4) =    -48.70678  eV     2   -->   ?
     e(  5 -  6) =    -48.67649  eV     2   -->   ?
     e(  7 -  8) =    -48.67630  eV     2   -->   ?
     e(  9 -  9) =    -48.66547  eV     1   -->   ?
     e( 10 - 10) =    -48.66530  eV     1   -->   ?
     e( 11 - 11) =    -16.07257  eV     1   --> A_1  D_1  S_1  
     e( 12 - 12) =    -15.90734  eV     1   --> A_1  D_1  S_1  
     e( 13 - 13) =    -15.89974  eV     1   --> B_1  D_3  S_3  
     e( 14 - 14) =    -15.83154  eV     1   --> B_2  D_4  S_4  
     e( 15 - 15) =    -15.82237  eV     1   -->   ?
     e( 16 - 16) =    -15.82065  eV     1   --> A_1  D_1  S_1  
     e( 17 - 17) =    -15.81897  eV     1   -->   ?
     e( 18 - 18) =    -15.66431  eV     1   --> B_2  D_4  S_4  
     e( 19 - 19) =    -15.65737  eV     1   --> A_2  D_2  S_2  
     e( 20 - 20) =    -15.60528  eV     1   --> B_2  D_4  S_4  
     e( 21 - 21) =    -14.43160  eV     1   --> A_1  D_1  S_1  
     e( 22 - 22) =    -14.32133  eV     1   --> B_2  D_4  S_4  
     e( 23 - 23) =     -7.28897  eV     1   --> A_1  D_1  S_1  
     e( 24 - 24) =     -5.05835  eV     1   --> B_2  D_4  S_4  
     e( 25 - 25) =     -2.72231  eV     1   --> A_1  D_1  S_1  
     e( 26 - 26) =     -2.64563  eV     1   --> B_2  D_4  S_4  
     e( 27 - 27) =     -2.59193  eV     1   --> B_1  D_3  S_3  
     e( 28 - 28) =     -2.51752  eV     1   --> A_2  D_2  S_2  
     e( 29 - 29) =     -2.07955  eV     1   --> A_1  D_1  S_1  
     e( 30 - 30) =     -0.44789  eV     1   --> B_2  D_4  S_4  
     e( 31 - 31) =      0.77091  eV     1   --> A_1  D_1  S_1  
     e( 32 - 32) =      2.71608  eV     1   --> A_1  D_1  S_1  
     e( 33 - 33) =      2.90623  eV     1   --> B_1  D_3  S_3  
     e( 34 - 34) =      3.52137  eV     1   --> A_1  D_1  S_1  
     e( 35 - 35) =      3.53966  eV     1   --> B_2  D_4  S_4  

 **************************************************************************

 **************************************************************************

                    xk=(   0.02500,   0.01443,   0.00000  )

     Band symmetry, C_2v (mm2)  point group:

     e(  1 -  2) =    -48.70696  eV     2   -->   ?
     e(  3 -  4) =    -48.70679  eV     2   -->   ?
     e(  5 -  6) =    -48.67649  eV     2   -->   ?
     e(  7 -  8) =    -48.67631  eV     2   -->   ?
     e(  9 -  9) =    -48.66551  eV     1   -->   ?
     e( 10 - 10) =    -48.66534  eV     1   -->   ?
     e( 11 - 11) =    -16.07284  eV     1   --> A_1  D_1  S_1  
     e( 12 - 12) =    -15.90192  eV     1   --> A_1  D_1  S_1  
     e( 13 - 13) =    -15.89998  eV     1   --> B_1  D_3  S_3  
     e( 14 - 14) =    -15.82588  eV     1   --> B_2  D_4  S_4  
     e( 15 - 15) =    -15.82356  eV     1   --> A_2  D_2  S_2  
     e( 16 - 16) =    -15.82020  eV     1   --> A_1  D_1  S_1  
     e( 17 - 17) =    -15.81978  eV     1   --> B_1  D_3  S_3  
     e( 18 - 18) =    -15.65928  eV     1   --> B_2  D_4  S_4  
     e( 19 - 19) =    -15.65720  eV     1   --> A_2  D_2  S_2  
     e( 20 - 20) =    -15.61144  eV     1   --> B_2  D_4  S_4  
     e( 21 - 21) =    -14.44864  eV     1   --> A_1  D_1  S_1  
     e( 22 - 22) =    -14.33763  eV     1   --> B_2  D_4  S_4  
     e( 23 - 23) =     -7.29772  eV     1   --> A_1  D_1  S_1  
     e( 24 - 24) =     -5.05213  eV     1   --> B_2  D_4  S_4  
     e( 25 - 25) =     -2.60513  eV     1   --> A_1  D_1  S_1  
     e( 26 - 26) =     -2.56945  eV     1   --> B_1  D_3  S_3  
     e( 27 - 27) =     -2.53257  eV     1   --> B_2  D_4  S_4  
     e( 28 - 28) =     -2.49767  eV     1   --> A_2  D_2  S_2  
     e( 29 - 29) =     -2.09681  eV     1   --> A_1  D_1  S_1  
     e( 30 - 30) =     -0.55676  eV     1   --> B_2  D_4  S_4  
     e( 31 - 31) =      0.66307  eV     1   --> A_1  D_1  S_1  
     e( 32 - 32) =      2.83610  eV     1   --> A_1  D_1  S_1  
     e( 33 - 33) =      2.88720  eV     1   --> B_1  D_3  S_3  
     e( 34 - 34) =      3.49250  eV     1   --> A_1  D_1  S_1  
     e( 35 - 35) =      3.53120  eV     1   --> B_2  D_4  S_4  

 **************************************************************************

 **************************************************************************

                    xk=(   0.00000,   0.00000,   0.00000  )

     point group D_3h (-62m)
     there are  6 classes
     the character table:

       E     2C3   3C2   s_h   2S3   3s_v 
A'_1   1.00  1.00  1.00  1.00  1.00  1.00
A'_2   1.00  1.00 -1.00  1.00  1.00 -1.00
E'     2.00 -1.00  0.00  2.00 -1.00  0.00
A''1   1.00  1.00  1.00 -1.00 -1.00 -1.00
A''2   1.00  1.00 -1.00 -1.00 -1.00  1.00
E''    2.00 -1.00  0.00 -2.00  1.00  0.00

     the symmetry operations in each class and the name of the first element:

     E        1
                                                                 
     2C3      3    4
                                                                 
     3C2      2    6    5
                                                                 
     s_h      7
                                                                 
     2S3      9   10
                                                                 
     3s_v     8   11   12
                                                                 

     Band symmetry, D_3h (-62m) point group:

     e(  1 -  2) =    -48.70695  eV     2   -->   ?
     e(  3 -  4) =    -48.70678  eV     2   -->   ?
     e(  5 -  6) =    -48.67647  eV     2   -->   ?
     e(  7 -  8) =    -48.67630  eV     2   -->   ?
     e(  9 -  9) =    -48.66552  eV     1   -->   ?
     e( 10 - 10) =    -48.66532  eV     1   -->   ?
     e( 11 - 11) =    -16.07290  eV     1   --> A'_1           
     e( 12 - 13) =    -15.90007  eV     2   --> E'             
     e( 14 - 15) =    -15.82397  eV     2   --> E''            
     e( 16 - 17) =    -15.82003  eV     2   --> E'             
     e( 18 - 19) =    -15.65715  eV     2   --> E''            
     e( 20 - 20) =    -15.61389  eV     1   --> A''2           
     e( 21 - 21) =    -14.45437  eV     1   --> A'_1           
     e( 22 - 22) =    -14.34311  eV     1   --> A''2           
     e( 23 - 23) =     -7.30069  eV     1   --> A'_1           
     e( 24 - 24) =     -5.05024  eV     1   --> A''2           
     e( 25 - 26) =     -2.56189  eV     2   --> E'             
     e( 27 - 28) =     -2.49100  eV     2   --> E''            
     e( 29 - 29) =     -2.10493  eV     1   --> A'_1           
     e( 30 - 30) =     -0.59696  eV     1   --> A''2           
     e( 31 - 31) =      0.62486  eV     1   --> A'_1           
     e( 32 - 33) =      2.88061  eV     2   --> E'             
     e( 34 - 34) =      3.48145  eV     1   --> A'_1           
     e( 35 - 35) =      3.52734  eV     1   --> A''2           

 **************************************************************************
 
     BANDS        :   1m18.04s CPU   1m27.38s WALL

 
   This run was terminated on:   0:10:50   8Sep2022            

=------------------------------------------------------------------------------=
   JOB DONE.
=------------------------------------------------------------------------------=
