 running on  192 total cores
 distrk:  each k-point on  192 cores,    1 groups
 distr:  one band on   24 cores,    8 groups
 using from now: INCAR     
 vasp.5.4.4.18Apr17-6-g9f103f2a35 (build Oct 01 2024 10:11:53) complex          
  
 POSCAR found type information on POSCAR  Mo S  Te
 POSCAR found :  3 types and       6 ions
 scaLAPACK will be used
 LDA part: xc-table for Pade appr. of Perdew
 WARNING: stress and forces are not correct
 POSCAR, INCAR and KPOINTS ok, starting setup
 FFT: planning ...
 WAVECAR not read
 charge-density read from file: unknown                                 
 WARNING: random wavefunctions but no delay for mixing, default for NELMDL
 entering main loop
       N       E                     dE             d eps       ncg     rms          rms(c)
DAV:   1     0.261334834060E+03    0.26133E+03   -0.12970E+04  3840   0.124E+03
DAV:   2    -0.556247935781E+01   -0.26690E+03   -0.25843E+03  6056   0.207E+02
DAV:   3    -0.383021781887E+02   -0.32740E+02   -0.32378E+02  5024   0.819E+01
DAV:   4    -0.393998559309E+02   -0.10977E+01   -0.10924E+01  5904   0.175E+01
DAV:   5    -0.394234858213E+02   -0.23630E-01   -0.23611E-01  5640   0.248E+00
DAV:   6    -0.394239317087E+02   -0.44589E-03   -0.44573E-03  5960   0.308E-01
DAV:   7    -0.394239429665E+02   -0.11258E-04   -0.11257E-04  5672   0.488E-02
DAV:   8    -0.394239432842E+02   -0.31773E-06   -0.31770E-06  5976   0.685E-03
DAV:   9    -0.394239432918E+02   -0.76107E-08   -0.76467E-08  3808   0.118E-03
   1 F= -.39423943E+02 E0= -.39423943E+02  d E =0.000000E+00
