
     Program PWSCF v.6.6 starts on 12Dec2022 at 17:28:51 

     This program is part of the open-source Quantum ESPRESSO suite
     for quantum simulation of materials; please cite
         "P. Giannozzi et al., J. Phys.:Condens. Matter 21 395502 (2009);
         "P. Giannozzi et al., J. Phys.:Condens. Matter 29 465901 (2017);
          URL http://www.quantum-espresso.org", 
     in publications or presentations arising from this work. More details at
     http://www.quantum-espresso.org/quote

     Parallel version (MPI), running on    24 processors

     MPI processes distributed on     1 nodes
     R & G space division:  proc/nbgrp/npool/nimage =      24
     Fft bands division:     nmany     =       1
     Reading input from INCAR-nscf.pw

     Current dimensions of program PWSCF are:
     Max number of different atomic species (ntypx) = 10
     Max number of k-points (npk) =  40000
     Max angular momentum in pseudopotentials (lmaxx) =  3

     Atomic positions and unit cell read from directory:
     ./wfc-out/pwscf.save/
     Atomic positions from file used, from input discarded
 

     Subspace diagonalization in iterative solution of the eigenvalue problem:
     a serial algorithm will be used

     Found symmetry operation: I + ( -0.5000 -0.5000  0.0000)
     This is a supercell, fractional translations are disabled
 
     Parallelization info
     --------------------
     sticks:   dense  smooth     PW     G-vecs:    dense   smooth      PW
     Min          64      30      9                11490     3812     675
     Max          65      31     10                11506     3835     704
     Sum        1539     739    239               275959    91837   16635
 


     bravais-lattice index     =            0
     lattice parameter (alat)  =       8.1817  a.u.
     unit-cell volume          =    1460.6701 (a.u.)^3
     number of atoms/cell      =            4
     number of atomic types    =            2
     number of electrons       =        16.00
     number of Kohn-Sham states=            8
     kinetic-energy cutoff     =      60.0000  Ry
     charge density cutoff     =     500.0000  Ry
     Exchange-correlation= PBE
                           (   1   4   3   4   0   0   0)

     celldm(1)=   8.214863  celldm(2)=   0.000000  celldm(3)=   0.000000
     celldm(4)=   0.000000  celldm(5)=   0.000000  celldm(6)=   0.000000

     crystal axes: (cart. coord. in units of alat)
               a(1) = (   1.000000   0.000000   0.000000 )  
               a(2) = (   0.000000   0.577347   0.000000 )  
               a(3) = (   0.000000   0.000000   4.619400 )  

     reciprocal axes: (cart. coord. in units 2 pi/alat)
               b(1) = (  1.000000  0.000000  0.000000 )  
               b(2) = (  0.000000  1.732062  0.000000 )  
               b(3) = (  0.000000  0.000000  0.216478 )  


     PseudoPot. # 1 for B  read from file:
     ./B_pbe_v1.01.uspp.F.UPF
     MD5 check sum: d081ebb89d0c768e112975f650467a00
     Pseudo is Ultrasoft + core correction, Zval =  3.0
     Generated by new atomic code, or converted to UPF format
     Using radial grid of  781 points,  4 beta functions with: 
                l(1) =   0
                l(2) =   0
                l(3) =   1
                l(4) =   1
     Q(r) pseudized with  8 coefficients,  rinner =    1.100   1.100   1.100


     PseudoPot. # 2 for N  read from file:
     ./N.oncvpsp.upf
     MD5 check sum: 563d65bfb082928f0c9eb97172f6c357
     Pseudo is Norm-conserving + core correction, Zval =  5.0
     Generated using ONCVPSP code by D. R. Hamann
     Using radial grid of 1058 points,  4 beta functions with: 
                l(1) =   0
                l(2) =   0
                l(3) =   1
                l(4) =   1

     atomic species   valence    mass     pseudopotential
        B              3.00    10.81100     B ( 1.00)
        N              5.00    14.00674     N ( 1.00)

     No symmetry found



   Cartesian axes

     site n.     atom                  positions (alat units)
         1           N   tau(   1) = (   0.0000144   0.0000000   2.3096999  )
         2           B   tau(   2) = (   0.3333441   0.0000000   2.3096999  )
         3           N   tau(   3) = (   0.5000146   0.2886733   2.3096999  )
         4           B   tau(   4) = (   0.8333439   0.2886733   2.3096999  )

     number of k points=   112

     Number of k-points >= 100: set verbosity='high' to print them.

     Dense  grid:   275959 G-vectors     FFT dimensions: (  60,  36, 270)

     Smooth grid:    91837 G-vectors     FFT dimensions: (  45,  24, 192)

     Estimated max dynamical RAM per process >      12.88 MB

     Estimated total dynamical RAM >     309.18 MB

     Check: negative core charge=   -0.000004

     The potential is recalculated from file :
     ./wfc-out/pwscf.save/charge-density


     negative rho (up, down):  9.448E-06 0.000E+00
     Starting wfcs are   16 randomized atomic wfcs

     Band Structure Calculation
     Davidson diagonalization with overlap

     ethr =  6.25E-13,  avg # of iterations = 37.5

     total cpu time spent up to now is       11.6 secs

     End of band structure calculation

     Number of k-points >= 100: set verbosity='high' to print the bands.

     highest occupied level (ev):    -4.0742



               ==================================================
                            POLARIZATION CALCULATION
                         !!! NOT THOROUGHLY TESTED !!!
               --------------------------------------------------


                     K-POINTS STRINGS USED IN CALCULATIONS
                     ~~~~~~~~~~~~~~~~~~~~~~~~~~~~~~~~~~~~~

       G-vector along string (2 pi/a):  1.00000  0.00000  0.00000
       Modulus of the vector (1/bohr):  0.76796
       Number of k-points per string:  14
       Number of different strings  :   8


                               IONIC POLARIZATION
                               ~~~~~~~~~~~~~~~~~~

  ============================================================================
    Ion    Species    Charge              Position                Phase
  ----------------------------------------------------------------------------
     1        N        5.000       0.0000  0.0000  2.3097     0.00007 (mod 1)
     2        B        3.000       0.3333  0.0000  2.3097     0.00003 (mod 1)
     3        N        5.000       0.5000  0.2887  2.3097    -0.49993 (mod 1)
     4        B        3.000       0.8333  0.2887  2.3097    -0.49997 (mod 1)
  ----------------------------------------------------------------------------
                                               IONIC PHASE:   0.00021 (mod 1)
  ============================================================================


                            ELECTRONIC POLARIZATION
                            ~~~~~~~~~~~~~~~~~~~~~~~

  ============================================================================
    String     Weight      First k-point in string         Phase
  ----------------------------------------------------------------------------
       1      0.071429      0.0000  0.0000  0.0000     0.11521
       2      0.142857      0.0000  0.1237  0.0000     0.10774
       3      0.142857      0.0000  0.2474  0.0000     0.08698
       4      0.142857      0.0000  0.3712  0.0000     0.05281
       5      0.142857      0.0000  0.4949  0.0000    -0.00047
       6      0.142857      0.0000  0.6186  0.0000    -0.07457
       7      0.142857      0.0000  0.7423  0.0000    -0.14409
       8      0.071429      0.0000 -0.8660  0.0000    -0.17139
  ----------------------------------------------------------------------------
                                          ELECTRONIC PHASE:   0.00005
  ============================================================================


                               SUMMARY OF PHASES
                               ~~~~~~~~~~~~~~~~~

                          Ionic Phase:  0.00021
                     Electronic Phase:  0.00005
                          TOTAL PHASE:  0.00025 MOD_TOT: 1


                             VALUES OF POLARIZATION
                             ~~~~~~~~~~~~~~~~~~~~~~

        The calculation of phases done along the direction of vector 1
        of the reciprocal lattice gives the following contribution to
        the polarization vector (in different units, and being Omega
        the volume of the unit cell):

           P =   0.0020798  (mod   8.1816956)  (e/Omega).bohr

           P =   0.0000014  (mod   0.0056013)  e/bohr^2

           P =   0.0000814  (mod   0.3202377)  C/m^2

        The polarization direction is:  ( 1.00000 , 0.00000 , 0.00000 )


               ==================================================



     Writing output data file ./wfc-out/pwscf.save/
 
     init_run     :      0.28s CPU      0.35s WALL (       1 calls)
     electrons    :     11.27s CPU     12.06s WALL (       1 calls)

     Called by init_run:
     wfcinit      :      0.00s CPU      0.00s WALL (       1 calls)
     potinit      :      0.02s CPU      0.06s WALL (       1 calls)
     hinit0       :      0.11s CPU      0.12s WALL (       1 calls)

     Called by electrons:
     c_bands      :     10.29s CPU     11.04s WALL (       1 calls)
     v_of_rho     :      0.01s CPU      0.02s WALL (       1 calls)
     newd         :      0.03s CPU      0.03s WALL (       1 calls)

     Called by c_bands:
     init_us_2    :      0.03s CPU      0.04s WALL (     320 calls)
     cegterg      :      9.25s CPU      9.64s WALL (     225 calls)

     Called by *egterg:
     cdiaghg      :      0.48s CPU      0.50s WALL (    4311 calls)
     h_psi        :      8.17s CPU      8.52s WALL (    4536 calls)
     s_psi        :      0.12s CPU      0.12s WALL (    4536 calls)
     g_psi        :      0.05s CPU      0.05s WALL (    4199 calls)

     Called by h_psi:
     h_psi:calbec :      0.45s CPU      0.47s WALL (    4536 calls)
     vloc_psi     :      7.54s CPU      7.87s WALL (    4536 calls)
     add_vuspsi   :      0.12s CPU      0.13s WALL (    4536 calls)

     General routines
     calbec       :      0.61s CPU      0.63s WALL (    4744 calls)
     fft          :      0.04s CPU      0.04s WALL (      13 calls)
     ffts         :      0.00s CPU      0.03s WALL (       1 calls)
     fftw         :      7.01s CPU      7.31s WALL (   68728 calls)
     interpolate  :      0.00s CPU      0.03s WALL (       1 calls)
     davcio       :      0.02s CPU      0.04s WALL (     432 calls)
 
     Parallel routines
     fft_scatt_xy :      0.67s CPU      0.70s WALL (   68742 calls)
     fft_scatt_yz :      3.60s CPU      3.76s WALL (   68742 calls)
 
     PWSCF        :     14.27s CPU   1m 7.64s WALL

 
   This run was terminated on:  17:29:58  12Dec2022            

=------------------------------------------------------------------------------=
   JOB DONE.
=------------------------------------------------------------------------------=
