 vasp.5.4.4.18Apr17-6-g9f103f2a35 (build Sep 16 2021 14:01:42) gamma-only       
  
 executed on             LinuxIFC date 2022.08.14  21:34:28
 running on   24 total cores
 distrk:  each k-point on   24 cores,    1 groups
 distr:  one band on NCORES_PER_BAND=   1 cores,   24 groups


--------------------------------------------------------------------------------------------------------


 INCAR:
 POTCAR:    PAW_PBE Si 05Jan2001                  

 ----------------------------------------------------------------------------- 
|                                                                             |
|           W    W    AA    RRRRR   N    N  II  N    N   GGGG   !!!           |
|           W    W   A  A   R    R  NN   N  II  NN   N  G    G  !!!           |
|           W    W  A    A  R    R  N N  N  II  N N  N  G       !!!           |
|           W WW W  AAAAAA  RRRRR   N  N N  II  N  N N  G  GGG   !            |
|           WW  WW  A    A  R   R   N   NN  II  N   NN  G    G                |
|           W    W  A    A  R    R  N    N  II  N    N   GGGG   !!!           |
|                                                                             |
|      For optimal performance we recommend to set                            |
|        NCORE= 4 - approx SQRT( number of cores)                             |
|      NCORE specifies how many cores store one orbital (NPAR=cpu/NCORE).     |
|      This setting can  greatly improve the performance of VASP for DFT.     |
|      The default,   NCORE=1            might be grossly inefficient         |
|      on modern multi-core architectures or massively parallel machines.     |
|      Do your own testing !!!!                                               |
|      Unfortunately you need to use the default for GW and RPA calculations. |
|      (for HF NCORE is supported but not extensively tested yet)             |
|                                                                             |
 ----------------------------------------------------------------------------- 

 POTCAR:    PAW_PBE Si 05Jan2001                  
   VRHFIN =Si: s2p2                                                             
   LEXCH  = PE                                                                  
   EATOM  =   103.0669 eV,    7.5752 Ry                                         
                                                                                
   TITEL  = PAW_PBE Si 05Jan2001                                                
   LULTRA =        F    use ultrasoft PP ?                                      
   IUNSCR =        1    unscreen: 0-lin 1-nonlin 2-no                           
   RPACOR =    1.500    partial core radius                                     
   POMASS =   28.085; ZVAL   =    4.000    mass and valenz                      
   RCORE  =    1.900    outmost cutoff radius                                   
   RWIGS  =    2.480; RWIGS  =    1.312    wigner-seitz radius (au A)           
   ENMAX  =  245.345; ENMIN  =  184.009 eV                                      
   ICORE  =        2    local potential                                         
   LCOR   =        T    correct aug charges                                     
   LPAW   =        T    paw PP                                                  
   EAUG   =  322.069                                                            
   DEXC   =    0.000                                                            
   RMAX   =    1.950    core radius for proj-oper                               
   RAUG   =    1.300    factor for augmentation sphere                          
   RDEP   =    1.993    radius for radial grids                                 
   RDEPT  =    1.837    core radius for aug-charge                              
                                                                                
   Atomic configuration                                                         
    6 entries                                                                   
     n  l   j            E        occ.                                          
     1  0  0.50     -1785.8828   2.0000                                         
     2  0  0.50      -139.4969   2.0000                                         
     2  1  1.50       -95.5546   6.0000                                         
     3  0  0.50       -10.8127   2.0000                                         
     3  1  0.50        -4.0811   2.0000                                         
     3  2  1.50        -4.0817   0.0000                                         
   Description                                                                  
     l       E           TYP  RCUT    TYP  RCUT                                 
     0    -10.8127223     23  1.900                                             
     0     -7.6451159     23  1.900                                             
     1     -4.0811372     23  1.900                                             
     1      2.4879257     23  1.900                                             
     2     -4.0817478      7  1.900                                             
  local pseudopotential read in
  partial core-charges read in
  partial kinetic energy density read in
  atomic valenz-charges read in
  non local Contribution for L=           0  read in
    real space projection operators read in
  non local Contribution for L=           0  read in
    real space projection operators read in
  non local Contribution for L=           1  read in
    real space projection operators read in
  non local Contribution for L=           1  read in
    real space projection operators read in
    PAW grid and wavefunctions read in
 
   number of l-projection  operators is LMAX  =           4
   number of lm-projection operators is LMMAX =           8
 
 Optimization of the real space projectors (new method)

 maximal supplied QI-value         = 19.84
 optimisation between [QCUT,QGAM] = [  6.94, 13.89] = [ 13.51, 54.02] Ry 
 Optimized for a Real-space Cutoff    1.43 Angstroem

   l    n(q)    QCUT    max X(q) W(low)/X(q) W(high)/X(q)  e(spline) 
   0      6     6.945   159.560    0.19E-02    0.13E-02    0.67E-07
   0      6     6.945   115.863    0.19E-02    0.13E-02    0.66E-07
   1      5     6.945    87.792    0.57E-03    0.17E-02    0.11E-06
   1      5     6.945    48.448    0.56E-03    0.16E-02    0.11E-06
  PAW_PBE Si 05Jan2001                  :
 energy of atom  1       EATOM= -103.0669
 kinetic energy error for atom=    0.0129 (will be added to EATOM!!)
 
 
 POSCAR: Si_2x2x2                                
  positions in direct lattice
  velocities in cartesian coordinates
 
  Using predictor-coordinates on the file
 exchange correlation table for  LEXCH =        8
   RHO(1)=    0.500       N(1)  =     2000
   RHO(2)=  100.500       N(2)  =     4000
 


--------------------------------------------------------------------------------------------------------


 ion  position               nearest neighbor table
   1  0.226  0.229  0.971-  58 2.19  41 2.31  34 2.33  49 2.53
   2  0.231  0.210  0.458-  33 2.28  50 2.29  42 2.38  57 2.46
   3  0.172  0.668  0.966-  27 2.54  36 2.60  51 2.62  43 2.66  19 3.01
   4  0.207  0.732  0.522-  52 2.30  35 2.58  44 2.70  36 2.93
   5  0.730  0.236  0.039-  38 2.36  62 2.55  53 2.72  45 2.86  14 2.99
   6  0.749  0.256  0.489-  37 2.12  61 2.24  46 2.30  54 2.42
   7  0.695  0.759  0.004-  55 2.47  40 2.51  64 2.58  47 2.89  45 2.95  29 3.02
   8  0.787  0.757  0.441-  39 2.52  13 2.62  63 2.65  56 2.75  15 2.98
   9  0.386  0.000  0.234-  47 2.59  21 2.61  49 2.66  29 2.66  59 2.70  43 2.70  23 3.12
  10  0.260  0.969  0.765-  60 2.22  44 2.35  34 2.47  50 2.51
  11  0.234  0.503  0.237-  41 2.31  51 2.42  57 2.45  35 2.53
  12  0.239  0.448  0.712-  58 2.25  42 2.39  36 2.49  52 2.56
  13  0.721  0.983  0.393-  37 2.42   8 2.62  47 2.65  63 2.94  30 2.98  59 3.12
  14  0.802  0.062  0.839-  64 2.35  38 2.46  54 2.49  48 2.66   5 2.99  18 3.01
  15  0.779  0.548  0.267-  61 2.23  39 2.27  55 2.47  45 2.53   8 2.98
  16  0.765  0.472  0.772-  46 2.12  40 2.19  62 2.27  56 2.31
  17  0.005  0.314  0.234-  33 2.33  53 2.35  61 2.40  41 2.56
  18  0.993  0.238  0.747-  34 2.30  62 2.48  54 2.51  42 2.71  14 3.01
  19  0.020  0.791  0.159-  55 2.17  63 2.28  35 2.51  25 2.56  43 2.73  64 2.96   3 3.01
  20  0.925  0.793  0.768-  44 2.12  64 2.36  56 2.51  36 2.66  48 3.13
  21  0.454  0.227  0.268-  49 2.43  57 2.47  37 2.53   9 2.61
  22  0.526  0.199  0.742-  38 2.40  30 2.48  46 2.80  58 2.87  50 2.92
  23  0.477  0.732  0.271-  39 2.18  47 2.18  59 2.38  51 2.50   9 3.12
  24  0.450  0.691  0.754-  60 2.40  52 2.48  40 2.58
  25  0.041  0.001  0.058-  64 2.39  34 2.50  19 2.56  43 2.62  53 2.70
  26  0.013  0.015  0.499-  63 2.32  54 2.46  33 2.72  44 2.77
  27  0.991  0.523  0.953-  62 2.28   3 2.54  41 2.58  55 2.58  36 2.82
  28  0.962  0.516  0.494-  61 2.29  56 2.38  42 2.48  35 2.74
  29  0.506  0.958  0.026-  38 2.20  60 2.23  49 2.39  47 2.40   9 2.66   7 3.02  43 3.08
  30  0.540  0.030  0.592-  37 2.23  50 2.26  48 2.29  22 2.48  59 2.57  13 2.98
  31  0.473  0.493  1.000-  51 2.19  40 2.51  45 2.54  58 2.66
  32  0.506  0.473  0.487-  57 2.22  52 2.29  39 2.42  46 2.52
  33  0.106  0.140  0.305-   2 2.28  17 2.33  53 2.62  26 2.72
  34  0.101  0.098  0.860-  18 2.30   1 2.33  10 2.47  25 2.50  44 3.15
  35  0.090  0.657  0.332-  19 2.51  11 2.53   4 2.58  28 2.74  63 2.84
  36  0.100  0.626  0.743-  12 2.49   3 2.60  20 2.66  44 2.69  27 2.82   4 2.93  56 3.01
  37  0.591  0.156  0.440-   6 2.12  30 2.23  13 2.42  21 2.53
  38  0.599  0.106  0.927-  29 2.20   5 2.36  22 2.40  49 2.41  14 2.46
  39  0.614  0.624  0.366-  23 2.18  15 2.27  32 2.42   8 2.52
  40  0.631  0.588  0.865-  16 2.19  45 2.44  31 2.51   7 2.51  24 2.58
  41  0.152  0.399  0.073-   1 2.31  11 2.31  17 2.56  27 2.58
  42  0.108  0.356  0.562-   2 2.38  12 2.39  28 2.48  18 2.71
  43  0.243  0.872  0.079-  25 2.62   3 2.66   9 2.70  19 2.73  51 3.02  60 3.03  29 3.08
  44  0.087  0.866  0.690-  20 2.12  10 2.35  36 2.69   4 2.70  26 2.77  34 3.15
  45  0.698  0.495  0.056-  40 2.44  15 2.53  31 2.54  55 2.76   5 2.86   7 2.95  62 3.00
  46  0.663  0.386  0.632-  16 2.12   6 2.30  32 2.52  22 2.80
  47  0.592  0.884  0.214-  23 2.18  29 2.40   9 2.59  13 2.65  59 2.81   7 2.89
  48  0.672  0.909  0.702-  30 2.29  14 2.66  54 3.06  20 3.13
  49  0.429  0.161  0.056-  29 2.39  38 2.41  21 2.43   1 2.53   9 2.66  58 3.13
  50  0.341  0.086  0.586-  30 2.26   2 2.29  10 2.51  22 2.92  59 3.13
  51  0.363  0.624  0.104-  31 2.19  11 2.42  23 2.50   3 2.62  43 3.02
  52  0.358  0.594  0.572-  32 2.29   4 2.30  24 2.48  12 2.56  57 3.02
  53  0.891  0.136  0.200-  17 2.35  33 2.62  25 2.70   5 2.72
  54  0.850  0.110  0.622-   6 2.42  26 2.46  14 2.49  18 2.51  48 3.06
  55  0.877  0.667  0.101-  19 2.17   7 2.47  15 2.47  27 2.58  45 2.76  64 2.99
  56  0.844  0.619  0.643-  16 2.31  28 2.38  20 2.51   8 2.75  36 3.01
  57  0.351  0.387  0.389-  32 2.22  11 2.45   2 2.46  21 2.47  52 3.02
  58  0.341  0.346  0.857-   1 2.19  12 2.25  31 2.66  22 2.87  49 3.13
  59  0.460  0.875  0.434-  23 2.38  30 2.57   9 2.70  47 2.81  13 3.12  50 3.13
  60  0.414  0.879  0.862-  10 2.22  29 2.23  24 2.40  43 3.03
  61  0.850  0.389  0.371-  15 2.23   6 2.24  28 2.29  17 2.40
  62  0.877  0.356  0.903-  16 2.27  27 2.28  18 2.48   5 2.55  45 3.00
  63  0.965  0.885  0.338-  19 2.28  26 2.32   8 2.65  35 2.84  13 2.94
  64  0.880  0.897  0.953-  14 2.35  20 2.36  25 2.39   7 2.58  19 2.96  55 2.99
 

IMPORTANT INFORMATION: All symmetrisations will be switched off!
NOSYMM: (Re-)initialisation of all symmetry stuff for point group C_1.

 
 
 KPOINTS: Gamma-point only                        

Automatic generation of k-mesh.
Space group operators:
 irot       det(A)        alpha          n_x          n_y          n_z        tau_x        tau_y        tau_z
    1     1.000000     0.000000     1.000000     0.000000     0.000000     0.000000     0.000000     0.000000
 
 Subroutine IBZKPT returns following result:
 ===========================================
 
 Found      1 irreducible k-points:
 
 Following reciprocal coordinates:
            Coordinates               Weight
  0.000000  0.000000  0.000000      1.000000
 
 Following cartesian coordinates:
            Coordinates               Weight
  0.000000  0.000000  0.000000      1.000000
 


--------------------------------------------------------------------------------------------------------




 Dimension of arrays:
   k-points           NKPTS =      1   k-points in BZ     NKDIM =      1   number of bands    NBANDS=    168
   number of dos      NEDOS =    301   number of ions     NIONS =     64
   non local maximal  LDIM  =      4   non local SUM 2l+1 LMDIM =      8
   total plane-waves  NPLWV =  46656
   max r-space proj   IRMAX =    484   max aug-charges    IRDMAX=    553
   dimension x,y,z NGX =    36 NGY =   36 NGZ =   36
   dimension x,y,z NGXF=    48 NGYF=   48 NGZF=   48
   support grid    NGXF=    48 NGYF=   48 NGZF=   48
   ions per type =              64
   NGX,Y,Z   is equivalent  to a cutoff of   5.47,  5.47,  5.47 a.u.
   NGXF,Y,Z  is equivalent  to a cutoff of   7.30,  7.30,  7.30 a.u.

 SYSTEM =  Si_2x2x2                                
 POSCAR =  Si_2x2x2                                

 Startparameter for this run:
   NWRITE =      2    write-flag & timer
   PREC   = low       normal or accurate (medium, high low for compatibility)
   ISTART =      1    job   : 0-new  1-cont  2-samecut
   ICHARG =      0    charge: 1-file 2-atom 10-const
   ISPIN  =      1    spin polarized calculation?
   LNONCOLLINEAR =      F non collinear calculations
   LSORBIT =      F    spin-orbit coupling
   INIWAV =      1    electr: 0-lowe 1-rand  2-diag
   LASPH  =      F    aspherical Exc in radial PAW
   METAGGA=      F    non-selfconsistent MetaGGA calc.

 Electronic Relaxation 1
   ENCUT  =  184.0 eV  13.52 Ry    3.68 a.u.  12.10 12.10 12.10*2*pi/ulx,y,z
   ENINI  =  184.0     initial cutoff
   ENAUG  =  322.1 eV  augmentation charge cutoff
   NELM   =     60;   NELMIN=  2; NELMDL=  0     # of ELM steps 
   EDIFF  = 0.1E-03   stopping-criterion for ELM
   LREAL  =      T    real-space projection
   NLSPLINE    = F    spline interpolate recip. space projectors
   LCOMPAT=      F    compatible to vasp.4.4
   GGA_COMPAT  = T    GGA compatible to vasp.4.4-vasp.4.6
   LMAXPAW     = -100 max onsite density
   LMAXMIX     =    2 max onsite mixed and CHGCAR
   VOSKOWN=      0    Vosko Wilk Nusair interpolation
   ROPT   =   -0.01000
 Ionic relaxation
   EDIFFG = 0.1E-02   stopping-criterion for IOM
   NSW    =     30    number of steps for IOM
   NBLOCK =      1;   KBLOCK =     30    inner block; outer block 
   IBRION =      0    ionic relax: 0-MD 1-quasi-New 2-CG
   NFREE  =      0    steps in history (QN), initial steepest desc. (CG)
   ISIF   =      2    stress and relaxation
   IWAVPR =     12    prediction:  0-non 1-charg 2-wave 3-comb
   ISYM   =      0    0-nonsym 1-usesym 2-fastsym
   LCORR  =      T    Harris-Foulkes like correction to forces

   POTIM  = 3.0000    time-step for ionic-motion
   TEIN   = 1930.1    initial temperature
   TEBEG  = 2000.0;   TEEND  =2000.0 temperature during run
   SMASS  =   1.00    Nose mass-parameter (am)
   estimated Nose-frequenzy (Omega)   =  0.72E+14 period in steps = 28.89 mass=   0.911E-27a.u.
   SCALEE = 1.0000    scale energy and forces
   NPACO  =    256;   APACO  = 16.0  distance and # of slots for P.C.
   PSTRESS=    0.0 pullay stress

  Mass of Ions in am
   POMASS =  28.09
  Ionic Valenz
   ZVAL   =   4.00
  Atomic Wigner-Seitz radii
   RWIGS  =  -1.00
  virtual crystal weights 
   VCA    =   1.00
   NELECT =     256.0000    total number of electrons
   NUPDOWN=      -1.0000    fix difference up-down

 DOS related values:
   EMIN   =  10.00;   EMAX   =-10.00  energy-range for DOS
   EFERMI =   0.00
   ISMEAR =     0;   SIGMA  =   0.10  broadening in eV -4-tet -1-fermi 0-gaus

 Electronic relaxation 2 (details)
   IALGO  =     48    algorithm
   LDIAG  =      T    sub-space diagonalisation (order eigenvalues)
   LSUBROT=      F    optimize rotation matrix (better conditioning)
   TURBO    =      0    0=normal 1=particle mesh
   IRESTART =      0    0=no restart 2=restart with 2 vectors
   NREBOOT  =      0    no. of reboots
   NMIN     =      0    reboot dimension
   EREF     =   0.00    reference energy to select bands
   IMIX   =      4    mixing-type and parameters
     AMIX     =   0.40;   BMIX     =  1.00
     AMIX_MAG =   1.60;   BMIX_MAG =  1.00
     AMIN     =   0.10
     WC   =   100.;   INIMIX=   1;  MIXPRE=   1;  MAXMIX= -45

 Intra band minimization:
   WEIMIN = 0.0010     energy-eigenvalue tresh-hold
   EBREAK =  0.15E-06  absolut break condition
   DEPER  =   0.30     relativ break condition  

   TIME   =   0.40     timestep for ELM

  volume/ion in A,a.u.               =      20.44       137.96
  Fermi-wavevector in a.u.,A,eV,Ry     =   0.950397  1.795991 12.289531  0.903255
  Thomas-Fermi vector in A             =   2.078770
 
 Write flags
   LWAVE        =      T    write WAVECAR
   LDOWNSAMPLE  =      F    k-point downsampling of WAVECAR
   LCHARG       =      T    write CHGCAR
   LVTOT        =      F    write LOCPOT, total local potential
   LVHAR        =      F    write LOCPOT, Hartree potential only
   LELF         =      F    write electronic localiz. function (ELF)
   LORBIT       =      0    0 simple, 1 ext, 2 COOP (PROOUT), +10 PAW based schemes


 Dipole corrections
   LMONO  =      F    monopole corrections only (constant potential shift)
   LDIPOL =      F    correct potential (dipole corrections)
   IDIPOL =      0    1-x, 2-y, 3-z, 4-all directions 
   EPSILON=  1.0000000 bulk dielectric constant

 Exchange correlation treatment:
   GGA     =    --    GGA type
   LEXCH   =     8    internal setting for exchange type
   VOSKOWN=      0    Vosko Wilk Nusair interpolation
   LHFCALC =     F    Hartree Fock is set to
   LHFONE  =     F    Hartree Fock one center treatment
   AEXX    =    0.0000 exact exchange contribution

 Linear response parameters
   LEPSILON=     F    determine dielectric tensor
   LRPA    =     F    only Hartree local field effects (RPA)
   LNABLA  =     F    use nabla operator in PAW spheres
   LVEL    =     F    velocity operator in full k-point grid
   LINTERFAST=   F  fast interpolation
   KINTER  =     0    interpolate to denser k-point grid
   CSHIFT  =0.1000    complex shift for real part using Kramers Kronig
   OMEGAMAX=  -1.0    maximum frequency
   DEG_THRESHOLD= 0.2000000E-02 threshold for treating states as degnerate
   RTIME   =   -0.100 relaxation time in fs
  (WPLASMAI=    0.000 imaginary part of plasma frequency in eV, 0.658/RTIME)
   DFIELD  = 0.0000000 0.0000000 0.0000000 field for delta impulse in time
 
 Orbital magnetization related:
   ORBITALMAG=     F  switch on orbital magnetization
   LCHIMAG   =     F  perturbation theory with respect to B field
   DQ        =  0.001000  dq finite difference perturbation B field
   LLRAUG    =     F  two centre corrections for induced B field



--------------------------------------------------------------------------------------------------------


 molecular dynamics for ions
   using nose mass (canonical ensemble)
 charge density and potential will be updated during run
 non-spin polarized calculation
 RMM-DIIS sequential band-by-band
 perform sub-space diagonalisation
    before iterative eigenvector-optimisation
 modified Broyden-mixing scheme, WC =      100.0
 initial mixing is a Kerker type mixing with AMIX =  0.4000 and BMIX =      1.0000
 Hartree-type preconditioning will be used
 using additional bands           40
 real space projection scheme for non local part
 use partial core corrections
 calculate Harris-corrections to forces 
   (improved forces if not selfconsistent)
 use gradient corrections 
 use of overlap-Matrix (Vanderbilt PP)
 Gauss-broadening in eV      SIGMA  =   0.10


--------------------------------------------------------------------------------------------------------


  energy-cutoff  :      184.01
  volume of cell :     1308.43
      direct lattice vectors                 reciprocal lattice vectors
    10.937455177  0.000000000  0.000000000     0.091428946  0.000000000  0.000000000
     0.000000000 10.937455177  0.000000000     0.000000000  0.091428946  0.000000000
     0.000000000  0.000000000 10.937455177     0.000000000  0.000000000  0.091428946

  length of vectors
    10.937455177 10.937455177 10.937455177     0.091428946  0.091428946  0.091428946


 
 old parameters found on file WAVECAR:
  energy-cutoff  :      184.01
  volume of cell :     1308.43
      direct lattice vectors                 reciprocal lattice vectors
    10.937455177  0.000000000  0.000000000     0.091428946  0.000000000  0.000000000
     0.000000000 10.937455177  0.000000000     0.000000000  0.091428946  0.000000000
     0.000000000  0.000000000 10.937455177     0.000000000  0.000000000  0.091428946

  length of vectors

 
 k-points in units of 2pi/SCALE and weight: Gamma-point only                        
   0.00000000  0.00000000  0.00000000       1.000
 
 k-points in reciprocal lattice and weights: Gamma-point only                        
   0.00000000  0.00000000  0.00000000       1.000
 
 position of ions in fractional coordinates (direct lattice) 
   0.22590016  0.22937006  0.97120966
   0.23056169  0.20962025  0.45751754
   0.17208435  0.66813837  0.96591694
   0.20722756  0.73218632  0.52174929
   0.72970828  0.23567251  0.03863834
   0.74881159  0.25609287  0.48944311
   0.69547378  0.75946135  0.00428295
   0.78688276  0.75737845  0.44076206
   0.38627411  0.00015628  0.23416003
   0.25980451  0.96942207  0.76543328
   0.23368473  0.50290902  0.23744735
   0.23852532  0.44846045  0.71158211
   0.72070732  0.98296855  0.39326674
   0.80209196  0.06222740  0.83949600
   0.77900292  0.54830388  0.26676049
   0.76484112  0.47155375  0.77207807
   0.00501110  0.31442773  0.23429427
   0.99272789  0.23840583  0.74723853
   0.01996728  0.79108603  0.15941089
   0.92487840  0.79343620  0.76844952
   0.45364624  0.22691428  0.26758894
   0.52648684  0.19902418  0.74230256
   0.47659889  0.73186708  0.27072866
   0.45044821  0.69112495  0.75426130
   0.04138742  0.00060396  0.05831033
   0.01258948  0.01520777  0.49857026
   0.99116248  0.52288315  0.95305874
   0.96193893  0.51578024  0.49364960
   0.50552507  0.95828014  0.02601162
   0.54040146  0.02978835  0.59195254
   0.47273208  0.49262976  0.99984572
   0.50613034  0.47273666  0.48683137
   0.10599557  0.14035346  0.30480239
   0.10058841  0.09778676  0.86013366
   0.09020082  0.65729940  0.33165999
   0.09950354  0.62637099  0.74339908
   0.59088639  0.15598269  0.43967174
   0.59910067  0.10560138  0.92677596
   0.61392021  0.62435527  0.36638637
   0.63149204  0.58825539  0.86526119
   0.15237718  0.39883980  0.07274709
   0.10809239  0.35624022  0.56229598
   0.24260772  0.87174173  0.07932918
   0.08698355  0.86628303  0.68999887
   0.69766585  0.49488668  0.05642451
   0.66293389  0.38576254  0.63150549
   0.59160920  0.88387676  0.21353853
   0.67209232  0.90904791  0.70197493
   0.42942768  0.16076891  0.05640908
   0.34133685  0.08619520  0.58586216
   0.36274725  0.62405336  0.10417011
   0.35765345  0.59357737  0.57202148
   0.89093033  0.13599129  0.20018458
   0.84955574  0.10969181  0.62199197
   0.87688793  0.66688032  0.10118229
   0.84360536  0.61941454  0.64334454
   0.35070504  0.38656413  0.38937198
   0.34126939  0.34603679  0.85692438
   0.46020292  0.87512031  0.43394797
   0.41385434  0.87904269  0.86170303
   0.85028108  0.38857752  0.37105816
   0.87671333  0.35557177  0.90293698
   0.96518226  0.88488502  0.33783294
   0.88038304  0.89682706  0.95290459
 
 position of ions in cartesian coordinates  (Angst):
   2.47077287  2.50872475 10.62256212
   2.52175815  2.29271209  5.00407759
   1.88216486  7.30773347 10.56467324
   2.26654215  8.00825506  5.70660947
   7.98115161  2.57765751  0.42260509
   8.19009320  2.80100429  5.35326208
   7.60671330  8.30657447  0.04684461
   8.60649492  8.28379285  4.82081528
   4.22485576  0.00170929  2.56111483
   2.84160018 10.60301044  8.37189219
   2.55591626  5.50054486  2.59706975
   2.60886000  4.90501607  7.78289743
   7.88270401 10.75117446  4.30133734
   8.77284486  0.68060939  9.18194987
   8.52030952  5.99704911  2.91768090
   8.36541547  5.15759800  8.44456928
   0.05480867  3.43903920  2.56258308
  10.85791680  2.60755308  8.17288793
   0.21839121  8.65246799  1.74354946
  10.11581604  8.67817287  8.40488218
   4.96173542  2.48186477  2.92674204
   5.75842621  2.17681805  8.11890098
   5.21277900  8.00476338  2.96108258
   4.92675711  7.55914816  8.24969916
   0.45267308  0.00660583  0.63776662
   0.13769683  0.16633429  5.45308987
  10.84079520  5.71901102 10.42403725
  10.52116393  5.64132326  5.39927037
   5.52915779 10.48114608  0.28450093
   5.91061675  0.32580869  6.47445437
   5.17048594  5.38811592 10.93576775
   5.53577791  5.17053603  5.32469629
   1.15932180  1.53510968  3.33376248
   1.10018123  1.06953830  9.40767335
   0.98656744  7.18918273  3.62751627
   1.08831552  6.85090463  8.13089412
   6.46279341  1.70605368  4.80888995
   6.55263672  1.15501036 10.13657052
   6.71472478  6.82885778  4.00733450
   6.90691588  6.43401696  9.46375548
   1.66661858  4.36229244  0.79566805
   1.18225567  3.89636144  6.15008708
   2.65351106  9.53463610  0.86765930
   0.95137864  9.47493181  7.54683171
   7.63068896  5.41280088  0.61714058
   7.25080971  4.21926049  6.90706299
   6.47069911  9.66736244  2.33556810
   7.35097963  9.94267077  7.67781933
   4.69684600  1.75840275  0.61697173
   3.73335650  0.94275616  6.40784112
   3.96753179  6.82555565  1.13935591
   3.91181858  6.49222588  6.25645930
   9.74451055  1.48739864  2.18950987
   9.29197783  1.19974926  6.80300929
   9.59092243  7.29397361  1.10667676
   9.22689581  6.77481877  7.03655207
   3.83582066  4.22802785  4.25873858
   3.73261866  3.78476188  9.37257200
   5.03344881  9.57158917  4.74628647
   4.52651329  9.61449002  9.42483827
   9.29991120  4.25004921  4.05843199
   9.58901275  3.88905030  9.87583275
  10.55663771  9.67839024  3.69503264
   9.62915004  9.80900577 10.42235124
 


--------------------------------------------------------------------------------------------------------


 use serial FFT for orbitals x direction half grid
 k-point  1 :   0.0000 0.0000 0.0000  plane waves:    3721

 maximum and minimum number of plane-waves per node :      3721     3721

 maximum number of plane-waves:      3721
 maximum index in each direction: 
   IXMAX=   12   IYMAX=   12   IZMAX=   12
   IXMIN=    0   IYMIN=  -12   IZMIN=  -12


 serial   3D FFT for wavefunctions
 parallel 3D FFT for charge:
    minimum data exchange during FFTs selected (reduces bandwidth)


 total amount of memory used by VASP MPI-rank0    34935. kBytes
=======================================================================

   base      :      30000. kBytes
   nonlr-proj:       1898. kBytes
   fftplans  :        377. kBytes
   grid      :       2114. kBytes
   one-center:         98. kBytes
   wavefun   :        448. kBytes
 
     INWAV:  cpu time    0.0442: real time    0.0494
 Broyden mixing: mesh for mixing (old mesh)
   NGX = 25   NGY = 25   NGZ = 25
  (NGX  = 48   NGY  = 48   NGZ  = 48)
  gives a total of  15625 points

 charge density for first step will be calculated from the start-wavefunctions


--------------------------------------------------------------------------------------------------------


 Maximum index for non-local projection operator          431
 Maximum index for augmentation-charges           60 (set IRDMAX)


--------------------------------------------------------------------------------------------------------


 initial charge from wavefunction
 First call to EWALD:  gamma=   0.162
 Maximum number of real-space cells 3x 3x 3
 Maximum number of reciprocal cells 3x 3x 3

    FEWALD:  cpu time    0.0084: real time    0.0086


--------------------------------------- Iteration      1(   1)  ---------------------------------------


    POTLOK:  cpu time    0.0107: real time    0.0793
    SETDIJ:  cpu time    0.0046: real time    0.0048
    EDDIAG:  cpu time    0.0567: real time    0.0597
  RMM-DIIS:  cpu time    0.0673: real time    0.0675
    ORTHCH:  cpu time    0.0058: real time    0.0058
       DOS:  cpu time    0.0009: real time    0.0009
    CHARGE:  cpu time    0.0048: real time    0.0048
    MIXING:  cpu time    0.0006: real time    0.0007
    --------------------------------------------
      LOOP:  cpu time    0.1513: real time    0.2236

 eigenvalue-minimisations  :   448
 total energy-change (2. order) :-0.2812616E+03  (-0.4092422E+01)
 number of electron     255.9999711 magnetization 
 augmentation part      -15.0128300 magnetization 

 Broyden mixing:
  rms(total) = 0.77237E+00    rms(broyden)= 0.77224E+00
  rms(prec ) = 0.24596E+01
  weight for this iteration     100.00

 Free energy of the ion-electron system (eV)
  ---------------------------------------------------
  alpha Z        PSCENC =       105.38179549
  Ewald energy   TEWEN  =     -7203.33284003
  -Hartree energ DENC   =      -528.32820576
  -exchange      EXHF   =         0.00000000
  -V(xc)+E(xc)   XCENC  =      -585.75109543
  PAW double counting   =     33368.26119900   -32246.96731173
  entropy T*S    EENTRO =        -0.11082839
  eigenvalues    EBANDS =       214.13123444
  atomic energy  EATOM  =      6595.45443641
  Solvation  Ediel_sol  =         0.00000000
  ---------------------------------------------------
  free energy    TOTEN  =      -281.26161599 eV

  energy without entropy =     -281.15078761  energy(sigma->0) =     -281.20620180


--------------------------------------------------------------------------------------------------------




--------------------------------------- Iteration      1(   2)  ---------------------------------------


    POTLOK:  cpu time    0.0048: real time    0.0049
    SETDIJ:  cpu time    0.0026: real time    0.0026
    EDDIAG:  cpu time    0.0189: real time    0.0190
  RMM-DIIS:  cpu time    0.0721: real time    0.0723
    ORTHCH:  cpu time    0.0030: real time    0.0030
       DOS:  cpu time    0.0003: real time    0.0003
    CHARGE:  cpu time    0.0049: real time    0.0049
    MIXING:  cpu time    0.0004: real time    0.0005
    --------------------------------------------
      LOOP:  cpu time    0.1071: real time    0.1075

 eigenvalue-minimisations  :   453
 total energy-change (2. order) : 0.8054964E+01  (-0.2340338E+01)
 number of electron     255.9999692 magnetization 
 augmentation part      -14.9914472 magnetization 

 Broyden mixing:
  rms(total) = 0.26833E+00    rms(broyden)= 0.26806E+00
  rms(prec ) = 0.67928E+00
  weight for this iteration     100.00

 eigenvalues of (default mixing * dielectric matrix)
  average eigenvalue GAMMA=   0.7543
  0.7543

 Free energy of the ion-electron system (eV)
  ---------------------------------------------------
  alpha Z        PSCENC =       105.38179549
  Ewald energy   TEWEN  =     -7203.33284003
  -Hartree energ DENC   =      -528.08466219
  -exchange      EXHF   =         0.00000000
  -V(xc)+E(xc)   XCENC  =      -585.86707846
  PAW double counting   =     33349.11497855   -32227.80285457
  entropy T*S    EENTRO =        -0.14404091
  eigenvalues    EBANDS =       222.07361409
  atomic energy  EATOM  =      6595.45443641
  Solvation  Ediel_sol  =         0.00000000
  ---------------------------------------------------
  free energy    TOTEN  =      -273.20665163 eV

  energy without entropy =     -273.06261072  energy(sigma->0) =     -273.13463117


--------------------------------------------------------------------------------------------------------




--------------------------------------- Iteration      1(   3)  ---------------------------------------


    POTLOK:  cpu time    0.0037: real time    0.0037
    SETDIJ:  cpu time    0.0025: real time    0.0025
    EDDIAG:  cpu time    0.0185: real time    0.0185
  RMM-DIIS:  cpu time    0.0775: real time    0.0777
    ORTHCH:  cpu time    0.0029: real time    0.0029
       DOS:  cpu time    0.0003: real time    0.0003
    CHARGE:  cpu time    0.0047: real time    0.0047
    MIXING:  cpu time    0.0003: real time    0.0004
    --------------------------------------------
      LOOP:  cpu time    0.1104: real time    0.1108

 eigenvalue-minimisations  :   504
 total energy-change (2. order) : 0.8146077E+00  ( 0.1790880E+00)
 number of electron     255.9999692 magnetization 
 augmentation part      -14.9973566 magnetization 

 Broyden mixing:
  rms(total) = 0.88488E-01    rms(broyden)= 0.88438E-01
  rms(prec ) = 0.14582E+00
  weight for this iteration     100.00

 eigenvalues of (default mixing * dielectric matrix)
  average eigenvalue GAMMA=   0.8382
  0.8382  0.8382

 Free energy of the ion-electron system (eV)
  ---------------------------------------------------
  alpha Z        PSCENC =       105.38179549
  Ewald energy   TEWEN  =     -7203.33284003
  -Hartree energ DENC   =      -528.39123209
  -exchange      EXHF   =         0.00000000
  -V(xc)+E(xc)   XCENC  =      -585.82840450
  PAW double counting   =     33367.29744852   -32245.98607815
  entropy T*S    EENTRO =        -0.13311893
  eigenvalues    EBANDS =       223.14594939
  atomic energy  EATOM  =      6595.45443641
  Solvation  Ediel_sol  =         0.00000000
  ---------------------------------------------------
  free energy    TOTEN  =      -272.39204390 eV

  energy without entropy =     -272.25892497  energy(sigma->0) =     -272.32548443


--------------------------------------------------------------------------------------------------------




--------------------------------------- Iteration      1(   4)  ---------------------------------------


    POTLOK:  cpu time    0.0035: real time    0.0035
    SETDIJ:  cpu time    0.0025: real time    0.0025
    EDDIAG:  cpu time    0.0182: real time    0.0183
  RMM-DIIS:  cpu time    0.0833: real time    0.0835
    ORTHCH:  cpu time    0.0028: real time    0.0028
       DOS:  cpu time    0.0003: real time    0.0003
    CHARGE:  cpu time    0.0046: real time    0.0046
    MIXING:  cpu time    0.0004: real time    0.0005
    --------------------------------------------
      LOOP:  cpu time    0.1157: real time    0.1161

 eigenvalue-minimisations  :   552
 total energy-change (2. order) : 0.2184329E-01  ( 0.6867628E-02)
 number of electron     255.9999695 magnetization 
 augmentation part      -14.9995045 magnetization 

 Broyden mixing:
  rms(total) = 0.55423E-01    rms(broyden)= 0.55411E-01
  rms(prec ) = 0.79915E-01
  weight for this iteration     100.00

 eigenvalues of (default mixing * dielectric matrix)
  average eigenvalue GAMMA=   0.9467
  1.0789  1.0789  0.6821

 Free energy of the ion-electron system (eV)
  ---------------------------------------------------
  alpha Z        PSCENC =       105.38179549
  Ewald energy   TEWEN  =     -7203.33284003
  -Hartree energ DENC   =      -528.64100313
  -exchange      EXHF   =         0.00000000
  -V(xc)+E(xc)   XCENC  =      -585.80688080
  PAW double counting   =     33349.02724338   -32227.72097007
  entropy T*S    EENTRO =        -0.13802766
  eigenvalues    EBANDS =       223.40604582
  atomic energy  EATOM  =      6595.45443641
  Solvation  Ediel_sol  =         0.00000000
  ---------------------------------------------------
  free energy    TOTEN  =      -272.37020061 eV

  energy without entropy =     -272.23217294  energy(sigma->0) =     -272.30118678


--------------------------------------------------------------------------------------------------------




--------------------------------------- Iteration      1(   5)  ---------------------------------------


    POTLOK:  cpu time    0.0035: real time    0.0035
    SETDIJ:  cpu time    0.0025: real time    0.0025
    EDDIAG:  cpu time    0.0182: real time    0.0182
  RMM-DIIS:  cpu time    0.0826: real time    0.0828
    ORTHCH:  cpu time    0.0028: real time    0.0028
       DOS:  cpu time    0.0003: real time    0.0003
    CHARGE:  cpu time    0.0046: real time    0.0046
    MIXING:  cpu time    0.0004: real time    0.0004
    --------------------------------------------
      LOOP:  cpu time    0.1149: real time    0.1151

 eigenvalue-minimisations  :   550
 total energy-change (2. order) : 0.1329596E-01  ( 0.3058749E-02)
 number of electron     255.9999694 magnetization 
 augmentation part      -14.9992858 magnetization 

 Broyden mixing:
  rms(total) = 0.34980E-01    rms(broyden)= 0.34977E-01
  rms(prec ) = 0.46470E-01
  weight for this iteration     100.00

 eigenvalues of (default mixing * dielectric matrix)
  average eigenvalue GAMMA=   1.0883
  1.3907  1.3907  0.7859  0.7859

 Free energy of the ion-electron system (eV)
  ---------------------------------------------------
  alpha Z        PSCENC =       105.38179549
  Ewald energy   TEWEN  =     -7203.33284003
  -Hartree energ DENC   =      -528.85114202
  -exchange      EXHF   =         0.00000000
  -V(xc)+E(xc)   XCENC  =      -585.78882732
  PAW double counting   =     33338.57438945   -32217.27239215
  entropy T*S    EENTRO =        -0.13659692
  eigenvalues    EBANDS =       223.61427245
  atomic energy  EATOM  =      6595.45443641
  Solvation  Ediel_sol  =         0.00000000
  ---------------------------------------------------
  free energy    TOTEN  =      -272.35690464 eV

  energy without entropy =     -272.22030773  energy(sigma->0) =     -272.28860618


--------------------------------------------------------------------------------------------------------




--------------------------------------- Iteration      1(   6)  ---------------------------------------


    POTLOK:  cpu time    0.0035: real time    0.0035
    SETDIJ:  cpu time    0.0025: real time    0.0025
    EDDIAG:  cpu time    0.0181: real time    0.0182
  RMM-DIIS:  cpu time    0.0694: real time    0.1162
    ORTHCH:  cpu time    0.0028: real time    0.0028
       DOS:  cpu time    0.0003: real time    0.0003
    CHARGE:  cpu time    0.0046: real time    0.0046
    MIXING:  cpu time    0.0004: real time    0.0004
    --------------------------------------------
      LOOP:  cpu time    0.1017: real time    0.1485

 eigenvalue-minimisations  :   532
 total energy-change (2. order) : 0.6173707E-02  ( 0.2784942E-02)
 number of electron     255.9999692 magnetization 
 augmentation part      -14.9988895 magnetization 

 Broyden mixing:
  rms(total) = 0.15155E-01    rms(broyden)= 0.15151E-01
  rms(prec ) = 0.22463E-01
  weight for this iteration     100.00

 eigenvalues of (default mixing * dielectric matrix)
  average eigenvalue GAMMA=   1.1484
  2.0457  0.7127  1.0209  1.0209  0.9419

 Free energy of the ion-electron system (eV)
  ---------------------------------------------------
  alpha Z        PSCENC =       105.38179549
  Ewald energy   TEWEN  =     -7203.33284003
  -Hartree energ DENC   =      -529.12854529
  -exchange      EXHF   =         0.00000000
  -V(xc)+E(xc)   XCENC  =      -585.76503884
  PAW double counting   =     33330.39714357   -32209.09975126
  entropy T*S    EENTRO =        -0.13601096
  eigenvalues    EBANDS =       223.87807998
  atomic energy  EATOM  =      6595.45443641
  Solvation  Ediel_sol  =         0.00000000
  ---------------------------------------------------
  free energy    TOTEN  =      -272.35073094 eV

  energy without entropy =     -272.21471998  energy(sigma->0) =     -272.28272546


--------------------------------------------------------------------------------------------------------




--------------------------------------- Iteration      1(   7)  ---------------------------------------


    POTLOK:  cpu time    0.0035: real time    0.0036
    SETDIJ:  cpu time    0.0025: real time    0.0025
    EDDIAG:  cpu time    0.0190: real time    0.0190
  RMM-DIIS:  cpu time    0.0829: real time    0.0831
    ORTHCH:  cpu time    0.0028: real time    0.0028
       DOS:  cpu time    0.0003: real time    0.0003
    CHARGE:  cpu time    0.0046: real time    0.0046
    MIXING:  cpu time    0.0005: real time    0.0005
    --------------------------------------------
      LOOP:  cpu time    0.1162: real time    0.1165

 eigenvalue-minimisations  :   551
 total energy-change (2. order) : 0.1653689E-02  ( 0.1176916E-02)
 number of electron     255.9999692 magnetization 
 augmentation part      -14.9987613 magnetization 

 Broyden mixing:
  rms(total) = 0.95436E-02    rms(broyden)= 0.95427E-02
  rms(prec ) = 0.13202E-01
  weight for this iteration     100.00

 eigenvalues of (default mixing * dielectric matrix)
  average eigenvalue GAMMA=   1.1934
  2.0451  1.6200  1.0056  1.0056  0.7421  0.7421

 Free energy of the ion-electron system (eV)
  ---------------------------------------------------
  alpha Z        PSCENC =       105.38179549
  Ewald energy   TEWEN  =     -7203.33284003
  -Hartree energ DENC   =      -529.17086345
  -exchange      EXHF   =         0.00000000
  -V(xc)+E(xc)   XCENC  =      -585.75905556
  PAW double counting   =     33329.89880678   -32208.60159974
  entropy T*S    EENTRO =        -0.13650717
  eigenvalues    EBANDS =       223.91675002
  atomic energy  EATOM  =      6595.45443641
  Solvation  Ediel_sol  =         0.00000000
  ---------------------------------------------------
  free energy    TOTEN  =      -272.34907725 eV

  energy without entropy =     -272.21257008  energy(sigma->0) =     -272.28082366


--------------------------------------------------------------------------------------------------------




--------------------------------------- Iteration      1(   8)  ---------------------------------------


    POTLOK:  cpu time    0.0034: real time    0.0035
    SETDIJ:  cpu time    0.0026: real time    0.0026
    EDDIAG:  cpu time    0.0181: real time    0.0182
  RMM-DIIS:  cpu time    0.0762: real time    0.0764
    ORTHCH:  cpu time    0.0028: real time    0.0028
       DOS:  cpu time    0.0003: real time    0.0003
    CHARGE:  cpu time    0.0046: real time    0.0046
    MIXING:  cpu time    0.0005: real time    0.0005
    --------------------------------------------
      LOOP:  cpu time    0.1086: real time    0.1089

 eigenvalue-minimisations  :   488
 total energy-change (2. order) : 0.1392241E-02  ( 0.1212611E-02)
 number of electron     255.9999693 magnetization 
 augmentation part      -14.9988172 magnetization 

 Broyden mixing:
  rms(total) = 0.54802E-02    rms(broyden)= 0.54797E-02
  rms(prec ) = 0.73949E-02
  weight for this iteration     100.00

 eigenvalues of (default mixing * dielectric matrix)
  average eigenvalue GAMMA=   1.2442
  2.2245  2.2245  1.0184  1.0184  0.7706  0.7706  0.6820

 Free energy of the ion-electron system (eV)
  ---------------------------------------------------
  alpha Z        PSCENC =       105.38179549
  Ewald energy   TEWEN  =     -7203.33284003
  -Hartree energ DENC   =      -529.20161798
  -exchange      EXHF   =         0.00000000
  -V(xc)+E(xc)   XCENC  =      -585.75613573
  PAW double counting   =     33331.55543834   -32210.25741533
  entropy T*S    EENTRO =        -0.13658248
  eigenvalues    EBANDS =       223.94523631
  atomic energy  EATOM  =      6595.45443641
  Solvation  Ediel_sol  =         0.00000000
  ---------------------------------------------------
  free energy    TOTEN  =      -272.34768501 eV

  energy without entropy =     -272.21110253  energy(sigma->0) =     -272.27939377


--------------------------------------------------------------------------------------------------------




--------------------------------------- Iteration      1(   9)  ---------------------------------------


    POTLOK:  cpu time    0.0034: real time    0.0035
    SETDIJ:  cpu time    0.0025: real time    0.0025
    EDDIAG:  cpu time    0.0181: real time    0.0181
  RMM-DIIS:  cpu time    0.0678: real time    0.0679
    ORTHCH:  cpu time    0.0029: real time    0.0029
       DOS:  cpu time    0.0003: real time    0.0003
    CHARGE:  cpu time    0.0050: real time    0.0050
    MIXING:  cpu time    0.0006: real time    0.0006
    --------------------------------------------
      LOOP:  cpu time    0.1007: real time    0.1009

 eigenvalue-minimisations  :   422
 total energy-change (2. order) : 0.1569943E-02  ( 0.1528170E-02)
 number of electron     255.9999693 magnetization 
 augmentation part      -14.9988098 magnetization 

 Broyden mixing:
  rms(total) = 0.31694E-02    rms(broyden)= 0.31690E-02
  rms(prec ) = 0.49350E-02
  weight for this iteration     100.00

 eigenvalues of (default mixing * dielectric matrix)
  average eigenvalue GAMMA=   1.2326
  2.4593  2.1974  1.0606  1.0606  0.8640  0.8640  0.7142  0.6404

 Free energy of the ion-electron system (eV)
  ---------------------------------------------------
  alpha Z        PSCENC =       105.38179549
  Ewald energy   TEWEN  =     -7203.33284003
  -Hartree energ DENC   =      -529.21570635
  -exchange      EXHF   =         0.00000000
  -V(xc)+E(xc)   XCENC  =      -585.75473101
  PAW double counting   =     33332.50367951   -32211.20506025
  entropy T*S    EENTRO =        -0.13631397
  eigenvalues    EBANDS =       223.95862514
  atomic energy  EATOM  =      6595.45443641
  Solvation  Ediel_sol  =         0.00000000
  ---------------------------------------------------
  free energy    TOTEN  =      -272.34611506 eV

  energy without entropy =     -272.20980109  energy(sigma->0) =     -272.27795808


--------------------------------------------------------------------------------------------------------




--------------------------------------- Iteration      1(  10)  ---------------------------------------


    POTLOK:  cpu time    0.0035: real time    0.0036
    SETDIJ:  cpu time    0.0025: real time    0.0025
    EDDIAG:  cpu time    0.0180: real time    0.0181
  RMM-DIIS:  cpu time    0.0590: real time    0.0592
    ORTHCH:  cpu time    0.0031: real time    0.0031
       DOS:  cpu time    0.0003: real time    0.0003
    CHARGE:  cpu time    0.0050: real time    0.0050
    MIXING:  cpu time    0.0006: real time    0.0006
    --------------------------------------------
      LOOP:  cpu time    0.0921: real time    0.0924

 eigenvalue-minimisations  :   347
 total energy-change (2. order) : 0.1005189E-02  ( 0.9651862E-03)
 number of electron     255.9999693 magnetization 
 augmentation part      -14.9988917 magnetization 

 Broyden mixing:
  rms(total) = 0.25784E-02    rms(broyden)= 0.25780E-02
  rms(prec ) = 0.40202E-02
  weight for this iteration     100.00

 eigenvalues of (default mixing * dielectric matrix)
  average eigenvalue GAMMA=   1.2109
  2.4597  2.4597  1.1103  1.1103  0.9068  0.9068  0.7309  0.7309  0.4825

 Free energy of the ion-electron system (eV)
  ---------------------------------------------------
  alpha Z        PSCENC =       105.38179549
  Ewald energy   TEWEN  =     -7203.33284003
  -Hartree energ DENC   =      -529.22223850
  -exchange      EXHF   =         0.00000000
  -V(xc)+E(xc)   XCENC  =      -585.75404634
  PAW double counting   =     33332.93573183   -32211.63696494
  entropy T*S    EENTRO =        -0.13621315
  eigenvalues    EBANDS =       223.96522937
  atomic energy  EATOM  =      6595.45443641
  Solvation  Ediel_sol  =         0.00000000
  ---------------------------------------------------
  free energy    TOTEN  =      -272.34510987 eV

  energy without entropy =     -272.20889672  energy(sigma->0) =     -272.27700330


--------------------------------------------------------------------------------------------------------




--------------------------------------- Iteration      1(  11)  ---------------------------------------


    POTLOK:  cpu time    0.0036: real time    0.0036
    SETDIJ:  cpu time    0.0026: real time    0.0026
    EDDIAG:  cpu time    0.0182: real time    0.0183
  RMM-DIIS:  cpu time    0.0589: real time    0.0590
    ORTHCH:  cpu time    0.0030: real time    0.0030
       DOS:  cpu time    0.0003: real time    0.0003
    CHARGE:  cpu time    0.0050: real time    0.0050
    MIXING:  cpu time    0.0007: real time    0.0007
    --------------------------------------------
      LOOP:  cpu time    0.0922: real time    0.0925

 eigenvalue-minimisations  :   346
 total energy-change (2. order) : 0.1296236E-02  ( 0.1264738E-02)
 number of electron     255.9999693 magnetization 
 augmentation part      -14.9988876 magnetization 

 Broyden mixing:
  rms(total) = 0.19470E-02    rms(broyden)= 0.19467E-02
  rms(prec ) = 0.27632E-02
  weight for this iteration     100.00

 eigenvalues of (default mixing * dielectric matrix)
  average eigenvalue GAMMA=   1.2479
  2.6352  2.6352  1.2670  1.2670  0.9487  0.9487  0.7969  0.7969  0.7077  0.4758

 Free energy of the ion-electron system (eV)
  ---------------------------------------------------
  alpha Z        PSCENC =       105.38179549
  Ewald energy   TEWEN  =     -7203.33284003
  -Hartree energ DENC   =      -529.22783125
  -exchange      EXHF   =         0.00000000
  -V(xc)+E(xc)   XCENC  =      -585.75350746
  PAW double counting   =     33333.34627255   -32212.04743597
  entropy T*S    EENTRO =        -0.13609748
  eigenvalues    EBANDS =       223.97139410
  atomic energy  EATOM  =      6595.45443641
  Solvation  Ediel_sol  =         0.00000000
  ---------------------------------------------------
  free energy    TOTEN  =      -272.34381364 eV

  energy without entropy =     -272.20771616  energy(sigma->0) =     -272.27576490


--------------------------------------------------------------------------------------------------------




--------------------------------------- Iteration      1(  12)  ---------------------------------------


    POTLOK:  cpu time    0.0035: real time    0.0035
    SETDIJ:  cpu time    0.0025: real time    0.0025
    EDDIAG:  cpu time    0.0183: real time    0.0184
  RMM-DIIS:  cpu time    0.0599: real time    0.0601
    ORTHCH:  cpu time    0.0031: real time    0.0031
       DOS:  cpu time    0.0003: real time    0.0003
    CHARGE:  cpu time    0.0051: real time    0.0052
    MIXING:  cpu time    0.0007: real time    0.0007
    --------------------------------------------
      LOOP:  cpu time    0.0936: real time    0.0939

 eigenvalue-minimisations  :   343
 total energy-change (2. order) : 0.7573543E-03  ( 0.7395788E-03)
 number of electron     255.9999693 magnetization 
 augmentation part      -14.9989687 magnetization 

 Broyden mixing:
  rms(total) = 0.19221E-02    rms(broyden)= 0.19218E-02
  rms(prec ) = 0.30039E-02
  weight for this iteration     100.00

 eigenvalues of (default mixing * dielectric matrix)
  average eigenvalue GAMMA=   1.3099
  2.9306  2.7793  1.5899  1.5899  0.9996  0.9996  0.8343  0.8343  0.7188  0.7188
  0.4144

 Free energy of the ion-electron system (eV)
  ---------------------------------------------------
  alpha Z        PSCENC =       105.38179549
  Ewald energy   TEWEN  =     -7203.33284003
  -Hartree energ DENC   =      -529.23114483
  -exchange      EXHF   =         0.00000000
  -V(xc)+E(xc)   XCENC  =      -585.75312707
  PAW double counting   =     33333.75054228   -32212.45174847
  entropy T*S    EENTRO =        -0.13609282
  eigenvalues    EBANDS =       223.97512275
  atomic energy  EATOM  =      6595.45443641
  Solvation  Ediel_sol  =         0.00000000
  ---------------------------------------------------
  free energy    TOTEN  =      -272.34305628 eV

  energy without entropy =     -272.20696347  energy(sigma->0) =     -272.27500988


--------------------------------------------------------------------------------------------------------




--------------------------------------- Iteration      1(  13)  ---------------------------------------


    POTLOK:  cpu time    0.0038: real time    0.0038
    SETDIJ:  cpu time    0.0026: real time    0.0026
    EDDIAG:  cpu time    0.0183: real time    0.0184
  RMM-DIIS:  cpu time    0.0551: real time    0.0552
    ORTHCH:  cpu time    0.0028: real time    0.0028
       DOS:  cpu time    0.0003: real time    0.0003
    CHARGE:  cpu time    0.0046: real time    0.0046
    MIXING:  cpu time    0.0008: real time    0.0008
    --------------------------------------------
      LOOP:  cpu time    0.0883: real time    0.0885

 eigenvalue-minimisations  :   332
 total energy-change (2. order) : 0.1164083E-02  ( 0.1143506E-02)
 number of electron     255.9999693 magnetization 
 augmentation part      -14.9989735 magnetization 

 Broyden mixing:
  rms(total) = 0.12060E-02    rms(broyden)= 0.12058E-02
  rms(prec ) = 0.18935E-02
  weight for this iteration     100.00

 eigenvalues of (default mixing * dielectric matrix)
  average eigenvalue GAMMA=   1.3790
  4.0518  2.6763  1.7049  1.7049  1.0177  1.0177  0.8295  0.8295  0.7461  0.7754
  0.7754  0.4189

 Free energy of the ion-electron system (eV)
  ---------------------------------------------------
  alpha Z        PSCENC =       105.38179549
  Ewald energy   TEWEN  =     -7203.33284003
  -Hartree energ DENC   =      -529.23618676
  -exchange      EXHF   =         0.00000000
  -V(xc)+E(xc)   XCENC  =      -585.75259648
  PAW double counting   =     33334.20470168   -32212.90603711
  entropy T*S    EENTRO =        -0.13603042
  eigenvalues    EBANDS =       223.98086503
  atomic energy  EATOM  =      6595.45443641
  Solvation  Ediel_sol  =         0.00000000
  ---------------------------------------------------
  free energy    TOTEN  =      -272.34189220 eV

  energy without entropy =     -272.20586178  energy(sigma->0) =     -272.27387699


--------------------------------------------------------------------------------------------------------




--------------------------------------- Iteration      1(  14)  ---------------------------------------


    POTLOK:  cpu time    0.0035: real time    0.0035
    SETDIJ:  cpu time    0.0025: real time    0.0025
    EDDIAG:  cpu time    0.0182: real time    0.0183
WARNING in EDDRMM: call to ZHEGV failed, returncode =   8  4      6
  RMM-DIIS:  cpu time    0.0618: real time    0.0620
    ORTHCH:  cpu time    0.0030: real time    0.0030
       DOS:  cpu time    0.0003: real time    0.0003
    CHARGE:  cpu time    0.0048: real time    0.0048
    MIXING:  cpu time    0.0008: real time    0.0008
    --------------------------------------------
      LOOP:  cpu time    0.0950: real time    0.0952

 eigenvalue-minimisations  :   365
 total energy-change (2. order) : 0.6310306E-03  ( 0.6223148E-03)
 number of electron     255.9999693 magnetization 
 augmentation part      -14.9989917 magnetization 

 Broyden mixing:
  rms(total) = 0.11524E-02    rms(broyden)= 0.11520E-02
  rms(prec ) = 0.18713E-02
  weight for this iteration     100.00

 eigenvalues of (default mixing * dielectric matrix)
  average eigenvalue GAMMA=   1.4145
  5.0129  2.6852  1.9050  1.6611  1.0523  1.0523  0.8249  0.8249  0.8006  0.8006
  0.7274  0.6404  0.4016

 Free energy of the ion-electron system (eV)
  ---------------------------------------------------
  alpha Z        PSCENC =       105.38179549
  Ewald energy   TEWEN  =     -7203.33284003
  -Hartree energ DENC   =      -529.24174325
  -exchange      EXHF   =         0.00000000
  -V(xc)+E(xc)   XCENC  =      -585.75210188
  PAW double counting   =     33334.53410388   -32213.23560284
  entropy T*S    EENTRO =        -0.13597766
  eigenvalues    EBANDS =       223.98666872
  atomic energy  EATOM  =      6595.45443641
  Solvation  Ediel_sol  =         0.00000000
  ---------------------------------------------------
  free energy    TOTEN  =      -272.34126117 eV

  energy without entropy =     -272.20528351  energy(sigma->0) =     -272.27327234


--------------------------------------------------------------------------------------------------------




--------------------------------------- Iteration      1(  15)  ---------------------------------------


    POTLOK:  cpu time    0.0035: real time    0.0035
    SETDIJ:  cpu time    0.0025: real time    0.0025
    EDDIAG:  cpu time    0.0182: real time    0.0183
  RMM-DIIS:  cpu time    0.0538: real time    0.0539
    ORTHCH:  cpu time    0.0029: real time    0.0029
       DOS:  cpu time    0.0003: real time    0.0003
    CHARGE:  cpu time    0.0050: real time    0.0050
    MIXING:  cpu time    0.0010: real time    0.0010
    --------------------------------------------
      LOOP:  cpu time    0.0873: real time    0.0875

 eigenvalue-minimisations  :   292
 total energy-change (2. order) : 0.8416849E-03  ( 0.8360977E-03)
 number of electron     255.9999693 magnetization 
 augmentation part      -14.9990135 magnetization 

 Broyden mixing:
  rms(total) = 0.90175E-03    rms(broyden)= 0.90140E-03
  rms(prec ) = 0.15969E-02
  weight for this iteration     100.00

 eigenvalues of (default mixing * dielectric matrix)
  average eigenvalue GAMMA=   1.4483
  6.3177  2.8372  1.7657  1.7657  1.0715  1.0715  0.8334  0.8334  0.7476  0.7476
  0.7369  0.6487  0.4898  0.4094

 Free energy of the ion-electron system (eV)
  ---------------------------------------------------
  alpha Z        PSCENC =       105.38179549
  Ewald energy   TEWEN  =     -7203.33284003
  -Hartree energ DENC   =      -529.24441241
  -exchange      EXHF   =         0.00000000
  -V(xc)+E(xc)   XCENC  =      -585.75179139
  PAW double counting   =     33334.85608629   -32213.55769039
  entropy T*S    EENTRO =        -0.13592604
  eigenvalues    EBANDS =       223.98992259
  atomic energy  EATOM  =      6595.45443641
  Solvation  Ediel_sol  =         0.00000000
  ---------------------------------------------------
  free energy    TOTEN  =      -272.34041949 eV

  energy without entropy =     -272.20449345  energy(sigma->0) =     -272.27245647


--------------------------------------------------------------------------------------------------------




--------------------------------------- Iteration      1(  16)  ---------------------------------------


    POTLOK:  cpu time    0.0035: real time    0.0036
    SETDIJ:  cpu time    0.0026: real time    0.0026
    EDDIAG:  cpu time    0.0182: real time    0.0182
  RMM-DIIS:  cpu time    0.0540: real time    0.0541
    ORTHCH:  cpu time    0.0029: real time    0.0029
       DOS:  cpu time    0.0003: real time    0.0003
    CHARGE:  cpu time    0.0048: real time    0.0048
    MIXING:  cpu time    0.0010: real time    0.0010
    --------------------------------------------
      LOOP:  cpu time    0.0872: real time    0.0875

 eigenvalue-minimisations  :   310
 total energy-change (2. order) : 0.6021962E-03  ( 0.5961171E-03)
 number of electron     255.9999693 magnetization 
 augmentation part      -14.9990860 magnetization 

 Broyden mixing:
  rms(total) = 0.94526E-03    rms(broyden)= 0.94498E-03
  rms(prec ) = 0.16555E-02
  weight for this iteration     100.00

 eigenvalues of (default mixing * dielectric matrix)
  average eigenvalue GAMMA=   1.4509
  7.1369  2.7894  2.0785  1.4707  1.0784  1.0784  0.6357  0.6357  0.8195  0.8195
  0.7609  0.7609  0.7446  0.5684  0.3866

 Free energy of the ion-electron system (eV)
  ---------------------------------------------------
  alpha Z        PSCENC =       105.38179549
  Ewald energy   TEWEN  =     -7203.33284003
  -Hartree energ DENC   =      -529.24721273
  -exchange      EXHF   =         0.00000000
  -V(xc)+E(xc)   XCENC  =      -585.75147643
  PAW double counting   =     33335.16346177   -32213.86516730
  entropy T*S    EENTRO =        -0.13587549
  eigenvalues    EBANDS =       223.99306102
  atomic energy  EATOM  =      6595.45443641
  Solvation  Ediel_sol  =         0.00000000
  ---------------------------------------------------
  free energy    TOTEN  =      -272.33981729 eV

  energy without entropy =     -272.20394180  energy(sigma->0) =     -272.27187955


--------------------------------------------------------------------------------------------------------




--------------------------------------- Iteration      1(  17)  ---------------------------------------


    POTLOK:  cpu time    0.0034: real time    0.0035
    SETDIJ:  cpu time    0.0025: real time    0.0025
    EDDIAG:  cpu time    0.0182: real time    0.0182
  RMM-DIIS:  cpu time    0.0492: real time    0.0493
    ORTHCH:  cpu time    0.0028: real time    0.0028
       DOS:  cpu time    0.0003: real time    0.0003
    CHARGE:  cpu time    0.0046: real time    0.0046
    MIXING:  cpu time    0.0010: real time    0.0010
    --------------------------------------------
      LOOP:  cpu time    0.0820: real time    0.0823

 eigenvalue-minimisations  :   283
 total energy-change (2. order) : 0.6247583E-03  ( 0.6212100E-03)
 number of electron     255.9999693 magnetization 
 augmentation part      -14.9990812 magnetization 

 Broyden mixing:
  rms(total) = 0.10465E-02    rms(broyden)= 0.10461E-02
  rms(prec ) = 0.18571E-02
  weight for this iteration     100.00

 eigenvalues of (default mixing * dielectric matrix)
  average eigenvalue GAMMA=   1.3777
  7.3067  2.8046  2.0580  1.4851  1.0770  1.0770  0.8235  0.8235  0.7751  0.7751
  0.6276  0.6276  0.7349  0.5826  0.3892  0.0761

 Free energy of the ion-electron system (eV)
  ---------------------------------------------------
  alpha Z        PSCENC =       105.38179549
  Ewald energy   TEWEN  =     -7203.33284003
  -Hartree energ DENC   =      -529.24908926
  -exchange      EXHF   =         0.00000000
  -V(xc)+E(xc)   XCENC  =      -585.75124452
  PAW double counting   =     33335.32968017   -32214.03147660
  entropy T*S    EENTRO =        -0.13585007
  eigenvalues    EBANDS =       223.99539588
  atomic energy  EATOM  =      6595.45443641
  Solvation  Ediel_sol  =         0.00000000
  ---------------------------------------------------
  free energy    TOTEN  =      -272.33919253 eV

  energy without entropy =     -272.20334247  energy(sigma->0) =     -272.27126750


--------------------------------------------------------------------------------------------------------




--------------------------------------- Iteration      1(  18)  ---------------------------------------


    POTLOK:  cpu time    0.0034: real time    0.0034
    SETDIJ:  cpu time    0.0025: real time    0.0025
    EDDIAG:  cpu time    0.0183: real time    0.0183
  RMM-DIIS:  cpu time    0.0428: real time    0.0429
    ORTHCH:  cpu time    0.0028: real time    0.0028
       DOS:  cpu time    0.0003: real time    0.0003
    CHARGE:  cpu time    0.0046: real time    0.0046
    MIXING:  cpu time    0.0011: real time    0.0011
    --------------------------------------------
      LOOP:  cpu time    0.0758: real time    0.0760

 eigenvalue-minimisations  :   245
 total energy-change (2. order) : 0.3838980E-03  ( 0.3829576E-03)
 number of electron     255.9999693 magnetization 
 augmentation part      -14.9991487 magnetization 

 Broyden mixing:
  rms(total) = 0.17281E-02    rms(broyden)= 0.17279E-02
  rms(prec ) = 0.31805E-02
  weight for this iteration     100.00

 eigenvalues of (default mixing * dielectric matrix)
  average eigenvalue GAMMA=   1.2426
  5.8745  2.7561  2.0086  1.6055  1.0667  1.0667  0.8823  0.8823  0.8299  0.8299
  0.6428  0.6428  0.5989  0.5989  0.4080  0.2357  0.1953

 Free energy of the ion-electron system (eV)
  ---------------------------------------------------
  alpha Z        PSCENC =       105.38179549
  Ewald energy   TEWEN  =     -7203.33284003
  -Hartree energ DENC   =      -529.24939214
  -exchange      EXHF   =         0.00000000
  -V(xc)+E(xc)   XCENC  =      -585.75120863
  PAW double counting   =     33335.36207365   -32214.06388247
  entropy T*S    EENTRO =        -0.13584595
  eigenvalues    EBANDS =       223.99605506
  atomic energy  EATOM  =      6595.45443641
  Solvation  Ediel_sol  =         0.00000000
  ---------------------------------------------------
  free energy    TOTEN  =      -272.33880863 eV

  energy without entropy =     -272.20296268  energy(sigma->0) =     -272.27088566


--------------------------------------------------------------------------------------------------------




--------------------------------------- Iteration      1(  19)  ---------------------------------------


    POTLOK:  cpu time    0.0034: real time    0.0034
    SETDIJ:  cpu time    0.0025: real time    0.0025
    EDDIAG:  cpu time    0.0182: real time    0.0182
  RMM-DIIS:  cpu time    0.0428: real time    0.0429
    ORTHCH:  cpu time    0.0028: real time    0.0028
       DOS:  cpu time    0.0003: real time    0.0003
    CHARGE:  cpu time    0.0046: real time    0.0046
    MIXING:  cpu time    0.0012: real time    0.0012
    --------------------------------------------
      LOOP:  cpu time    0.0758: real time    0.0760

 eigenvalue-minimisations  :   248
 total energy-change (2. order) : 0.2546408E-03  ( 0.2793739E-03)
 number of electron     255.9999692 magnetization 
 augmentation part      -14.9991869 magnetization 

 Broyden mixing:
  rms(total) = 0.29346E-02    rms(broyden)= 0.29344E-02
  rms(prec ) = 0.53821E-02
  weight for this iteration     100.00

 eigenvalues of (default mixing * dielectric matrix)
  average eigenvalue GAMMA=   1.1734
  5.4668  2.6276  2.2061  1.5284  1.0566  1.0566  0.9321  0.8865  0.8865  0.8236
  0.6482  0.6482  0.6241  0.3925  0.4344  0.4344  0.2343  0.2343

 Free energy of the ion-electron system (eV)
  ---------------------------------------------------
  alpha Z        PSCENC =       105.38179549
  Ewald energy   TEWEN  =     -7203.33284003
  -Hartree energ DENC   =      -529.24676767
  -exchange      EXHF   =         0.00000000
  -V(xc)+E(xc)   XCENC  =      -585.75146230
  PAW double counting   =     33335.17434786   -32213.87607028
  entropy T*S    EENTRO =        -0.13587367
  eigenvalues    EBANDS =       223.99388020
  atomic energy  EATOM  =      6595.45443641
  Solvation  Ediel_sol  =         0.00000000
  ---------------------------------------------------
  free energy    TOTEN  =      -272.33855399 eV

  energy without entropy =     -272.20268033  energy(sigma->0) =     -272.27061716


--------------------------------------------------------------------------------------------------------




--------------------------------------- Iteration      1(  20)  ---------------------------------------


    POTLOK:  cpu time    0.0034: real time    0.0035
    SETDIJ:  cpu time    0.0025: real time    0.0025
    EDDIAG:  cpu time    0.0182: real time    0.0182
  RMM-DIIS:  cpu time    0.0437: real time    0.0438
    ORTHCH:  cpu time    0.0028: real time    0.0028
       DOS:  cpu time    0.0003: real time    0.0003
    CHARGE:  cpu time    0.0046: real time    0.0046
    MIXING:  cpu time    0.0012: real time    0.0012
    --------------------------------------------
      LOOP:  cpu time    0.0767: real time    0.0769

 eigenvalue-minimisations  :   236
 total energy-change (2. order) : 0.4681662E-03  ( 0.4667218E-03)
 number of electron     255.9999692 magnetization 
 augmentation part      -14.9992576 magnetization 

 Broyden mixing:
  rms(total) = 0.37904E-02    rms(broyden)= 0.37903E-02
  rms(prec ) = 0.70173E-02
  weight for this iteration     100.00

 eigenvalues of (default mixing * dielectric matrix)
  average eigenvalue GAMMA=   1.1217
  5.3859  2.5849  2.3014  1.4039  1.0524  1.0524  1.0834  0.8667  0.8667  0.7990
  0.6628  0.6628  0.6184  0.4717  0.4717  0.3939  0.2535  0.1901  0.1901

 Free energy of the ion-electron system (eV)
  ---------------------------------------------------
  alpha Z        PSCENC =       105.38179549
  Ewald energy   TEWEN  =     -7203.33284003
  -Hartree energ DENC   =      -529.24703647
  -exchange      EXHF   =         0.00000000
  -V(xc)+E(xc)   XCENC  =      -585.75142855
  PAW double counting   =     33335.15824403   -32213.85998285
  entropy T*S    EENTRO =        -0.13587641
  eigenvalues    EBANDS =       223.99460255
  atomic energy  EATOM  =      6595.45443641
  Solvation  Ediel_sol  =         0.00000000
  ---------------------------------------------------
  free energy    TOTEN  =      -272.33808583 eV

  energy without entropy =     -272.20220942  energy(sigma->0) =     -272.27014762


--------------------------------------------------------------------------------------------------------




--------------------------------------- Iteration      1(  21)  ---------------------------------------


    POTLOK:  cpu time    0.0034: real time    0.0035
    SETDIJ:  cpu time    0.0025: real time    0.0025
    EDDIAG:  cpu time    0.0183: real time    0.0183
  RMM-DIIS:  cpu time    0.0416: real time    0.0417
    ORTHCH:  cpu time    0.0028: real time    0.0028
       DOS:  cpu time    0.0003: real time    0.0003
    CHARGE:  cpu time    0.0046: real time    0.0046
    MIXING:  cpu time    0.0013: real time    0.0013
    --------------------------------------------
      LOOP:  cpu time    0.0748: real time    0.0750

 eigenvalue-minimisations  :   228
 total energy-change (2. order) : 0.1550844E-03  ( 0.1696533E-03)
 number of electron     255.9999692 magnetization 
 augmentation part      -14.9992912 magnetization 

 Broyden mixing:
  rms(total) = 0.44986E-02    rms(broyden)= 0.44985E-02
  rms(prec ) = 0.82732E-02
  weight for this iteration     100.00

 eigenvalues of (default mixing * dielectric matrix)
  average eigenvalue GAMMA=   1.0987
  5.5492  2.4723  2.4723  1.2904  1.2108  1.0508  1.0508  0.8711  0.8711  0.7606
  0.6745  0.6745  0.6249  0.5166  0.5166  0.3974  0.2999  0.2999  0.1855  0.1855

 Free energy of the ion-electron system (eV)
  ---------------------------------------------------
  alpha Z        PSCENC =       105.38179549
  Ewald energy   TEWEN  =     -7203.33284003
  -Hartree energ DENC   =      -529.24618802
  -exchange      EXHF   =         0.00000000
  -V(xc)+E(xc)   XCENC  =      -585.75151147
  PAW double counting   =     33335.10450086   -32213.80620987
  entropy T*S    EENTRO =        -0.13588940
  eigenvalues    EBANDS =       223.99397529
  atomic energy  EATOM  =      6595.45443641
  Solvation  Ediel_sol  =         0.00000000
  ---------------------------------------------------
  free energy    TOTEN  =      -272.33793074 eV

  energy without entropy =     -272.20204134  energy(sigma->0) =     -272.26998604


--------------------------------------------------------------------------------------------------------




--------------------------------------- Iteration      1(  22)  ---------------------------------------


    POTLOK:  cpu time    0.0034: real time    0.0035
    SETDIJ:  cpu time    0.0025: real time    0.0025
    EDDIAG:  cpu time    0.0182: real time    0.0182
  RMM-DIIS:  cpu time    0.0413: real time    0.0414
    ORTHCH:  cpu time    0.0029: real time    0.0029
       DOS:  cpu time    0.0003: real time    0.0003
    CHARGE:  cpu time    0.0046: real time    0.0046
    MIXING:  cpu time    0.0013: real time    0.0013
    --------------------------------------------
      LOOP:  cpu time    0.0746: real time    0.0748

 eigenvalue-minimisations  :   226
 total energy-change (2. order) : 0.4042985E-03  ( 0.4055580E-03)
 number of electron     255.9999692 magnetization 
 augmentation part      -14.9993468 magnetization 

 Broyden mixing:
  rms(total) = 0.52619E-02    rms(broyden)= 0.52618E-02
  rms(prec ) = 0.97435E-02
  weight for this iteration     100.00

 eigenvalues of (default mixing * dielectric matrix)
  average eigenvalue GAMMA=   1.0476
  5.5463  2.4720  2.4720  1.3003  1.2008  1.0507  1.0507  0.8716  0.8716  0.7605
  0.6745  0.6745  0.6241  0.5177  0.5177  0.3973  0.3050  0.3050  0.1865  0.1865
  0.0138

 Free energy of the ion-electron system (eV)
  ---------------------------------------------------
  alpha Z        PSCENC =       105.38179549
  Ewald energy   TEWEN  =     -7203.33284003
  -Hartree energ DENC   =      -529.24642222
  -exchange      EXHF   =         0.00000000
  -V(xc)+E(xc)   XCENC  =      -585.75149056
  PAW double counting   =     33335.13034650   -32213.83206029
  entropy T*S    EENTRO =        -0.13589117
  eigenvalues    EBANDS =       223.99459943
  atomic energy  EATOM  =      6595.45443641
  Solvation  Ediel_sol  =         0.00000000
  ---------------------------------------------------
  free energy    TOTEN  =      -272.33752644 eV

  energy without entropy =     -272.20163528  energy(sigma->0) =     -272.26958086


--------------------------------------------------------------------------------------------------------




--------------------------------------- Iteration      1(  23)  ---------------------------------------


    POTLOK:  cpu time    0.0034: real time    0.0034
    SETDIJ:  cpu time    0.0025: real time    0.0025
    EDDIAG:  cpu time    0.0182: real time    0.0183
  RMM-DIIS:  cpu time    0.0439: real time    0.0440
    ORTHCH:  cpu time    0.0028: real time    0.0028
       DOS:  cpu time    0.0003: real time    0.0003
    CHARGE:  cpu time    0.0045: real time    0.0046
    MIXING:  cpu time    0.0014: real time    0.0014
    --------------------------------------------
      LOOP:  cpu time    0.0772: real time    0.0774

 eigenvalue-minimisations  :   224
 total energy-change (2. order) : 0.1314330E-03  ( 0.1366226E-03)
 number of electron     255.9999692 magnetization 
 augmentation part      -14.9993728 magnetization 

 Broyden mixing:
  rms(total) = 0.58219E-02    rms(broyden)= 0.58218E-02
  rms(prec ) = 0.10749E-01
  weight for this iteration     100.00

 eigenvalues of (default mixing * dielectric matrix)
  average eigenvalue GAMMA=   1.0126
  5.4817  2.4700  2.4700  1.3455  1.1663  1.0509  1.0509  0.8663  0.8663  0.7622
  0.6781  0.6781  0.6152  0.5167  0.5167  0.3970  0.3534  0.3534  0.1657  0.1657
  0.1537  0.1537

 Free energy of the ion-electron system (eV)
  ---------------------------------------------------
  alpha Z        PSCENC =       105.38179549
  Ewald energy   TEWEN  =     -7203.33284003
  -Hartree energ DENC   =      -529.24637037
  -exchange      EXHF   =         0.00000000
  -V(xc)+E(xc)   XCENC  =      -585.75149928
  PAW double counting   =     33335.12863034   -32213.83033924
  entropy T*S    EENTRO =        -0.13589249
  eigenvalues    EBANDS =       223.99468417
  atomic energy  EATOM  =      6595.45443641
  Solvation  Ediel_sol  =         0.00000000
  ---------------------------------------------------
  free energy    TOTEN  =      -272.33739501 eV

  energy without entropy =     -272.20150252  energy(sigma->0) =     -272.26944876


--------------------------------------------------------------------------------------------------------




--------------------------------------- Iteration      1(  24)  ---------------------------------------


    POTLOK:  cpu time    0.0034: real time    0.0035
    SETDIJ:  cpu time    0.0025: real time    0.0025
    EDDIAG:  cpu time    0.0182: real time    0.0183
  RMM-DIIS:  cpu time    0.0431: real time    0.0432
    ORTHCH:  cpu time    0.0030: real time    0.0030
       DOS:  cpu time    0.0003: real time    0.0003
    CHARGE:  cpu time    0.0047: real time    0.0047
    MIXING:  cpu time    0.0015: real time    0.0015
    --------------------------------------------
      LOOP:  cpu time    0.0768: real time    0.0770

 eigenvalue-minimisations  :   206
 total energy-change (2. order) : 0.3275029E-03  ( 0.3291340E-03)
 number of electron     255.9999692 magnetization 
 augmentation part      -14.9994318 magnetization 

 Broyden mixing:
  rms(total) = 0.65174E-02    rms(broyden)= 0.65174E-02
  rms(prec ) = 0.12063E-01
  weight for this iteration     100.00

 eigenvalues of (default mixing * dielectric matrix)
  average eigenvalue GAMMA=   0.9691
  5.4980  2.4678  2.4678  1.3222  1.1877  1.0501  1.0501  0.8679  0.8679  0.7642
  0.6729  0.6729  0.6179  0.5179  0.5179  0.3966  0.3580  0.3580  0.1875  0.1875
  0.0090  0.1243  0.1243

 Free energy of the ion-electron system (eV)
  ---------------------------------------------------
  alpha Z        PSCENC =       105.38179549
  Ewald energy   TEWEN  =     -7203.33284003
  -Hartree energ DENC   =      -529.24636682
  -exchange      EXHF   =         0.00000000
  -V(xc)+E(xc)   XCENC  =      -585.75149980
  PAW double counting   =     33335.12780681   -32213.82951544
  entropy T*S    EENTRO =        -0.13589259
  eigenvalues    EBANDS =       223.99500847
  atomic energy  EATOM  =      6595.45443641
  Solvation  Ediel_sol  =         0.00000000
  ---------------------------------------------------
  free energy    TOTEN  =      -272.33706751 eV

  energy without entropy =     -272.20117491  energy(sigma->0) =     -272.26912121


--------------------------------------------------------------------------------------------------------




--------------------------------------- Iteration      1(  25)  ---------------------------------------


    POTLOK:  cpu time    0.0035: real time    0.0035
    SETDIJ:  cpu time    0.0025: real time    0.0025
    EDDIAG:  cpu time    0.0183: real time    0.0183
  RMM-DIIS:  cpu time    0.0433: real time    0.0434
    ORTHCH:  cpu time    0.0034: real time    0.0034
       DOS:  cpu time    0.0003: real time    0.0003
    CHARGE:  cpu time    0.0050: real time    0.0064
    MIXING:  cpu time    0.0017: real time    0.0017
    --------------------------------------------
      LOOP:  cpu time    0.0779: real time    0.0795

 eigenvalue-minimisations  :   206
 total energy-change (2. order) : 0.1141118E-03  ( 0.1142905E-03)
 number of electron     255.9999692 magnetization 
 augmentation part      -14.9994430 magnetization 

 Broyden mixing:
  rms(total) = 0.69847E-02    rms(broyden)= 0.69847E-02
  rms(prec ) = 0.12959E-01
  weight for this iteration     100.00

 eigenvalues of (default mixing * dielectric matrix)
  average eigenvalue GAMMA=   0.9303
  5.5101  2.4698  2.4698  1.3107  1.1989  1.0499  1.0499  0.8645  0.8645  0.7629
  0.6776  0.6776  0.6193  0.5154  0.5154  0.3968  0.3603  0.3603  0.1937  0.1937
  0.0135  0.0135  0.1200  0.1200

 Free energy of the ion-electron system (eV)
  ---------------------------------------------------
  alpha Z        PSCENC =       105.38179549
  Ewald energy   TEWEN  =     -7203.33284003
  -Hartree energ DENC   =      -529.24639905
  -exchange      EXHF   =         0.00000000
  -V(xc)+E(xc)   XCENC  =      -585.75149625
  PAW double counting   =     33335.13063031   -32213.83233988
  entropy T*S    EENTRO =        -0.13589196
  eigenvalues    EBANDS =       223.99515157
  atomic energy  EATOM  =      6595.45443641
  Solvation  Ediel_sol  =         0.00000000
  ---------------------------------------------------
  free energy    TOTEN  =      -272.33695340 eV

  energy without entropy =     -272.20106143  energy(sigma->0) =     -272.26900742


--------------------------------------------------------------------------------------------------------




--------------------------------------- Iteration      1(  26)  ---------------------------------------


    POTLOK:  cpu time    0.0038: real time    0.0047
    SETDIJ:  cpu time    0.0027: real time    0.0035
    EDDIAG:  cpu time    0.0184: real time    0.0190
  RMM-DIIS:  cpu time    0.0410: real time    0.0411
    ORTHCH:  cpu time    0.0047: real time    0.0047
       DOS:  cpu time    0.0003: real time    0.0003
    CHARGE:  cpu time    0.0056: real time    0.0056
    MIXING:  cpu time    0.0019: real time    0.0019
    --------------------------------------------
      LOOP:  cpu time    0.0783: real time    0.0807

 eigenvalue-minimisations  :   188
 total energy-change (2. order) : 0.2571756E-03  ( 0.2587277E-03)
 number of electron     255.9999692 magnetization 
 augmentation part      -14.9994993 magnetization 

 Broyden mixing:
  rms(total) = 0.76076E-02    rms(broyden)= 0.76075E-02
  rms(prec ) = 0.14112E-01
  weight for this iteration     100.00

 eigenvalues of (default mixing * dielectric matrix)
  average eigenvalue GAMMA=   0.8995
[...]


    CHARGE:  cpu time    0.0049: real time    0.0049
    FORLOC:  cpu time    0.0020: real time    0.0020
    FORNL :  cpu time    0.0291: real time    0.0292
    STRESS:  cpu time    0.0832: real time    0.0834
    FORCOR:  cpu time    0.0035: real time    0.0035
    FORHAR:  cpu time    0.0017: real time    0.0017
    MIXING:  cpu time    0.0003: real time    0.0004
    OFIELD:  cpu time    0.0000: real time    0.0000

  FORCE on cell =-STRESS in cart. coord.  units (eV):
  Direction    XX          YY          ZZ          XY          YZ          ZX
  --------------------------------------------------------------------------------------
  Alpha Z   105.38180   105.38180   105.38180
  Ewald   -2402.60673 -2304.90389 -2331.70430   155.12569   105.85525    38.03565
  Hartree   211.79965   232.21497   245.50464    92.54808    28.57694    -0.59044
  E(xc)    -796.89512  -796.60016  -795.92345     0.49521    -0.58865     0.32609
  Local    -997.70513 -1111.82964 -1096.93578  -242.00428  -129.70290   -29.10667
  n-local  2499.83073  2506.54824  2492.11907    -4.20195    14.21563    -1.52916
  augment  -389.81292  -389.70696  -388.89421    -0.01569    -0.75694     0.38337
  Kinetic  1779.28770  1765.37815  1772.16273     7.03733    -7.47321    -3.57463
  Fock        0.00000     0.00000     0.00000     0.00000     0.00000     0.00000
  -------------------------------------------------------------------------------------
  Total       9.27998     6.48250     1.71049     8.98439    10.12612     3.94422
  in kB      11.36341     7.93787     2.09451    11.00146    12.39952     4.82973
  external pressure =        7.13 kB  Pullay stress =        0.00 kB

  kinetic pressure (ideal gas correction) =     12.81 kB
  total pressure  =     19.94 kB
  Total+kin.    24.905      21.891      13.029       8.323      11.450       2.311

 VOLUME and BASIS-vectors are now :
 -----------------------------------------------------------------------------
  energy-cutoff  :      184.01
  volume of cell :     1308.43
      direct lattice vectors                 reciprocal lattice vectors
    10.937455177  0.000000000  0.000000000     0.091428946  0.000000000  0.000000000
     0.000000000 10.937455177  0.000000000     0.000000000  0.091428946  0.000000000
     0.000000000  0.000000000 10.937455177     0.000000000  0.000000000  0.091428946

  length of vectors
    10.937455177 10.937455177 10.937455177     0.091428946  0.091428946  0.091428946


 FORCES acting on ions
    electron-ion (+dipol)            ewald-force                    non-local-force                 convergence-correction
 -----------------------------------------------------------------------------------------------
   -.350E+01 0.521E+02 -.125E+02   0.346E+01 -.499E+02 0.106E+02   -.653E-01 -.381E+01 0.268E+01   0.389E-01 -.152E-01 -.179E-01
   -.348E+02 0.158E+02 -.141E+01   0.345E+02 -.154E+02 0.999E+00   0.124E+01 -.422E+00 0.976E+00   0.244E-01 -.441E-02 0.377E-01
   0.107E+02 -.207E+02 -.253E+02   -.131E+02 0.206E+02 0.240E+02   0.216E+01 0.423E+00 0.392E+01   0.131E-01 0.135E-01 -.260E-01
   0.922E+01 -.224E+02 0.116E+02   -.905E+01 0.211E+02 -.132E+02   -.144E+01 0.299E+01 0.145E+01   -.822E-02 -.360E-02 0.216E-01
   0.958E+01 -.254E+02 -.433E+02   -.115E+02 0.235E+02 0.429E+02   0.120E+01 0.436E+01 0.149E+01   -.316E-01 0.251E-01 0.541E-02
   0.173E+02 -.251E+02 0.284E+02   -.179E+02 0.248E+02 -.291E+02   -.180E+00 0.760E+00 0.110E+01   -.176E-01 -.224E-01 0.175E-02
   0.716E+01 0.439E+01 -.126E+02   -.687E+01 -.278E+01 0.137E+02   0.509E+00 -.128E+01 -.153E+01   -.447E-01 0.242E-01 0.214E-01
   0.542E+01 0.238E+02 0.678E+01   -.408E+01 -.226E+02 -.707E+01   -.256E+01 -.173E+01 0.519E+00   0.956E-02 -.326E-02 0.574E-03
   0.140E+02 -.180E+02 0.122E+02   -.132E+02 0.187E+02 -.129E+02   0.333E+00 -.684E+00 0.229E+00   0.495E-01 0.122E-01 -.217E-01
   0.559E+01 -.369E+02 -.287E+02   -.435E+01 0.346E+02 0.270E+02   -.362E+00 0.308E+01 0.187E+01   -.307E-01 -.100E-01 -.312E-01
   0.374E+01 0.130E+02 0.553E+01   -.429E+01 -.126E+02 -.431E+01   0.206E+00 -.237E+00 -.284E+01   0.800E-02 0.454E-02 0.271E-01
   -.168E+02 0.459E+02 0.158E+02   0.184E+02 -.457E+02 -.131E+02   -.203E+01 0.498E+00 -.385E+01   0.141E-01 0.119E-01 -.538E-02
   -.428E+01 0.366E+02 0.139E+02   0.275E+01 -.362E+02 -.129E+02   0.210E+01 -.232E+01 -.404E+01   0.205E-01 0.325E-01 0.642E-02
   -.118E+02 0.133E+02 -.408E+01   0.116E+02 -.127E+02 0.304E+01   0.137E+01 -.220E+01 -.917E-01   -.190E-01 -.230E-01 -.294E-01
   -.573E+01 0.479E+01 -.188E+02   0.398E+01 -.622E+01 0.180E+02   0.244E+01 0.209E+01 0.170E+01   -.102E-02 0.266E-02 0.165E-02
   0.291E+02 -.632E+01 0.744E+01   -.292E+02 0.463E+01 -.915E+01   -.121E+00 0.202E+01 0.241E+01   -.194E-01 0.139E-01 -.386E-02
   -.109E+02 -.172E+02 -.331E+01   0.111E+02 0.166E+02 0.342E+01   -.318E+00 0.252E+01 0.477E-01   -.403E-01 0.564E-02 -.328E-03
   -.167E+02 -.140E+02 0.108E+02   0.164E+02 0.134E+02 -.107E+02   0.104E+01 0.174E+01 -.350E-01   -.655E-02 -.337E-01 -.674E-02
   0.414E+01 -.283E+02 -.206E+02   -.320E+01 0.284E+02 0.221E+02   -.115E+01 -.153E+00 -.185E+01   -.162E-01 -.814E-02 -.786E-02
   0.274E+02 -.160E+01 -.194E+02   -.263E+02 0.168E+01 0.169E+02   -.307E+01 -.101E+01 0.309E+01   0.154E-01 0.235E-01 -.226E-01
   0.588E+01 -.123E+01 -.181E+02   -.620E+01 0.243E-01 0.171E+02   0.126E+00 0.852E+00 0.289E+01   0.415E-01 0.258E-01 -.149E-01
   0.389E+02 -.380E+02 0.125E+02   -.404E+02 0.352E+02 -.129E+02   0.192E+01 0.526E+01 0.522E+00   0.210E-01 -.378E-02 0.128E-01
   0.364E+01 0.133E+01 0.318E+02   -.193E+01 -.907E+00 -.310E+02   -.179E+01 -.769E+00 -.213E+01   0.156E-01 -.185E-02 0.179E-01
   -.412E+02 0.147E+02 0.113E+02   0.403E+02 -.132E+02 -.111E+02   0.324E+01 -.134E+01 -.109E+01   0.483E-02 0.101E-01 -.145E-01
   -.392E+02 0.329E+02 -.289E+01   0.375E+02 -.327E+02 0.447E+01   0.331E+01 -.166E+01 -.337E+01   0.896E-02 -.211E-01 -.233E-01
   -.352E+02 -.181E+02 0.102E+02   0.353E+02 0.175E+02 -.106E+02   0.679E+00 0.112E+01 -.605E-01   -.486E-02 -.294E-01 0.273E-01
   -.189E+01 -.627E+01 -.248E+02   0.421E+00 0.492E+01 0.230E+02   0.350E+01 0.225E+01 0.376E+01   -.785E-02 0.251E-01 0.146E-01
   0.121E+01 -.429E+01 0.161E+02   -.391E+01 0.215E+01 -.170E+02   0.230E+01 0.348E+01 -.839E-01   -.169E-01 0.227E-01 -.143E-02
   0.113E+02 -.116E+02 -.185E+02   -.106E+02 0.119E+02 0.183E+02   0.280E+00 -.382E+00 0.189E+00   0.493E-01 -.206E-01 0.499E-02
   0.178E+02 -.230E+02 0.318E+01   -.175E+02 0.238E+02 -.148E+01   -.200E+01 -.339E+00 -.144E+01   0.413E-01 0.149E-01 -.185E-01
   -.166E+02 -.757E+01 0.465E+01   0.161E+02 0.546E+01 -.292E+01   -.155E+00 0.237E+01 -.331E+01   0.389E-01 0.715E-02 -.905E-02
   -.446E+02 0.331E+02 0.528E+01   0.415E+02 -.322E+02 -.389E+01   0.617E+01 -.207E+01 -.190E+01   0.666E-04 0.761E-02 0.114E-01
   -.363E+02 0.292E+02 0.106E+01   0.357E+02 -.297E+02 -.429E+01   0.389E+00 -.373E+00 0.320E+01   -.119E-01 -.419E-01 0.234E-01
   -.327E+02 0.132E+02 -.316E+01   0.333E+02 -.113E+02 0.401E+01   -.101E+01 -.242E+01 -.825E+00   -.367E-02 -.244E-01 -.316E-01
   0.365E+02 -.327E+02 0.333E+02   -.356E+02 0.318E+02 -.324E+02   -.147E+01 0.110E+01 -.117E+01   -.215E-01 -.245E-02 0.209E-01
   0.116E+02 -.643E+00 0.114E+02   -.105E+02 0.986E+00 -.860E+01   -.180E+01 -.725E+00 -.411E+01   0.876E-02 0.321E-01 -.284E-01
   0.116E+02 -.413E+02 0.392E+02   -.114E+02 0.416E+02 -.378E+02   -.456E+00 0.849E-01 -.211E+01   0.258E-01 -.131E-01 0.242E-01
   0.150E+02 0.216E+01 -.125E+02   -.159E+02 -.124E+01 0.126E+02   -.890E+00 -.165E+01 -.366E+00   -.346E-01 -.596E-02 -.181E-01
   -.948E+01 0.348E+02 -.913E+01   0.950E+01 -.340E+02 0.885E+01   0.723E+00 -.119E+01 0.635E+00   0.344E-01 -.284E-03 0.393E-02
   0.482E+01 -.268E+01 0.846E+01   -.437E+01 0.326E+01 -.854E+01   -.143E+01 -.852E+00 0.626E+00   -.152E-01 0.173E-02 0.110E-01
   0.138E+02 -.251E+01 -.160E+02   -.144E+02 0.159E+01 0.151E+02   0.112E+00 0.119E+01 0.994E+00   -.616E-02 0.299E-01 -.891E-02
   0.152E+01 0.265E+02 -.202E+01   -.134E+01 -.259E+02 0.850E+00   -.189E+00 -.205E+01 0.177E+01   -.515E-02 0.454E-02 0.132E-01
   0.111E+02 -.247E+02 -.361E+02   -.122E+02 0.249E+02 0.367E+02   0.103E+00 -.870E+00 -.957E-01   0.364E-01 -.903E-02 -.209E-01
   -.130E+02 -.427E+01 0.168E+02   0.112E+02 0.515E+01 -.151E+02   0.311E+01 -.135E+01 -.279E+01   -.149E-01 0.115E-01 0.232E-01
   -.659E+01 0.164E+01 -.169E+02   0.490E+01 -.418E-01 0.190E+02   0.392E+01 -.155E+01 -.265E+01   0.353E-02 0.856E-03 -.617E-02
   0.242E+02 0.470E+01 0.204E+02   -.219E+02 -.422E+01 -.202E+02   -.381E+01 -.205E+01 -.177E+01   -.136E-01 -.998E-02 0.581E-02
   -.170E+02 -.214E+02 0.130E+02   0.174E+02 0.216E+02 -.120E+02   -.116E+01 -.158E+00 -.939E+00   0.182E-02 0.840E-02 -.173E-01
   -.937E+00 0.224E+02 -.797E+01   -.105E+01 -.215E+02 0.787E+01   0.317E+01 -.187E+01 0.163E+00   0.438E-02 0.125E-01 -.140E-01
   0.526E+01 0.232E+02 -.215E+02   -.519E+01 -.207E+02 0.226E+02   -.958E+00 -.366E+01 -.162E+01   0.225E-01 -.185E-01 0.776E-02
   0.221E+02 -.450E+02 0.151E+02   -.217E+02 0.450E+02 -.140E+02   -.781E+00 0.181E+01 -.119E+00   -.514E-02 -.417E-02 0.121E-01
   -.928E+01 -.182E+02 -.199E+02   0.949E+01 0.168E+02 0.199E+02   -.209E+01 0.319E+01 0.676E+00   0.290E-01 0.188E-03 -.163E-01
   -.362E+02 0.821E+00 -.871E+01   0.354E+02 -.378E+01 0.720E+01   0.377E+00 0.311E+01 0.395E+01   0.750E-02 0.499E-02 0.127E-01
   0.509E+02 0.163E+02 -.316E+02   -.509E+02 -.176E+02 0.321E+02   -.880E+00 0.102E+01 0.726E+00   -.610E-01 0.693E-02 0.205E-01
   0.143E+02 -.105E+02 0.183E+02   -.137E+02 0.104E+02 -.181E+02   -.105E+01 0.311E+00 0.519E-01   -.267E-01 -.235E-01 0.997E-02
   -.888E+00 -.108E+02 -.330E+02   0.187E+01 0.994E+01 0.317E+02   -.845E+00 0.183E+01 0.206E+01   -.155E-01 -.975E-02 0.167E-01
   0.326E+02 0.344E+01 0.190E+02   -.324E+02 -.367E+01 -.184E+02   0.198E+00 0.199E+01 -.565E+00   -.511E-02 0.201E-01 -.241E-01
   -.275E+02 0.325E+02 0.665E+01   0.263E+02 -.315E+02 -.570E+01   0.997E+00 -.296E+01 -.829E+00   0.282E-01 0.110E-02 -.596E-02
   -.204E+02 0.222E+02 0.133E+02   0.193E+02 -.256E+02 -.148E+02   0.247E+01 0.431E+01 0.295E+01   0.216E-01 0.666E-02 -.260E-01
   0.209E+01 -.158E+02 0.629E+01   -.199E+01 0.147E+02 -.607E+01   0.102E+01 0.145E+01 0.460E+00   0.620E-02 -.849E-02 0.295E-01
   -.701E+01 -.110E+02 -.703E+01   0.660E+01 0.996E+01 0.757E+01   -.803E-01 0.121E+01 0.195E+00   0.893E-02 -.213E-01 -.484E-03
   0.333E+02 0.327E+01 0.143E+02   -.307E+02 -.272E+01 -.129E+02   -.355E+01 -.201E+01 -.247E+01   -.311E-01 0.422E-01 0.107E-01
   0.364E+01 0.149E+02 0.431E+01   -.104E+01 -.114E+02 -.542E+01   -.354E+01 -.586E+01 0.385E+00   -.280E-01 -.149E-01 0.106E-01
   -.986E+01 0.972E+01 0.511E+02   0.103E+02 -.955E+01 -.510E+02   -.330E+00 -.124E+00 -.580E+00   -.166E-01 -.116E-01 0.229E-01
   -.156E+02 0.114E+02 -.165E+02   0.153E+02 -.935E+01 0.171E+02   0.197E+00 -.269E+01 -.545E+00   -.202E-01 0.509E-02 -.242E-01
 -----------------------------------------------------------------------------------------------
   -.957E+01 -.341E+01 0.341E+01   -.302E-13 0.533E-14 -.711E-13   0.935E+01 0.360E+01 -.351E+01   0.528E-01 0.519E-01 -.536E-02
 
 
 POSITION                                       TOTAL-FORCE (eV/Angst)
 -----------------------------------------------------------------------------------
      2.69012      3.07967     10.73733        -0.069099     -1.632962      0.771446
      2.31608      2.37416      4.76117         0.904608     -0.003624      0.600713
      2.39512      7.44516      9.58187        -0.185432      0.352267      2.629816
      2.49050      7.77688      5.32819        -1.271296      1.635056     -0.131535
      8.77345      2.79908      0.54063        -0.764906      2.497419      1.059129
      8.40896      2.78232      5.14488        -0.783603      0.436431      0.470918
      7.39824      8.85150      0.28449         0.753123      0.355106     -0.385449
      8.48565      8.31127      5.10921        -1.207539     -0.547679      0.231002
      5.08967     10.39635      2.84315         1.190202      0.085910     -0.481966
      2.36025     10.33637      8.44902         0.848596      0.773547      0.164502
      2.57390      5.80389      2.96036        -0.335165      0.165554     -1.584557
      2.40704      4.86691      7.29800        -0.351760      0.699304     -1.217273
      6.76436      9.83087      6.06008         0.583728     -1.846838     -3.048003
      9.41816      1.40276      9.86044         1.143891     -1.645900     -1.158428
      8.27285      6.08723      2.25991         0.685468      0.660769      0.913067
      8.16934      5.45039      8.22137        -0.231598      0.342847      0.695789
      0.05198      3.08677      2.28353        -0.186320      1.957320      0.152368
     10.43488      2.06840      7.82471         0.782207      1.112724     -0.017722
      1.32107      8.63603      1.06916        -0.226986     -0.106907     -0.294997
     10.04179      8.80770      7.88943        -1.933358     -0.908424      0.600506
      4.64455      1.83188      2.70103        -0.160727     -0.328365      1.883756
      5.53246      2.23158      8.51295         0.513231      2.517311      0.107108
      4.48046      7.77237      3.14230        -0.065138     -0.345049     -1.299856
      4.50956      7.43247      8.75412         2.363353      0.184070     -0.892529
      0.02957      0.41857      1.16602         1.549291     -1.516010     -1.810231
      0.43719      0.43185      5.99022         0.708425      0.452142     -0.401605
     10.55603      5.83382      9.91133         2.023407      0.931725      1.952923
      0.33199      5.67988      5.45121        -0.420561      1.363024     -1.025109
      5.66144     10.74852      0.29548         0.937509     -0.023737     -0.039682
      6.07970      0.37595      7.47843        -1.667965      0.474146      0.240102
      5.08020      4.86262      0.06191        -0.561399      0.268303     -1.596827
      5.18698      5.18804      5.39252         3.115772     -1.136152     -0.504239
      0.80322      1.15845      3.36924        -0.282475     -0.910405     -0.012547
      1.19496      1.41340      9.82962        -0.368373     -0.580875     -0.007278
      1.03541      7.39042      3.61484        -0.587272      0.265544     -0.205960
      0.83798      6.70184      8.20311        -0.723825     -0.349324     -1.371937
      6.31782      1.11165      4.99713        -0.143242      0.367134     -0.697240
      6.96853      1.81745     10.41435        -1.868221     -0.734605     -0.308318
      6.57199      6.94872      3.84842         0.778633     -0.449396      0.365899
      7.00129      7.12792      9.49297        -0.997319     -0.268602      0.558126
      1.30069      4.67386      0.85687        -0.512320      0.298296      0.026114
      0.76040      3.56845      6.14898        -0.018556     -1.467506      0.606093
      3.86190      9.11468      0.09103        -1.009640     -0.722417      0.522721
      1.03999      9.24172      6.89719         1.319981     -0.459579     -1.057511
      7.18481      4.94114      0.61906         2.241336      0.052728     -0.557200
      6.94804      4.03231      6.95897        -1.526907     -1.570560     -1.525891
      7.53382      9.05014      2.82643        -0.805472      0.131390      0.089671
      8.06582     10.77557      8.51154         1.183659     -0.893597      0.053513
      5.08911      2.76884      0.70189        -0.871334     -1.155381     -0.520959
      3.76065      0.02025      6.27277        -0.369454      1.819603      1.014753
      3.60208      6.34863      0.78300        -1.851762      1.803306      0.618675
      3.90004      6.52732      6.46988        -0.410539      0.156311      2.450043
      9.29772      1.38444      2.39393        -0.972753     -0.245272      1.314730
      9.02023      0.62056      6.15832        -0.502171      0.199599      0.271823
      9.81373      7.35596      0.52375         0.117546      0.954871      0.777294
      9.43476      6.51282      6.62654         0.392604      1.782898      0.021795
      3.84643      4.15181      3.84197        -0.195441     -1.972913      0.122095
      3.14165      4.71165      9.32013         1.455088      0.960977      1.418509
      4.37425      9.22370      4.89744         1.131400      0.304440      0.716276
      4.70255      9.81507      8.72434        -0.482240      0.161194      0.737566
      9.90167      4.81425      3.81870        -0.955983     -1.423701     -1.033252
      9.58205      4.02557      9.41359        -0.963791     -2.399235     -0.721985
     10.14396      9.86685      4.56560         0.107809      0.034367     -0.388166
      9.63005      9.78187     10.50510        -0.156875     -0.667047      0.028327
 -----------------------------------------------------------------------------------
    total drift:                               -0.167948      0.245568     -0.111083


--------------------------------------------------------------------------------------------------------



  FREE ENERGIE OF THE ION-ELECTRON SYSTEM (eV)
  ---------------------------------------------------
  free  energy   TOTEN  =      -282.82233730 eV

  energy  without entropy=     -282.66278815  energy(sigma->0) =     -282.74256272
 
 d Force =-0.2112398E+00[-0.558E+00, 0.135E+00]  d Energy =-0.2039454E+00-0.729E-02
 d Force =-0.6350306E+01[-0.884E+01,-0.386E+01]  d Ewald  =-0.6340895E+01-0.941E-02


--------------------------------------------------------------------------------------------------------


    POTLOK:  cpu time    0.0068: real time    0.0068


--------------------------------------------------------------------------------------------------------


           RANDOM_SEED =         440548210                0                0
   IONSTEP:  cpu time    0.0005: real time    0.0426

  ENERGY OF THE ELECTRON-ION-THERMOSTAT SYSTEM (eV)
  ---------------------------------------------------
% ion-electron   TOTEN  =      -282.822337  see above
  kinetic energy EKIN   =        15.053021
  kin. lattice  EKIN_LAT=         0.000000  (temperature 1848.49 K)
  nose potential ES     =       -35.784764
  nose kinetic   EPS    =         0.561686
  ---------------------------------------------------
  total energy   ETOTAL =      -302.992395 eV

  maximum distance moved by ions :      0.84E-02


 mean value of Nose-termostat <S>:    -1.066 mean value of <T> :  2002.684
 mean temperature <T/S>/<1/S>  :  1963.816

    WAVPRE:  cpu time    0.0385: real time    0.2856
    FEWALD:  cpu time    0.0020: real time    0.0020
    ORTHCH:  cpu time    0.0076: real time    0.0076
 Prediction of Wavefunctions ALPHA= 1.915 BETA=-0.937
    POTLOK:  cpu time    0.0058: real time    0.0059
    EDDIAG:  cpu time    0.0186: real time    0.0186
 writing wavefunctions
     LOOP+:  cpu time    0.6763: real time    1.1649
    4ORBIT:  cpu time    0.0000: real time    0.0000

 total amount of memory used by VASP MPI-rank0    35831. kBytes
=======================================================================

   base      :      30000. kBytes
   nonlr-proj:       1898. kBytes
   fftplans  :        377. kBytes
   grid      :       2114. kBytes
   one-center:         98. kBytes
   wavefun   :       1344. kBytes
 
  
  
 General timing and accounting informations for this job:
 ========================================================
  
                  Total CPU time used (sec):       77.723
                            User time (sec):       72.466
                          System time (sec):        5.257
                         Elapsed time (sec):       98.571
  
                   Maximum memory used (kb):      220424.
                   Average memory used (kb):           0.
  
                          Minor page faults:      1204673
                          Major page faults:          115
                 Voluntary context switches:        10185
