 running on   24 total cores
 distrk:  each k-point on   24 cores,    1 groups
 distr:  one band on    1 cores,   24 groups
 using from now: INCAR     
 vasp.5.4.4.18Apr17-6-g9f103f2a35 (build Sep 16 2021 14:01:42) gamma-only       
  
 POSCAR found type information on POSCAR  Si
 POSCAR found :  1 types and      64 ions
 scaLAPACK will be used

 ----------------------------------------------------------------------------- 
|                                                                             |
|           W    W    AA    RRRRR   N    N  II  N    N   GGGG   !!!           |
|           W    W   A  A   R    R  NN   N  II  NN   N  G    G  !!!           |
|           W    W  A    A  R    R  N N  N  II  N N  N  G       !!!           |
|           W WW W  AAAAAA  RRRRR   N  N N  II  N  N N  G  GGG   !            |
|           WW  WW  A    A  R   R   N   NN  II  N   NN  G    G                |
|           W    W  A    A  R    R  N    N  II  N    N   GGGG   !!!           |
|                                                                             |
|      For optimal performance we recommend to set                            |
|        NCORE= 4 - approx SQRT( number of cores)                             |
|      NCORE specifies how many cores store one orbital (NPAR=cpu/NCORE).     |
|      This setting can  greatly improve the performance of VASP for DFT.     |
|      The default,   NCORE=1            might be grossly inefficient         |
|      on modern multi-core architectures or massively parallel machines.     |
|      Do your own testing !!!!                                               |
|      Unfortunately you need to use the default for GW and RPA calculations. |
|      (for HF NCORE is supported but not extensively tested yet)             |
|                                                                             |
 ----------------------------------------------------------------------------- 

 LDA part: xc-table for Pade appr. of Perdew
 found WAVECAR, reading the header
 POSCAR, INCAR and KPOINTS ok, starting setup
 FFT: planning ...
 reading WAVECAR
 the WAVECAR file was read successfully
 initial charge from wavefunction
 prediction of wavefunctions initialized - no I/O
 entering main loop
       N       E                     dE             d eps       ncg     rms          rms(c)
RMM:   1    -0.281261615994E+03   -0.28126E+03   -0.40924E+01   448   0.509E+00    0.772E+00
RMM:   2    -0.273206651630E+03    0.80550E+01   -0.23403E+01   453   0.415E+00    0.268E+00
RMM:   3    -0.272392043899E+03    0.81461E+00    0.17909E+00   504   0.162E+00    0.885E-01
RMM:   4    -0.272370200607E+03    0.21843E-01    0.68676E-02   552   0.584E-01    0.554E-01
RMM:   5    -0.272356904643E+03    0.13296E-01    0.30587E-02   550   0.248E-01    0.350E-01
RMM:   6    -0.272350730937E+03    0.61737E-02    0.27849E-02   532   0.199E-01    0.152E-01
RMM:   7    -0.272349077248E+03    0.16537E-02    0.11769E-02   551   0.975E-02    0.954E-02
RMM:   8    -0.272347685007E+03    0.13922E-02    0.12126E-02   488   0.709E-02    0.548E-02
RMM:   9    -0.272346115063E+03    0.15699E-02    0.15282E-02   422   0.544E-02    0.317E-02
RMM:  10    -0.272345109874E+03    0.10052E-02    0.96519E-03   347   0.466E-02    0.258E-02
RMM:  11    -0.272343813639E+03    0.12962E-02    0.12647E-02   346   0.446E-02    0.195E-02
RMM:  12    -0.272343056285E+03    0.75735E-03    0.73958E-03   343   0.418E-02    0.192E-02
RMM:  13    -0.272341892202E+03    0.11641E-02    0.11435E-02   332   0.413E-02    0.121E-02
WARNING in EDDRMM: call to ZHEGV failed, returncode =   8  4      6
RMM:  14    -0.272341261171E+03    0.63103E-03    0.62231E-03   365   0.398E-02    0.115E-02
RMM:  15    -0.272340419486E+03    0.84168E-03    0.83610E-03   292   0.359E-02    0.902E-03
RMM:  16    -0.272339817290E+03    0.60220E-03    0.59612E-03   310   0.360E-02    0.945E-03
RMM:  17    -0.272339192532E+03    0.62476E-03    0.62121E-03   283   0.335E-02    0.105E-02
RMM:  18    -0.272338808634E+03    0.38390E-03    0.38296E-03   245   0.316E-02    0.173E-02
RMM:  19    -0.272338553993E+03    0.25464E-03    0.27937E-03   248   0.292E-02    0.293E-02
RMM:  20    -0.272338085827E+03    0.46817E-03    0.46672E-03   236   0.278E-02    0.379E-02
RMM:  21    -0.272337930742E+03    0.15508E-03    0.16965E-03   228   0.257E-02    0.450E-02
RMM:  22    -0.272337526444E+03    0.40430E-03    0.40556E-03   226   0.250E-02    0.526E-02
RMM:  23    -0.272337395011E+03    0.13143E-03    0.13662E-03   224   0.239E-02    0.582E-02
RMM:  24    -0.272337067508E+03    0.32750E-03    0.32913E-03   206   0.228E-02    0.652E-02
RMM:  25    -0.272336953396E+03    0.11411E-03    0.11429E-03   206   0.222E-02    0.698E-02
RMM:  26    -0.272336696220E+03    0.25718E-03    0.25873E-03   188   0.208E-02    0.761E-02
RMM:  27    -0.272336580286E+03    0.11593E-03    0.11201E-03   186   0.203E-02    0.803E-02
RMM:  28    -0.272336382908E+03    0.19738E-03    0.19872E-03   182   0.197E-02    0.856E-02
RMM:  29    -0.272336301350E+03    0.81558E-04    0.83812E-04   174   0.187E-02
    1 T=  1854. E= -.28897416E+03 F= -.27233630E+03 E0= -.27226836E+03  EK= 0.15102E+02 SP= -.32E+02 SK= 0.32E+00
 bond charge predicted
       N       E                     dE             d eps       ncg     rms          rms(c)
RMM:   1    -0.272158122583E+03    0.17826E+00   -0.22340E+01   336   0.721E+00    0.141E+00
RMM:   2    -0.272054027752E+03    0.10409E+00    0.45626E-01   522   0.123E+00    0.923E-01
RMM:   3    -0.272022087476E+03    0.31940E-01    0.20820E-01   552   0.413E-01    0.522E-01
RMM:   4    -0.272020002722E+03    0.20848E-02   -0.32036E-03   559   0.187E-01    0.215E-01
RMM:   5    -0.272015937255E+03    0.40655E-02    0.36945E-02   553   0.982E-02    0.879E-02
RMM:   6    -0.272016303284E+03   -0.36603E-03   -0.55937E-03   530   0.682E-02    0.465E-02
RMM:   7    -0.272015144090E+03    0.11592E-02    0.10796E-02   380   0.497E-02    0.381E-02
RMM:   8    -0.272015265370E+03   -0.12128E-03   -0.18255E-03   373   0.462E-02    0.306E-02
RMM:   9    -0.272014495237E+03    0.77013E-03    0.72169E-03   400   0.457E-02    0.234E-02
RMM:  10    -0.272014476714E+03    0.18523E-04   -0.49090E-05   360   0.423E-02
    2 T=  1744. E= -.28895457E+03 F= -.27201448E+03 E0= -.27194927E+03  EK= 0.14201E+02 SP= -.31E+02 SK= 0.25E+00
 bond charge predicted
 prediction of wavefunctions
       N       E                     dE             d eps       ncg     rms          rms(c)
RMM:   1    -0.271902848829E+03    0.11165E+00   -0.14220E+00   343   0.186E+00    0.429E-01
RMM:   2    -0.271878147639E+03    0.24701E-01    0.18948E-01   515   0.361E-01    0.281E-01
RMM:   3    -0.271879508154E+03   -0.13605E-02   -0.34438E-02   562   0.145E-01    0.204E-01
RMM:   4    -0.271876071102E+03    0.34371E-02    0.25820E-02   526   0.865E-02    0.124E-01
RMM:   5    -0.271876908992E+03   -0.83789E-03   -0.11783E-02   520   0.749E-02    0.462E-02
RMM:   6    -0.271875802594E+03    0.11064E-02    0.10623E-02   388   0.474E-02    0.365E-02
RMM:   7    -0.271876447963E+03   -0.64537E-03   -0.69253E-03   377   0.419E-02    0.291E-02
RMM:   8    -0.271875741329E+03    0.70663E-03    0.67371E-03   327   0.381E-02    0.293E-02
RMM:   9    -0.271876156584E+03   -0.41525E-03   -0.45834E-03   338   0.384E-02    0.205E-02
RMM:  10    -0.271875525728E+03    0.63086E-03    0.61151E-03   398   0.400E-02    0.144E-02
RMM:  11    -0.271876079590E+03   -0.55386E-03   -0.55988E-03   304   0.330E-02    0.125E-02
RMM:  12    -0.271875558637E+03    0.52095E-03    0.51119E-03   261   0.316E-02    0.164E-02
RMM:  13    -0.271876081321E+03   -0.52268E-03   -0.53004E-03   263   0.293E-02    0.152E-02
RMM:  14    -0.271875738231E+03    0.34309E-03    0.33856E-03   253   0.290E-02    0.248E-02
RMM:  15    -0.271876399601E+03   -0.66137E-03   -0.61601E-03   251   0.263E-02    0.346E-02
RMM:  16    -0.271875965724E+03    0.43388E-03    0.40442E-03   255   0.257E-02    0.436E-02
RMM:  17    -0.271876540022E+03   -0.57430E-03   -0.57243E-03   246   0.243E-02    0.441E-02
RMM:  18    -0.271876299658E+03    0.24036E-03    0.24568E-03   235   0.227E-02    0.561E-02
RMM:  19    -0.271876711946E+03   -0.41229E-03   -0.44356E-03   250   0.227E-02    0.549E-02
RMM:  20    -0.271876582979E+03    0.12897E-03    0.12662E-03   227   0.212E-02    0.641E-02
RMM:  21    -0.271877005045E+03   -0.42207E-03   -0.40636E-03   213   0.203E-02    0.670E-02
RMM:  22    -0.271876957186E+03    0.47859E-04    0.55827E-04   199   0.194E-02
    3 T=  1669. E= -.28894103E+03 F= -.27187696E+03 E0= -.27181633E+03  EK= 0.13590E+02 SP= -.31E+02 SK= 0.17E+00
 bond charge predicted
 prediction of wavefunctions
       N       E                     dE             d eps       ncg     rms          rms(c)
RMM:   1    -0.271994631408E+03   -0.11763E+00   -0.10252E-01   478   0.700E-01    0.409E-01
RMM:   2    -0.271979978198E+03    0.14653E-01    0.47870E-02   545   0.261E-01    0.193E-01
RMM:   3    -0.271972447440E+03    0.75308E-02    0.16504E-01   559   0.134E-01    0.122E-01
RMM:   4    -0.271973358791E+03   -0.91135E-03    0.23663E-02   522   0.714E-02    0.823E-02
RMM:   5    -0.271973536206E+03   -0.17742E-03   -0.45089E-03   492   0.557E-02    0.525E-02
RMM:   6    -0.271972308052E+03    0.12282E-02    0.11171E-02   462   0.480E-02    0.403E-02
RMM:   7    -0.271972396112E+03   -0.88060E-04   -0.15317E-03   378   0.409E-02    0.268E-02
RMM:   8    -0.271971430174E+03    0.96594E-03    0.92898E-03   387   0.411E-02    0.218E-02
RMM:   9    -0.271971665107E+03   -0.23493E-03   -0.25485E-03   340   0.358E-02    0.117E-02
RMM:  10    -0.271970980607E+03    0.68450E-03    0.67792E-03   330   0.331E-02    0.161E-02
RMM:  11    -0.271971274597E+03   -0.29399E-03   -0.29738E-03   266   0.292E-02    0.153E-02
RMM:  12    -0.271970932342E+03    0.34226E-03    0.35488E-03   241   0.264E-02    0.278E-02
RMM:  13    -0.271971071636E+03   -0.13929E-03   -0.15157E-03   254   0.259E-02    0.292E-02
RMM:  14    -0.271970854347E+03    0.21729E-03    0.21787E-03   242   0.245E-02    0.367E-02
RMM:  15    -0.271970952019E+03   -0.97672E-04   -0.11307E-03   251   0.238E-02    0.386E-02
RMM:  16    -0.271970855297E+03    0.96722E-04    0.10857E-03   239   0.221E-02    0.457E-02
RMM:  17    -0.271970974040E+03   -0.11874E-03   -0.11002E-03   229   0.209E-02    0.509E-02
RMM:  18    -0.271970832377E+03    0.14166E-03    0.11869E-03   224   0.200E-02    0.542E-02
RMM:  19    -0.271971007369E+03   -0.17499E-03   -0.15330E-03   217   0.192E-02    0.587E-02
RMM:  20    -0.271970926730E+03    0.80639E-04    0.86300E-04   207   0.184E-02
    4 T=  1634. E= -.28894463E+03 F= -.27197093E+03 E0= -.27191020E+03  EK= 0.13310E+02 SP= -.30E+02 SK= 0.94E-01
 bond charge predicted
 prediction of wavefunctions
       N       E                     dE             d eps       ncg     rms          rms(c)
RMM:   1    -0.272266048595E+03   -0.29504E+00   -0.19749E-01   470   0.674E-01    0.519E-01
RMM:   2    -0.272235630169E+03    0.30418E-01    0.81914E-02   523   0.303E-01    0.291E-01
RMM:   3    -0.272234557654E+03    0.10725E-02   -0.21890E-02   554   0.162E-01    0.166E-01
RMM:   4    -0.272230219149E+03    0.43385E-02    0.37500E-02   553   0.962E-02    0.997E-02
RMM:   5    -0.272231898793E+03   -0.16796E-02   -0.19059E-02   520   0.743E-02    0.443E-02
RMM:   6    -0.272230300741E+03    0.15981E-02    0.15920E-02   403   0.545E-02    0.306E-02
RMM:   7    -0.272231486371E+03   -0.11856E-02   -0.11508E-02   383   0.506E-02    0.173E-02
RMM:   8    -0.272230509356E+03    0.97702E-03    0.11866E-02   357   0.462E-02    0.174E-02
RMM:   9    -0.272231253391E+03   -0.74403E-03    0.12065E-02   366   0.449E-02    0.124E-02
RMM:  10    -0.272234182118E+03   -0.29287E-02    0.92397E-03   331   0.410E-02    0.630E-02
RMM:  11    -0.272231243888E+03    0.29382E-02    0.19537E-01   266   0.463E-02    0.185E-02
RMM:  12    -0.272230829717E+03    0.41417E-03    0.76052E-03   247   0.346E-02    0.345E-02
RMM:  13    -0.272231537122E+03   -0.70741E-03   -0.68921E-03   243   0.325E-02    0.400E-02
RMM:  14    -0.272231384347E+03    0.15277E-03    0.17027E-03   242   0.315E-02    0.497E-02
RMM:  15    -0.272231916304E+03   -0.53196E-03   -0.52370E-03   228   0.300E-02    0.551E-02
RMM:  16    -0.272231890153E+03    0.26151E-04    0.33289E-04   222   0.289E-02
    5 T=  1635. E= -.28894611E+03 F= -.27223189E+03 E0= -.27216890E+03  EK= 0.13314E+02 SP= -.30E+02 SK= 0.38E-01
 bond charge predicted
 prediction of wavefunctions
       N       E                     dE             d eps       ncg     rms          rms(c)
RMM:   1    -0.272534505414E+03   -0.30259E+00    0.24526E+00   453   0.742E-01    0.324E-01
RMM:   2    -0.272533392507E+03    0.11129E-02    0.18298E-01   544   0.231E-01    0.195E-01
RMM:   3    -0.272529573712E+03    0.38188E-02    0.23034E-02   553   0.116E-01    0.138E-01
RMM:   4    -0.272524792153E+03    0.47816E-02    0.40684E-02   522   0.776E-02    0.945E-02
RMM:   5    -0.272518961220E+03    0.58309E-02    0.54536E-02   519   0.649E-02    0.802E-02
RMM:   6    -0.272513359007E+03    0.56022E-02    0.52620E-02   494   0.565E-02    0.824E-02
RMM:   7    -0.272508608396E+03    0.47506E-02    0.50578E-02   358   0.414E-02    0.149E-01
RMM:   8    -0.272503102076E+03    0.55063E-02    0.44715E-02   474   0.549E-02    0.135E-01
RMM:   9    -0.272498061438E+03    0.50406E-02    0.45339E-02   464   0.453E-02    0.153E-01
RMM:  10    -0.272493561093E+03    0.45003E-02    0.40491E-02   348   0.387E-02    0.171E-01
RMM:  11    -0.272490577146E+03    0.29839E-02    0.34153E-02   313   0.338E-02    0.220E-01
RMM:  12    -0.272486084774E+03    0.44924E-02    0.31834E-02   463   0.432E-02    0.213E-01
RMM:  13    -0.272482635904E+03    0.34489E-02    0.31106E-02   339   0.328E-02    0.238E-01
RMM:  14    -0.272478922432E+03    0.37135E-02    0.28123E-02   418   0.374E-02    0.240E-01
RMM:  15    -0.272476590344E+03    0.23321E-02    0.24165E-02   281   0.288E-02    0.272E-01
RMM:  16    -0.272474398971E+03    0.21914E-02    0.21649E-02   246   0.252E-02    0.294E-01
RMM:  17    -0.272471456013E+03    0.29430E-02    0.20088E-02   302   0.308E-02    0.302E-01
RMM:  18    -0.272469231466E+03    0.22245E-02    0.19363E-02   284   0.277E-02    0.321E-01
RMM:  19    -0.272467569466E+03    0.16620E-02    0.15119E-02   271   0.264E-02    0.340E-01
RMM:  20    -0.272466071416E+03    0.14981E-02    0.14970E-02   238   0.242E-02    0.361E-01
RMM:  21    -0.272465080048E+03    0.99137E-03    0.10850E-02   235   0.225E-02    0.380E-01
RMM:  22    -0.272462803969E+03    0.22761E-02    0.13312E-02   279   0.265E-02    0.387E-01
RMM:  23    -0.272462097959E+03    0.70601E-03    0.78197E-03   273   0.235E-02    0.403E-01
RMM:  24    -0.272461121104E+03    0.97686E-03    0.95420E-03   248   0.221E-02    0.421E-01
RMM:  25    -0.272460709166E+03    0.41194E-03    0.53584E-03   239   0.199E-02    0.435E-01
RMM:  26    -0.272460004841E+03    0.70433E-03    0.69740E-03   227   0.191E-02    0.451E-01
RMM:  27    -0.272459618608E+03    0.38623E-03    0.36683E-03   222   0.183E-02    0.461E-01
RMM:  28    -0.272459145426E+03    0.47318E-03    0.48886E-03   218   0.174E-02    0.474E-01
RMM:  29    -0.272458934189E+03    0.21124E-03    0.25254E-03   200   0.165E-02    0.484E-01
RMM:  30    -0.272458475887E+03    0.45830E-03    0.34771E-03   204   0.164E-02    0.494E-01
RMM:  31    -0.272458296106E+03    0.17978E-03    0.18306E-03   199   0.156E-02    0.502E-01
RMM:  32    -0.272457991544E+03    0.30456E-03    0.23080E-03   205   0.152E-02    0.511E-01
RMM:  33    -0.272457856507E+03    0.13504E-03    0.11905E-03   198   0.147E-02    0.518E-01
RMM:  34    -0.272457695977E+03    0.16053E-03    0.16148E-03   179   0.140E-02    0.526E-01
RMM:  35    -0.272457577393E+03    0.11858E-03    0.67039E-04   198   0.141E-02    0.531E-01
RMM:  36    -0.272457489292E+03    0.88101E-04    0.10563E-03   174   0.133E-02    0.538E-01
RMM:  37    -0.272457510335E+03   -0.21043E-04   -0.53219E-05   174   0.131E-02
    6 T=  1657. E= -.28884670E+03 F= -.27245751E+03 E0= -.27239305E+03  EK= 0.13494E+02 SP= -.30E+02 SK= 0.76E-02
Information: wavefunction orthogonal band   39  0.7370
 bond charge predicted
 prediction of wavefunctions
       N       E                     dE             d eps       ncg     rms          rms(c)
RMM:   1    -0.272600698153E+03   -0.14321E+00    0.15134E+01   493   0.142E+00    0.629E-01
RMM:   2    -0.272679900054E+03   -0.79202E-01    0.50869E-01   536   0.428E-01    0.391E-01
RMM:   3    -0.272714694362E+03   -0.34794E-01    0.20495E-01   558   0.241E-01    0.277E-01
RMM:   4    -0.272706744443E+03    0.79499E-02    0.12654E-01   551   0.141E-01    0.182E-01
RMM:   5    -0.272710548523E+03   -0.38041E-02    0.26104E-02   515   0.104E-01    0.120E-01
RMM:   6    -0.272707984754E+03    0.25638E-02    0.66109E-02   537   0.829E-02    0.688E-02
RMM:   7    -0.272706462209E+03    0.15225E-02    0.19105E-02   498   0.570E-02    0.572E-02
RMM:   8    -0.272705469182E+03    0.99303E-03    0.82211E-03   466   0.528E-02    0.393E-02
RMM:   9    -0.272704282956E+03    0.11862E-02    0.11109E-02   424   0.448E-02    0.402E-02
RMM:  10    -0.272703477978E+03    0.80498E-03    0.69075E-03   472   0.488E-02    0.248E-02
RMM:  11    -0.272702487630E+03    0.99035E-03    0.95937E-03   428   0.443E-02    0.219E-02
RMM:  12    -0.272701931156E+03    0.55647E-03    0.53499E-03   353   0.371E-02    0.223E-02
RMM:  13    -0.272701181034E+03    0.75012E-03    0.70927E-03   422   0.398E-02    0.197E-02
RMM:  14    -0.272700711132E+03    0.46990E-03    0.44992E-03   352   0.363E-02    0.207E-02
RMM:  15    -0.272700267100E+03    0.44403E-03    0.44071E-03   285   0.311E-02    0.340E-02
RMM:  16    -0.272700350402E+03   -0.83302E-04    0.14919E-04   261   0.287E-02
    7 T=  1687. E= -.28880731E+03 F= -.27270035E+03 E0= -.27263224E+03  EK= 0.13737E+02 SP= -.30E+02 SK= 0.14E-03
 bond charge predicted
 prediction of wavefunctions
       N       E                     dE             d eps       ncg     rms          rms(c)
RMM:   1    -0.272311547903E+03    0.38872E+00    0.19103E+01   488   0.160E+00    0.137E+00
RMM:   2    -0.272905256844E+03   -0.59371E+00    0.37599E-01   472   0.705E-01    0.804E-01
RMM:   3    -0.272868088488E+03    0.37168E-01    0.62525E-02   546   0.325E-01    0.451E-01
RMM:   4    -0.272862459141E+03    0.56293E-02   -0.36412E-02   549   0.211E-01    0.222E-01
RMM:   5    -0.272857427132E+03    0.50320E-02    0.40578E-02   568   0.112E-01    0.125E-01
RMM:   6    -0.272858079425E+03   -0.65229E-03   -0.99006E-03   522   0.773E-02    0.513E-02
RMM:   7    -0.272856068626E+03    0.20108E-02    0.19744E-02   417   0.511E-02    0.404E-02
RMM:   8    -0.272856833654E+03   -0.76503E-03   -0.82870E-03   386   0.461E-02    0.266E-02
RMM:   9    -0.272855416164E+03    0.14175E-02    0.13881E-02   345   0.414E-02    0.286E-02
RMM:  10    -0.272855955706E+03   -0.53954E-03   -0.57853E-03   344   0.391E-02    0.231E-02
RMM:  11    -0.272854820464E+03    0.11352E-02    0.11065E-02   342   0.380E-02    0.242E-02
RMM:  12    -0.272854990234E+03   -0.16977E-03   -0.21063E-03   414   0.421E-02    0.105E-02
RMM:  13    -0.272854380808E+03    0.60943E-03    0.60757E-03   296   0.338E-02    0.145E-02
RMM:  14    -0.272854364148E+03    0.16660E-04    0.17269E-05   285   0.350E-02
    8 T=  1713. E= -.28880776E+03 F= -.27285436E+03 E0= -.27278051E+03  EK= 0.13951E+02 SP= -.30E+02 SK= 0.10E-01
Information: wavefunction orthogonal band  167  0.8921
 bond charge predicted
 prediction of wavefunctions
       N       E                     dE             d eps       ncg     rms          rms(c)
RMM:   1    -0.272020119300E+03    0.83426E+00    0.15833E+01   491   0.166E+00    0.108E+00
RMM:   2    -0.272830061408E+03   -0.80994E+00    0.55332E-01   494   0.548E-01    0.702E-01
RMM:   3    -0.272802242150E+03    0.27819E-01    0.22785E-02   524   0.230E-01    0.425E-01
RMM:   4    -0.272793673676E+03    0.85685E-02   -0.11619E-02   512   0.163E-01    0.244E-01
RMM:   5    -0.272789252400E+03    0.44213E-02    0.21211E-02   557   0.107E-01    0.138E-01
RMM:   6    -0.272787156677E+03    0.20957E-02    0.15156E-02   539   0.744E-02    0.677E-02
RMM:   7    -0.272784745184E+03    0.24115E-02    0.22599E-02   506   0.554E-02    0.450E-02
RMM:   8    -0.272783246756E+03    0.14984E-02    0.14039E-02   424   0.431E-02    0.512E-02
RMM:   9    -0.272782431989E+03    0.81477E-03    0.10507E-02   348   0.374E-02    0.909E-02
RMM:  10    -0.272780671248E+03    0.17607E-02    0.11348E-02   462   0.506E-02    0.622E-02
RMM:  11    -0.272779240514E+03    0.14307E-02    0.12530E-02   391   0.373E-02    0.639E-02
RMM:  12    -0.272778216740E+03    0.10238E-02    0.88741E-03   366   0.343E-02    0.693E-02
RMM:  13    -0.272777139630E+03    0.10771E-02    0.10042E-02   301   0.294E-02    0.819E-02
RMM:  14    -0.272776833595E+03    0.30604E-03    0.47082E-03   271   0.260E-02    0.103E-01
RMM:  15    -0.272775376873E+03    0.14567E-02    0.10538E-02   372   0.319E-02    0.101E-01
RMM:  16    -0.272774678218E+03    0.69865E-03    0.46160E-03   348   0.300E-02    0.100E-01
RMM:  17    -0.272773972412E+03    0.70581E-03    0.82716E-03   267   0.247E-02    0.119E-01
RMM:  18    -0.272773538701E+03    0.43371E-03    0.43041E-03   233   0.223E-02    0.130E-01
RMM:  19    -0.272772802672E+03    0.73603E-03    0.58929E-03   267   0.219E-02    0.138E-01
RMM:  20    -0.272772596918E+03    0.20575E-03    0.26452E-03   232   0.203E-02    0.150E-01
RMM:  21    -0.272772175924E+03    0.42099E-03    0.43914E-03   224   0.195E-02    0.162E-01
RMM:  22    -0.272771334412E+03    0.84151E-03    0.28004E-03   301   0.261E-02    0.151E-01
RMM:  23    -0.272770412389E+03    0.92202E-03    0.48562E-03   388   0.283E-02    0.147E-01
RMM:  24    -0.272769941805E+03    0.47058E-03    0.27843E-03   317   0.244E-02    0.148E-01
RMM:  25    -0.272768736126E+03    0.12057E-02    0.54379E-03   453   0.334E-02    0.133E-01
RMM:  26    -0.272767885436E+03    0.85069E-03    0.32653E-03   417   0.321E-02    0.118E-01
RMM:  27    -0.272767494842E+03    0.39059E-03    0.43071E-03   280   0.225E-02    0.131E-01
RMM:  28    -0.272767286254E+03    0.20859E-03    0.22064E-03   244   0.192E-02    0.138E-01
RMM:  29    -0.272767005910E+03    0.28034E-03    0.27570E-03   237   0.178E-02    0.145E-01
RMM:  30    -0.272767805849E+03   -0.79994E-03    0.10346E-03   232   0.175E-02    0.150E-01
RMM:  31    -0.272766749824E+03    0.10560E-02    0.24403E-01   250   0.230E-02    0.154E-01
RMM:  32    -0.272766349903E+03    0.39992E-03    0.82489E-01   242   0.441E-02    0.163E-01
RMM:  33    -0.272766058320E+03    0.29158E-03    0.75589E-03   221   0.167E-02    0.180E-01
RMM:  34    -0.272765922881E+03    0.13544E-03    0.14754E-03   209   0.151E-02    0.187E-01
RMM:  35    -0.272765862136E+03    0.60745E-04    0.14378E-03   212   0.146E-02    0.196E-01
RMM:  36    -0.272765730417E+03    0.13172E-03    0.85233E-04   197   0.141E-02    0.200E-01
RMM:  37    -0.272765659458E+03    0.70959E-04    0.11246E-03   198   0.136E-02    0.206E-01
RMM:  38    -0.272765637845E+03    0.21612E-04    0.61126E-04   195   0.132E-02
    9 T=  1723. E= -.28879393E+03 F= -.27276564E+03 E0= -.27268376E+03  EK= 0.14030E+02 SP= -.30E+02 SK= 0.34E-01
 bond charge predicted
 prediction of wavefunctions
       N       E                     dE             d eps       ncg     rms          rms(c)
RMM:   1    -0.271917094535E+03    0.84856E+00    0.19906E+01   514   0.158E+00    0.133E+00
RMM:   2    -0.272423965347E+03   -0.50687E+00   -0.16706E-01   506   0.608E-01    0.858E-01
RMM:   3    -0.272371342740E+03    0.52623E-01    0.63412E-02   538   0.295E-01    0.490E-01
RMM:   4    -0.272362230782E+03    0.91120E-02   -0.22224E-02   532   0.186E-01    0.285E-01
RMM:   5    -0.272358701836E+03    0.35289E-02    0.38195E-03   554   0.125E-01    0.142E-01
RMM:   6    -0.272358682883E+03    0.18953E-04   -0.55885E-03   542   0.818E-02    0.583E-02
RMM:   7    -0.272358307648E+03    0.37523E-03    0.30695E-03   491   0.522E-02    0.309E-02
RMM:   8    -0.272359180527E+03   -0.87288E-03   -0.90009E-03   334   0.396E-02    0.243E-02
RMM:   9    -0.272359171482E+03    0.90451E-05   -0.16865E-04   341   0.362E-02
   10 T=  1707. E= -.28876025E+03 F= -.27235917E+03 E0= -.27226658E+03  EK= 0.13901E+02 SP= -.30E+02 SK= 0.72E-01
 bond charge predicted
 prediction of wavefunctions
       N       E                     dE             d eps       ncg     rms          rms(c)
RMM:   1    -0.271978752100E+03    0.38043E+00   -0.38158E-01   517   0.979E-01    0.154E+00
RMM:   2    -0.271770085733E+03    0.20867E+00    0.24356E+00   486   0.899E-01    0.716E-01
RMM:   3    -0.271761859134E+03    0.82266E-02    0.23934E-01   557   0.388E-01    0.421E-01
RMM:   4    -0.271753544542E+03    0.83146E-02    0.27799E-02   548   0.218E-01    0.231E-01
RMM:   5    -0.271747188869E+03    0.63557E-02    0.52836E-02   560   0.139E-01    0.117E-01
RMM:   6    -0.271746918936E+03    0.26993E-03   -0.48051E-04   537   0.953E-02    0.691E-02
RMM:   7    -0.271745320377E+03    0.15986E-02    0.14728E-02   485   0.743E-02    0.508E-02
RMM:   8    -0.271746144180E+03   -0.82380E-03   -0.88189E-03   483   0.691E-02    0.334E-02
RMM:   9    -0.271745269981E+03    0.87420E-03    0.87263E-03   442   0.629E-02    0.203E-02
RMM:  10    -0.271746167237E+03   -0.89726E-03   -0.77312E-03   333   0.550E-02    0.201E-02
RMM:  11    -0.271745872871E+03    0.29437E-03    0.36113E-03   367   0.523E-02    0.242E-02
RMM:  12    -0.271747497976E+03   -0.16251E-02    0.13362E-01   307   0.514E-02    0.547E-02
RMM:  13    -0.271746231306E+03    0.12667E-02    0.36747E-02   310   0.477E-02    0.556E-02
RMM:  14    -0.271747100556E+03   -0.86925E-03   -0.86562E-03   289   0.422E-02    0.753E-02
RMM:  15    -0.271747114584E+03   -0.14028E-04   -0.22762E-05   250   0.394E-02
   11 T=  1671. E= -.28877459E+03 F= -.27174711E+03 E0= -.27164442E+03  EK= 0.13608E+02 SP= -.31E+02 SK= 0.13E+00
Information: wavefunction orthogonal band  168  0.8899
 bond charge predicted
 prediction of wavefunctions
       N       E                     dE             d eps       ncg     rms          rms(c)
RMM:   1    -0.271083556021E+03    0.66354E+00   -0.54048E-01   501   0.114E+00    0.918E-01
RMM:   2    -0.270900914549E+03    0.18264E+00    0.30944E+01   524   0.111E+00    0.582E-01
RMM:   3    -0.271000515859E+03   -0.99601E-01    0.35946E-01   548   0.349E-01    0.384E-01
RMM:   4    -0.271004899353E+03   -0.43835E-02   -0.35518E-02   548   0.182E-01    0.240E-01
RMM:   5    -0.270999486462E+03    0.54129E-02    0.37533E-02   530   0.132E-01    0.153E-01
RMM:   6    -0.271000994971E+03   -0.15085E-02   -0.23600E-02   529   0.108E-01    0.803E-02
RMM:   7    -0.270999574411E+03    0.14206E-02    0.12972E-02   525   0.823E-02    0.538E-02
RMM:   8    -0.271001134994E+03   -0.15606E-02   -0.16664E-02   494   0.727E-02    0.279E-02
RMM:   9    -0.271001064077E+03    0.70917E-04    0.76097E-04   378   0.601E-02
   12 T=  1632. E= -.28876983E+03 F= -.27100106E+03 E0= -.27089500E+03  EK= 0.13293E+02 SP= -.31E+02 SK= 0.22E+00
 bond charge predicted
 prediction of wavefunctions
       N       E                     dE             d eps       ncg     rms          rms(c)
RMM:   1    -0.269537736694E+03    0.14634E+01    0.25992E+01   503   0.203E+00    0.947E-01
RMM:   2    -0.270301590250E+03   -0.76385E+00    0.68313E-01   525   0.582E-01    0.612E-01
RMM:   3    -0.270290646750E+03    0.10944E-01    0.10082E-01   545   0.258E-01    0.382E-01
RMM:   4    -0.270291566061E+03   -0.91931E-03   -0.64471E-02   549   0.175E-01    0.246E-01
RMM:   5    -0.270287054480E+03    0.45116E-02    0.23259E-02   544   0.133E-01    0.136E-01
RMM:   6    -0.270292040220E+03   -0.49857E-02   -0.56835E-02   530   0.110E-01    0.593E-02
RMM:   7    -0.270293037463E+03   -0.99724E-03   -0.10890E-02   509   0.792E-02    0.455E-02
RMM:   8    -0.270297673969E+03   -0.46365E-02   -0.47113E-02   381   0.653E-02    0.508E-02
RMM:   9    -0.270301105315E+03   -0.34313E-02   -0.33580E-02   308   0.573E-02    0.801E-02
RMM:  10    -0.270305577066E+03   -0.44718E-02   -0.45224E-02   301   0.552E-02    0.905E-02
RMM:  11    -0.270308737656E+03   -0.31606E-02   -0.32141E-02   357   0.557E-02    0.101E-01
RMM:  12    -0.270312067809E+03   -0.33302E-02   -0.35316E-02   372   0.553E-02    0.102E-01
RMM:  13    -0.270315535285E+03   -0.34675E-02   -0.35194E-02   311   0.501E-02    0.118E-01
RMM:  14    -0.270319361026E+03   -0.38257E-02   -0.36722E-02   243   0.460E-02    0.137E-01
RMM:  15    -0.270322351104E+03   -0.29901E-02   -0.31834E-02   259   0.461E-02    0.146E-01
RMM:  16    -0.270325847653E+03   -0.34965E-02   -0.34436E-02   251   0.439E-02    0.161E-01
RMM:  17    -0.270328992881E+03   -0.31452E-02   -0.31309E-02   238   0.424E-02    0.177E-01
RMM:  18    -0.270331722742E+03   -0.27299E-02   -0.29530E-02   278   0.431E-02    0.182E-01
RMM:  19    -0.270334376951E+03   -0.26542E-02   -0.28135E-02   284   0.421E-02    0.191E-01
RMM:  20    -0.270337039222E+03   -0.26623E-02   -0.27134E-02   257   0.416E-02    0.202E-01
RMM:  21    -0.270339353287E+03   -0.23141E-02   -0.24998E-02   278   0.425E-02    0.206E-01
RMM:  22    -0.270341928341E+03   -0.25751E-02   -0.22007E-02   282   0.413E-02    0.212E-01
RMM:  23    -0.270344310440E+03   -0.23821E-02   -0.21775E-02   246   0.390E-02    0.227E-01
RMM:  24    -0.270346578608E+03   -0.22682E-02   -0.20092E-02   237   0.378E-02    0.238E-01
RMM:  25    -0.270348503488E+03   -0.19249E-02   -0.20850E-02   256   0.376E-02    0.246E-01
RMM:  26    -0.270350709720E+03   -0.22062E-02   -0.21747E-02   248   0.359E-02    0.257E-01
RMM:  27    -0.270352820897E+03   -0.21112E-02   -0.21254E-02   228   0.349E-02    0.269E-01
RMM:  28    -0.270354746331E+03   -0.19254E-02   -0.19441E-02   237   0.341E-02    0.277E-01
RMM:  29    -0.270356801116E+03   -0.20548E-02   -0.20057E-02   222   0.333E-02    0.289E-01
RMM:  30    -0.270358678073E+03   -0.18770E-02   -0.18418E-02   230   0.327E-02    0.298E-01
RMM:  31    -0.270360472989E+03   -0.17949E-02   -0.15359E-02   222   0.319E-02    0.308E-01
RMM:  32    -0.270369654142E+03   -0.91812E-02   -0.14898E-02   217   0.313E-02    0.333E-01
RMM:  33    -0.270363860217E+03    0.57939E-02    0.73579E-01   223   0.570E-02    0.327E-01
RMM:  34    -0.270364949740E+03   -0.10895E-02    0.10790E-01   207   0.373E-02    0.336E-01
RMM:  35    -0.270366495010E+03   -0.15453E-02   -0.15733E-02   212   0.295E-02    0.345E-01
RMM:  36    -0.270368048797E+03   -0.15538E-02   -0.15572E-02   224   0.291E-02    0.353E-01
RMM:  37    -0.270369650752E+03   -0.16020E-02   -0.14696E-02   214   0.282E-02    0.363E-01
RMM:  38    -0.270371090172E+03   -0.14394E-02   -0.13501E-02   218   0.280E-02    0.371E-01
RMM:  39    -0.270372512205E+03   -0.14220E-02   -0.12869E-02   202   0.271E-02    0.379E-01
RMM:  40    -0.270376375980E+03   -0.38638E-02   -0.28353E-02   197   0.272E-02    0.397E-01
RMM:  41    -0.270424561830E+03   -0.48186E-01    0.24198E-02   189   0.263E-02    0.567E-01
RMM:  42    -0.270379005877E+03    0.45556E-01    0.39339E+00   254   0.139E-01    0.416E-01
RMM:  43    -0.270378017813E+03    0.98806E-03    0.10425E-01   232   0.327E-02    0.419E-01
RMM:  44    -0.270381933022E+03   -0.39152E-02   -0.35093E-02   233   0.269E-02    0.442E-01
RMM:  45    -0.270380629243E+03    0.13038E-02    0.63737E-03   215   0.249E-02    0.435E-01
RMM:  46    -0.270383548845E+03   -0.29196E-02   -0.27821E-02   212   0.239E-02    0.452E-01
RMM:  47    -0.270383182414E+03    0.36643E-03    0.35619E-03   199   0.236E-02    0.453E-01
RMM:  48    -0.270385736464E+03   -0.25540E-02   -0.23751E-02   192   0.227E-02    0.469E-01
RMM:  49    -0.270385715383E+03    0.21081E-04    0.20468E-03   191   0.224E-02    0.473E-01
RMM:  50    -0.270387392344E+03   -0.16770E-02   -0.19802E-02   192   0.224E-02    0.481E-01
RMM:  51    -0.270387404569E+03   -0.12225E-04    0.18301E-03   182   0.219E-02    0.484E-01
RMM:  52    -0.270385433041E+03    0.19715E-02   -0.12605E-02   414   0.521E-02    0.448E-01
RMM:  53    -0.270385586098E+03   -0.15306E-03    0.19572E-03   380   0.327E-02    0.452E-01
RMM:  54    -0.270386675553E+03   -0.10895E-02    0.46047E-01   281   0.395E-02    0.460E-01
RMM:  55    -0.270387135985E+03   -0.46043E-03    0.11390E-01   235   0.312E-02    0.465E-01
RMM:  56    -0.270387501030E+03   -0.36504E-03    0.23210E-03   210   0.241E-02    0.473E-01
RMM:  57    -0.270388176766E+03   -0.67574E-03    0.50109E-02   386   0.437E-02    0.508E-01
RMM:  58    -0.270398777759E+03   -0.10601E-01    0.10498E-02   302   0.273E-02    0.530E-01
RMM:  59    -0.270388553461E+03    0.10224E-01    0.46095E-01   244   0.514E-02    0.520E-01
RMM:  60    -0.270391390162E+03   -0.28367E-02    0.92715E-03   258   0.296E-02
   13 T=  1615. E= -.28882933E+03 F= -.27039139E+03 E0= -.27028747E+03  EK= 0.13155E+02 SP= -.32E+02 SK= 0.34E+00
 bond charge predicted
 prediction of wavefunctions
       N       E                     dE             d eps       ncg     rms          rms(c)
RMM:   1    -0.268990980155E+03    0.13976E+01    0.32915E+01   493   0.229E+00    0.171E+00
RMM:   2    -0.269743353781E+03   -0.75237E+00    0.28491E+00   473   0.108E+00    0.923E-01
RMM:   3    -0.269822736273E+03   -0.79382E-01   -0.19726E-02   539   0.463E-01    0.541E-01
RMM:   4    -0.269809788400E+03    0.12948E-01    0.93573E-03   552   0.260E-01    0.325E-01
RMM:   5    -0.269812866299E+03   -0.30779E-02   -0.65051E-02   555   0.179E-01    0.157E-01
RMM:   6    -0.269813128374E+03   -0.26208E-03   -0.84388E-03   555   0.123E-01    0.777E-02
RMM:   7    -0.269817376710E+03   -0.42483E-02   -0.43811E-02   499   0.915E-02    0.515E-02
RMM:   8    -0.269819535382E+03   -0.21587E-02   -0.22423E-02   380   0.785E-02    0.465E-02
RMM:   9    -0.269823023019E+03   -0.34876E-02   -0.35515E-02   390   0.747E-02    0.496E-02
RMM:  10    -0.269825372775E+03   -0.23498E-02   -0.23083E-02   295   0.656E-02    0.695E-02
RMM:  11    -0.269828426166E+03   -0.30534E-02   -0.30817E-02   283   0.647E-02    0.803E-02
RMM:  12    -0.269830741007E+03   -0.23148E-02   -0.23215E-02   317   0.639E-02    0.962E-02
RMM:  13    -0.269833428788E+03   -0.26878E-02   -0.27529E-02   372   0.634E-02    0.106E-01
RMM:  14    -0.269835215894E+03   -0.17871E-02   -0.18975E-02   351   0.603E-02    0.116E-01
RMM:  15    -0.269837571171E+03   -0.23553E-02   -0.24200E-02   272   0.553E-02    0.127E-01
RMM:  16    -0.269839408881E+03   -0.18377E-02   -0.17353E-02   246   0.520E-02    0.145E-01
RMM:  17    -0.269841457621E+03   -0.20487E-02   -0.22278E-02   272   0.531E-02    0.151E-01
RMM:  18    -0.269842949203E+03   -0.14916E-02   -0.15330E-02   270   0.505E-02    0.164E-01
RMM:  19    -0.269844824693E+03   -0.18755E-02   -0.19944E-02   277   0.501E-02    0.173E-01
RMM:  20    -0.269846061259E+03   -0.12366E-02   -0.12496E-02   258   0.478E-02    0.185E-01
RMM:  21    -0.269848170796E+03   -0.21095E-02   -0.19919E-02   240   0.453E-02    0.202E-01
RMM:  22    -0.269849025134E+03   -0.85434E-03   -0.11126E-02   269   0.459E-02    0.206E-01
RMM:  23    -0.269850781806E+03   -0.17567E-02   -0.17729E-02   246   0.435E-02    0.219E-01
RMM:  24    -0.269851475745E+03   -0.69394E-03   -0.99286E-03   281   0.448E-02    0.221E-01
RMM:  25    -0.269853331029E+03   -0.18553E-02   -0.17231E-02   246   0.411E-02    0.237E-01
RMM:  26    -0.269854201310E+03   -0.87028E-03   -0.86822E-03   243   0.402E-02    0.247E-01
RMM:  27    -0.269855739066E+03   -0.15378E-02   -0.16020E-02   229   0.386E-02    0.259E-01
RMM:  28    -0.269856450948E+03   -0.71188E-03   -0.76210E-03   232   0.378E-02    0.267E-01
RMM:  29    -0.269858105640E+03   -0.16547E-02   -0.15050E-02   225   0.365E-02    0.282E-01
RMM:  30    -0.269858900692E+03   -0.79505E-03   -0.68037E-03   224   0.353E-02    0.292E-01
RMM:  31    -0.269860182727E+03   -0.12820E-02   -0.13917E-02   211   0.344E-02    0.303E-01
RMM:  32    -0.269860361992E+03   -0.17927E-03   -0.59800E-03   264   0.360E-02    0.302E-01
RMM:  33    -0.269861524168E+03   -0.11622E-02   -0.12751E-02   242   0.349E-02    0.312E-01
RMM:  34    -0.269870859535E+03   -0.93354E-02   -0.53786E-03   278   0.362E-02    0.336E-01
RMM:  35    -0.269863053282E+03    0.78063E-02    0.11937E+00   260   0.620E-02    0.324E-01
RMM:  36    -0.269862702246E+03    0.35104E-03    0.33684E-03   240   0.324E-02    0.328E-01
RMM:  37    -0.269864351802E+03   -0.16496E-02   -0.16719E-02   221   0.310E-02    0.342E-01
RMM:  38    -0.269864279516E+03    0.72286E-04   -0.10185E-03   235   0.307E-02    0.344E-01
RMM:  39    -0.269865503829E+03   -0.12243E-02   -0.12206E-02   223   0.297E-02    0.357E-01
RMM:  40    -0.269865812750E+03   -0.30892E-03   -0.28038E-03   223   0.291E-02    0.363E-01
RMM:  41    -0.269866789820E+03   -0.97707E-03   -0.94940E-03   216   0.281E-02    0.374E-01
RMM:  42    -0.269867196926E+03   -0.40711E-03   -0.42104E-03   211   0.275E-02    0.380E-01
RMM:  43    -0.269867979151E+03   -0.78223E-03   -0.75714E-03   208   0.266E-02    0.390E-01
RMM:  44    -0.269868490385E+03   -0.51123E-03   -0.48658E-03   191   0.256E-02    0.397E-01
RMM:  45    -0.269869063862E+03   -0.57348E-03   -0.62482E-03   188   0.248E-02    0.405E-01
RMM:  46    -0.269869827995E+03   -0.76413E-03   -0.53671E-03   177   0.241E-02    0.415E-01
RMM:  47    -0.269870009049E+03   -0.18105E-03   -0.49172E-03   201   0.240E-02    0.418E-01
RMM:  48    -0.269870429927E+03   -0.42088E-03   -0.48048E-03   226   0.244E-02    0.425E-01
RMM:  49    -0.269870769564E+03   -0.33964E-03   -0.38859E-03   210   0.239E-02    0.431E-01
RMM:  50    -0.269871404828E+03   -0.63526E-03   -0.51001E-03   197   0.229E-02    0.440E-01
RMM:  51    -0.269871820168E+03   -0.41534E-03   -0.39566E-03   176   0.221E-02    0.448E-01
RMM:  52    -0.269875780674E+03   -0.39605E-02   -0.43411E-03   398   0.518E-02    0.506E-01
RMM:  53    -0.269875832830E+03   -0.52157E-04   -0.62454E-03   382   0.329E-02    0.510E-01
RMM:  54    -0.269875946877E+03   -0.11405E-03   -0.75754E-04   264   0.261E-02    0.514E-01
RMM:  55    -0.269877126784E+03   -0.11799E-02   -0.92803E-03   241   0.253E-02    0.529E-01
RMM:  56    -0.269876746658E+03    0.38013E-03   -0.29182E-03   241   0.244E-02    0.525E-01
RMM:  57    -0.269890229411E+03   -0.13483E-01   -0.73877E-03   461   0.494E-02    0.600E-01
RMM:  58    -0.269882639039E+03    0.75904E-02    0.27953E+00   379   0.825E-02    0.599E-01
RMM:  59    -0.269882707695E+03   -0.68657E-04    0.44465E-03   254   0.249E-02    0.602E-01
RMM:  60    -0.269885601404E+03   -0.28937E-02   -0.17020E-02   275   0.271E-02
   14 T=  1632. E= -.28883514E+03 F= -.26988560E+03 E0= -.26978276E+03  EK= 0.13291E+02 SP= -.33E+02 SK= 0.49E+00
 bond charge predicted
 prediction of wavefunctions
       N       E                     dE             d eps       ncg     rms          rms(c)
RMM:   1    -0.269595799191E+03    0.28691E+00    0.29415E+01   504   0.219E+00    0.325E+00
RMM:   2    -0.268961331000E+03    0.63447E+00    0.14238E+01   474   0.216E+00    0.180E+00
RMM:   3    -0.269439550730E+03   -0.47822E+00    0.53283E-01   542   0.758E-01    0.103E+00
RMM:   4    -0.269394214982E+03    0.45336E-01    0.39495E-02   543   0.411E-01    0.591E-01
RMM:   5    -0.269376992181E+03    0.17223E-01    0.70009E-02   564   0.262E-01    0.285E-01
RMM:   6    -0.269368740044E+03    0.82521E-02    0.66505E-02   570   0.161E-01    0.145E-01
RMM:   7    -0.269364409367E+03    0.43307E-02    0.38927E-02   557   0.109E-01    0.811E-02
RMM:   8    -0.269361868825E+03    0.25405E-02    0.23740E-02   509   0.802E-02    0.554E-02
RMM:   9    -0.269360682472E+03    0.11864E-02    0.10882E-02   497   0.705E-02    0.359E-02
RMM:  10    -0.269359685682E+03    0.99679E-03    0.95731E-03   451   0.627E-02    0.199E-02
RMM:  11    -0.269359595201E+03    0.90480E-04    0.88178E-04   347   0.529E-02
   15 T=  1677. E= -.28871702E+03 F= -.26935960E+03 E0= -.26926062E+03  EK= 0.13658E+02 SP= -.34E+02 SK= 0.64E+00
Information: wavefunction orthogonal band   24  0.8449
 bond charge predicted
 prediction of wavefunctions
       N       E                     dE             d eps       ncg     rms          rms(c)
RMM:   1    -0.269074270947E+03    0.28541E+00    0.25149E+01   513   0.231E+00    0.352E+00
RMM:   2    -0.269291554281E+03   -0.21728E+00   -0.33754E+00   443   0.167E+00    0.173E+00
RMM:   3    -0.269140888780E+03    0.15067E+00    0.20760E-01   541   0.753E-01    0.947E-01
RMM:   4    -0.269120420386E+03    0.20468E-01   -0.70992E-02   545   0.434E-01    0.446E-01
RMM:   5    -0.269108105645E+03    0.12315E-01    0.90151E-02   566   0.218E-01    0.218E-01
RMM:   6    -0.269107985126E+03    0.12052E-03   -0.62189E-03   561   0.131E-01    0.102E-01
RMM:   7    -0.269105253200E+03    0.27319E-02    0.24426E-02   525   0.871E-02    0.730E-02
RMM:   8    -0.269106112462E+03   -0.85926E-03   -0.10699E-02   500   0.768E-02    0.515E-02
RMM:   9    -0.269105012378E+03    0.11001E-02    0.98005E-03   495   0.693E-02    0.311E-02
RMM:  10    -0.269106002563E+03   -0.99019E-03   -0.10308E-02   375   0.579E-02    0.263E-02
RMM:  11    -0.269105673998E+03    0.32856E-03    0.29369E-03   415   0.565E-02    0.178E-02
RMM:  12    -0.269106624868E+03   -0.95087E-03   -0.96839E-03   363   0.505E-02    0.192E-02
RMM:  13    -0.269106890079E+03   -0.26521E-03   -0.26954E-03   314   0.453E-02    0.256E-02
RMM:  14    -0.269108111936E+03   -0.12219E-02   -0.11591E-02   272   0.411E-02    0.433E-02
RMM:  15    -0.269108295609E+03   -0.18367E-03   -0.20313E-03   267   0.399E-02    0.472E-02
RMM:  16    -0.269111167635E+03   -0.28720E-02   -0.10990E-02   255   0.377E-02    0.675E-02
RMM:  17    -0.269109644184E+03    0.15235E-02    0.23577E-02   252   0.384E-02    0.666E-02
RMM:  18    -0.269110371166E+03   -0.72698E-03   -0.70068E-03   268   0.353E-02    0.733E-02
RMM:  19    -0.269110750420E+03   -0.37925E-03   -0.45815E-03   274   0.357E-02    0.751E-02
RMM:  20    -0.269111331487E+03   -0.58107E-03   -0.62861E-03   271   0.346E-02    0.805E-02
RMM:  21    -0.269111498701E+03   -0.16721E-03   -0.31487E-03   309   0.373E-02    0.752E-02
RMM:  22    -0.269112040726E+03   -0.54203E-03   -0.60316E-03   310   0.348E-02    0.794E-02
RMM:  23    -0.269112389851E+03   -0.34912E-03   -0.35675E-03   257   0.318E-02    0.865E-02
RMM:  24    -0.269113088005E+03   -0.69815E-03   -0.63675E-03   258   0.301E-02    0.974E-02
RMM:  25    -0.269113328174E+03   -0.24017E-03   -0.28525E-03   239   0.285E-02    0.102E-01
RMM:  26    -0.269113938683E+03   -0.61051E-03   -0.59306E-03   240   0.268E-02    0.110E-01
RMM:  27    -0.269114261599E+03   -0.32292E-03   -0.30922E-03   232   0.259E-02    0.118E-01
RMM:  28    -0.269114764077E+03   -0.50248E-03   -0.50283E-03   217   0.243E-02    0.125E-01
RMM:  29    -0.269115114682E+03   -0.35061E-03   -0.34262E-03   207   0.236E-02    0.132E-01
RMM:  30    -0.269115475221E+03   -0.36054E-03   -0.38828E-03   208   0.230E-02    0.137E-01
RMM:  31    -0.269115856906E+03   -0.38169E-03   -0.37988E-03   203   0.223E-02    0.143E-01
RMM:  32    -0.269116177605E+03   -0.32070E-03   -0.33001E-03   207   0.218E-02    0.148E-01
RMM:  33    -0.269116549883E+03   -0.37228E-03   -0.36654E-03   202   0.215E-02    0.154E-01
RMM:  34    -0.269116788343E+03   -0.23846E-03   -0.28134E-03   206   0.206E-02    0.158E-01
RMM:  35    -0.269117120013E+03   -0.33167E-03   -0.34492E-03   217   0.205E-02    0.163E-01
RMM:  36    -0.269117304127E+03   -0.18411E-03   -0.25959E-03   237   0.205E-02    0.165E-01
RMM:  37    -0.269117614550E+03   -0.31042E-03   -0.31033E-03   214   0.194E-02    0.170E-01
RMM:  38    -0.269117933538E+03   -0.31899E-03   -0.28303E-03   201   0.187E-02    0.176E-01
RMM:  39    -0.269118203238E+03   -0.26970E-03   -0.25821E-03   192   0.181E-02    0.181E-01
RMM:  40    -0.269118436759E+03   -0.23352E-03   -0.26285E-03   188   0.178E-02    0.185E-01
RMM:  41    -0.269118660524E+03   -0.22376E-03   -0.24181E-03   200   0.177E-02    0.188E-01
RMM:  42    -0.269119017563E+03   -0.35704E-03   -0.27537E-03   203   0.175E-02    0.195E-01
RMM:  43    -0.269119176797E+03   -0.15923E-03   -0.19748E-03   195   0.168E-02    0.198E-01
RMM:  44    -0.269119429545E+03   -0.25275E-03   -0.25537E-03   179   0.163E-02    0.202E-01
RMM:  45    -0.269119608035E+03   -0.17849E-03   -0.19577E-03   177   0.159E-02    0.206E-01
RMM:  46    -0.269119836426E+03   -0.22839E-03   -0.21992E-03   170   0.156E-02    0.210E-01
RMM:  47    -0.269120082434E+03   -0.24601E-03   -0.20251E-03   163   0.149E-02    0.215E-01
RMM:  48    -0.269120226388E+03   -0.14395E-03   -0.19230E-03   164   0.147E-02    0.217E-01
RMM:  49    -0.269120434659E+03   -0.20827E-03   -0.19491E-03   149   0.143E-02    0.221E-01
RMM:  50    -0.269120634145E+03   -0.19949E-03   -0.18702E-03   148   0.141E-02    0.225E-01
RMM:  51    -0.269120825377E+03   -0.19123E-03   -0.18886E-03   154   0.141E-02    0.228E-01
RMM:  52    -0.269120997959E+03   -0.17258E-03   -0.16715E-03   165   0.141E-02    0.231E-01
RMM:  53    -0.269121166779E+03   -0.16882E-03   -0.16326E-03   155   0.134E-02    0.234E-01
RMM:  54    -0.269121283133E+03   -0.11635E-03   -0.12669E-03   151   0.132E-02    0.237E-01
RMM:  55    -0.269121467887E+03   -0.18475E-03   -0.19053E-03   157   0.130E-02    0.240E-01
RMM:  56    -0.269121617496E+03   -0.14961E-03   -0.13179E-03   144   0.126E-02    0.243E-01
RMM:  57    -0.269123520148E+03   -0.19027E-02   -0.44777E-03   355   0.296E-02    0.282E-01
RMM:  58    -0.269124130622E+03   -0.61047E-03   -0.10220E-03   335   0.210E-02    0.296E-01
RMM:  59    -0.269125117102E+03   -0.98648E-03   -0.31815E-03   323   0.211E-02    0.313E-01
RMM:  60    -0.269125272460E+03   -0.15536E-03   -0.57967E-04   250   0.171E-02
   16 T=  1761. E= -.28870692E+03 F= -.26912527E+03 E0= -.26902416E+03  EK= 0.14338E+02 SP= -.35E+02 SK= 0.79E+00
 bond charge predicted
 prediction of wavefunctions
       N       E                     dE             d eps       ncg     rms          rms(c)
RMM:   1    -0.268762552143E+03    0.36256E+00    0.22459E+01   508   0.244E+00    0.202E+00
RMM:   2    -0.268937195246E+03   -0.17464E+00    0.15125E+01   490   0.159E+00    0.129E+00
RMM:   3    -0.269397645019E+03   -0.46045E+00    0.29986E-02   546   0.521E-01    0.819E-01
RMM:   4    -0.269355731334E+03    0.41914E-01    0.13047E-01   541   0.262E-01    0.546E-01
RMM:   5    -0.269345831974E+03    0.98994E-02   -0.20376E-02   510   0.234E-01    0.260E-01
RMM:   6    -0.269337663044E+03    0.81689E-02    0.67414E-02   564   0.143E-01    0.126E-01
RMM:   7    -0.269336065165E+03    0.15979E-02    0.12874E-02   544   0.921E-02    0.678E-02
RMM:   8    -0.269333488063E+03    0.25771E-02    0.24550E-02   492   0.696E-02    0.453E-02
RMM:   9    -0.269332321454E+03    0.11666E-02    0.10919E-02   461   0.649E-02    0.299E-02
RMM:  10    -0.269330717959E+03    0.16035E-02    0.15760E-02   385   0.590E-02    0.208E-02
RMM:  11    -0.269330026343E+03    0.69162E-03    0.68893E-03   333   0.544E-02    0.240E-02
RMM:  12    -0.269329208330E+03    0.81801E-03    0.83671E-03   295   0.483E-02    0.331E-02
RMM:  13    -0.269329165858E+03    0.42472E-04    0.10970E-03   266   0.452E-02    0.509E-02
RMM:  14    -0.269328177855E+03    0.98800E-03    0.10815E-02   268   0.439E-02    0.574E-02
RMM:  15    -0.269327952668E+03    0.22519E-03    0.32939E-02   279   0.447E-02    0.730E-02
RMM:  16    -0.269326752177E+03    0.12005E-02    0.16261E-02   263   0.409E-02    0.854E-02
RMM:  17    -0.269326888750E+03   -0.13657E-03   -0.19330E-03   254   0.391E-02    0.922E-02
RMM:  18    -0.269326268486E+03    0.62026E-03    0.68495E-03   248   0.373E-02    0.104E-01
RMM:  19    -0.269326192202E+03    0.76284E-04    0.71206E-04   244   0.359E-02
   17 T=  1914. E= -.28870549E+03 F= -.26932619E+03 E0= -.26922734E+03  EK= 0.15583E+02 SP= -.36E+02 SK= 0.88E+00
 bond charge predicted
 prediction of wavefunctions
       N       E                     dE             d eps       ncg     rms          rms(c)
RMM:   1    -0.269794732063E+03   -0.46846E+00    0.17177E+01   490   0.182E+00    0.145E+00
RMM:   2    -0.269952653913E+03   -0.15792E+00    0.12990E+01   505   0.117E+00    0.867E-01
RMM:   3    -0.270014114326E+03   -0.61460E-01    0.18487E-01   550   0.399E-01    0.538E-01
RMM:   4    -0.269998643577E+03    0.15471E-01    0.58098E-02   555   0.219E-01    0.344E-01
RMM:   5    -0.269991647587E+03    0.69960E-02    0.33705E-02   545   0.173E-01    0.162E-01
RMM:   6    -0.269987922634E+03    0.37250E-02    0.32562E-02   569   0.106E-01    0.887E-02
RMM:   7    -0.269987189005E+03    0.73363E-03    0.50844E-03   507   0.718E-02    0.594E-02
RMM:   8    -0.269986581375E+03    0.60763E-03    0.49736E-03   493   0.631E-02    0.399E-02
RMM:   9    -0.269986535051E+03    0.46324E-04   -0.26436E-04   452   0.571E-02
   18 T=  2138. E= -.28871871E+03 F= -.26998654E+03 E0= -.26989398E+03  EK= 0.17409E+02 SP= -.37E+02 SK= 0.86E+00
 bond charge predicted
 prediction of wavefunctions
       N       E                     dE             d eps       ncg     rms          rms(c)
RMM:   1    -0.270254258335E+03   -0.26768E+00    0.25913E+01   484   0.206E+00    0.111E+00
RMM:   2    -0.270808105669E+03   -0.55385E+00    0.50396E-01   522   0.646E-01    0.680E-01
RMM:   3    -0.270763539208E+03    0.44566E-01    0.18589E-01   562   0.279E-01    0.417E-01
RMM:   4    -0.270757393591E+03    0.61456E-02   -0.18989E-02   541   0.187E-01    0.251E-01
RMM:   5    -0.270748854831E+03    0.85388E-02    0.66167E-02   566   0.130E-01    0.138E-01
RMM:   6    -0.270747735230E+03    0.11196E-02    0.51696E-03   520   0.998E-02    0.561E-02
RMM:   7    -0.270742995860E+03    0.47394E-02    0.46460E-02   533   0.698E-02    0.497E-02
RMM:   8    -0.270742561802E+03    0.43406E-03    0.33390E-03   365   0.544E-02    0.513E-02
RMM:   9    -0.270740230952E+03    0.23309E-02    0.24782E-02   338   0.485E-02    0.918E-02
RMM:  10    -0.270739405546E+03    0.82541E-03    0.46383E-03   425   0.516E-02    0.809E-02
RMM:  11    -0.270737297007E+03    0.21085E-02    0.18323E-02   406   0.503E-02    0.800E-02
RMM:  12    -0.270736685565E+03    0.61144E-03    0.46595E-03   325   0.434E-02    0.852E-02
RMM:  13    -0.270735468151E+03    0.12174E-02    0.12797E-02   279   0.378E-02    0.110E-01
RMM:  14    -0.270735005863E+03    0.46229E-03    0.31885E-03   260   0.372E-02    0.117E-01
RMM:  15    -0.270733998711E+03    0.10072E-02    0.94178E-03   255   0.353E-02    0.133E-01
RMM:  16    -0.270733601424E+03    0.39729E-03    0.24438E-03   281   0.372E-02    0.138E-01
RMM:  17    -0.270732382458E+03    0.12190E-02    0.87654E-03   372   0.405E-02    0.139E-01
RMM:  18    -0.270731733942E+03    0.64852E-03    0.29773E-03   389   0.405E-02    0.135E-01
RMM:  19    -0.270730881464E+03    0.85248E-03    0.76204E-03   282   0.340E-02    0.147E-01
RMM:  20    -0.270730692277E+03    0.18919E-03    0.19448E-03   251   0.312E-02    0.158E-01
RMM:  21    -0.270729948556E+03    0.74372E-03    0.60936E-03   259   0.310E-02    0.166E-01
RMM:  22    -0.270729792832E+03    0.15572E-03    0.11483E-03   247   0.295E-02    0.174E-01
RMM:  23    -0.270729283627E+03    0.50920E-03    0.49222E-03   245   0.285E-02    0.184E-01
RMM:  24    -0.270729229063E+03    0.54564E-04    0.38410E-04   251   0.274E-02
   19 T=  2378. E= -.28875537E+03 F= -.27072923E+03 E0= -.27064437E+03  EK= 0.19368E+02 SP= -.38E+02 SK= 0.71E+00
 bond charge predicted
 prediction of wavefunctions
       N       E                     dE             d eps       ncg     rms          rms(c)
RMM:   1    -0.270794571207E+03   -0.65288E-01    0.23900E+01   460   0.215E+00    0.111E+00
RMM:   2    -0.271123846126E+03   -0.32927E+00    0.35107E-01   521   0.709E-01    0.859E-01
RMM:   3    -0.271081669017E+03    0.42177E-01    0.34791E-01   553   0.319E-01    0.464E-01
RMM:   4    -0.271060044984E+03    0.21624E-01    0.13075E-01   552   0.182E-01    0.373E-01
RMM:   5    -0.271040662066E+03    0.19383E-01    0.13854E-01   544   0.156E-01    0.286E-01
RMM:   6    -0.271026053058E+03    0.14609E-01    0.10423E-01   482   0.213E-01    0.115E-01
RMM:   7    -0.271004667327E+03    0.21386E-01    0.21122E-01   526   0.996E-02    0.176E-01
RMM:   8    -0.270996996640E+03    0.76707E-02    0.60658E-02   493   0.897E-02    0.151E-01
RMM:   9    -0.270988561805E+03    0.84348E-02    0.80819E-02   494   0.591E-02    0.180E-01
RMM:  10    -0.270990906036E+03   -0.23442E-02   -0.75579E-03   444   0.595E-02    0.240E-01
RMM:  11    -0.270980648659E+03    0.10257E-01    0.62799E-02   419   0.999E-02    0.154E-01
RMM:  12    -0.270977539264E+03    0.31094E-02    0.94116E-03   515   0.123E-01    0.528E-02
RMM:  13    -0.270972077429E+03    0.54618E-02    0.54157E-02   557   0.768E-02    0.500E-02
RMM:  14    -0.270970664978E+03    0.14125E-02    0.13883E-02   322   0.476E-02    0.761E-02
RMM:  15    -0.270966981848E+03    0.36831E-02    0.37104E-02   281   0.418E-02    0.104E-01
RMM:  16    -0.270965336182E+03    0.16457E-02    0.14612E-02   289   0.437E-02    0.116E-01
RMM:  17    -0.270963524141E+03    0.18120E-02    0.17722E-02   466   0.551E-02    0.131E-01
RMM:  18    -0.270960330962E+03    0.31932E-02    0.25621E-02   455   0.519E-02    0.126E-01
RMM:  19    -0.270958097513E+03    0.22334E-02    0.17648E-02   410   0.467E-02    0.125E-01
RMM:  20    -0.270955609734E+03    0.24878E-02    0.22542E-02   337   0.417E-02    0.140E-01
RMM:  21    -0.270954126702E+03    0.14830E-02    0.14107E-02   282   0.373E-02    0.156E-01
RMM:  22    -0.270952420892E+03    0.17058E-02    0.16677E-02   259   0.353E-02    0.175E-01
RMM:  23    -0.270952010879E+03    0.41001E-03    0.11013E-02   257   0.349E-02    0.185E-01
RMM:  24    -0.270949994460E+03    0.20164E-02    0.10539E-01   233   0.357E-02    0.200E-01
RMM:  25    -0.270948788383E+03    0.12061E-02    0.29683E-02   233   0.337E-02    0.214E-01
RMM:  26    -0.270947685931E+03    0.11025E-02    0.15945E-02   228   0.314E-02    0.228E-01
RMM:  27    -0.270947104762E+03    0.58117E-03    0.69062E-03   226   0.301E-02    0.240E-01
RMM:  28    -0.270946153045E+03    0.95172E-03    0.94728E-03   218   0.290E-02    0.252E-01
RMM:  29    -0.270945757389E+03    0.39566E-03    0.42854E-03   202   0.278E-02    0.262E-01
RMM:  30    -0.270944836074E+03    0.92132E-03    0.85210E-03   224   0.278E-02    0.272E-01
RMM:  31    -0.270944215580E+03    0.62049E-03    0.40548E-03   247   0.288E-02    0.277E-01
RMM:  32    -0.270942927674E+03    0.12879E-02    0.85425E-03   280   0.328E-02    0.280E-01
RMM:  33    -0.270941986107E+03    0.94157E-03    0.37314E-03   351   0.349E-02    0.277E-01
RMM:  34    -0.270940750389E+03    0.12357E-02    0.84587E-03   347   0.331E-02    0.280E-01
RMM:  35    -0.270940438670E+03    0.31172E-03    0.22311E-03   257   0.288E-02    0.287E-01
RMM:  36    -0.270939683945E+03    0.75472E-03    0.74849E-03   242   0.275E-02    0.296E-01
RMM:  37    -0.270939534506E+03    0.14944E-03    0.12005E-03   226   0.266E-02    0.303E-01
RMM:  38    -0.270938677829E+03    0.85668E-03    0.83208E-03   228   0.263E-02    0.312E-01
RMM:  39    -0.270938758635E+03   -0.80806E-04    0.48298E-04   237   0.255E-02
   20 T=  2564. E= -.28864436E+03 F= -.27093876E+03 E0= -.27086310E+03  EK= 0.20877E+02 SP= -.39E+02 SK= 0.47E+00
Information: wavefunction orthogonal band   39  0.8439
 bond charge predicted
 prediction of wavefunctions
       N       E                     dE             d eps       ncg     rms          rms(c)
RMM:   1    -0.270846585265E+03    0.92093E-01    0.26387E+01   523   0.272E+00    0.244E+00
RMM:   2    -0.270855865283E+03   -0.92800E-02    0.37478E+00   479   0.143E+00    0.118E+00
RMM:   3    -0.270798546309E+03    0.57319E-01    0.16067E-01   559   0.607E-01    0.657E-01
RMM:   4    -0.270776938405E+03    0.21608E-01    0.10842E-01   569   0.306E-01    0.346E-01
RMM:   5    -0.270765062831E+03    0.11876E-01    0.97733E-02   565   0.183E-01    0.152E-01
RMM:   6    -0.270757999532E+03    0.70633E-02    0.65855E-02   562   0.116E-01    0.894E-02
RMM:   7    -0.270751790014E+03    0.62095E-02    0.59384E-02   512   0.901E-02    0.674E-02
RMM:   8    -0.270747640304E+03    0.41497E-02    0.39371E-02   494   0.778E-02    0.615E-02
RMM:   9    -0.270743051434E+03    0.45889E-02    0.43979E-02   459   0.744E-02    0.587E-02
RMM:  10    -0.270739306678E+03    0.37448E-02    0.35574E-02   464   0.728E-02    0.501E-02
RMM:  11    -0.270734377265E+03    0.49294E-02    0.48063E-02   479   0.895E-02    0.260E-02
RMM:  12    -0.270731879205E+03    0.24981E-02    0.24628E-02   368   0.636E-02    0.312E-02
RMM:  13    -0.270726707227E+03    0.51720E-02    0.50876E-02   461   0.665E-02    0.323E-02
RMM:  14    -0.270724497467E+03    0.22098E-02    0.21334E-02   360   0.601E-02    0.395E-02
RMM:  15    -0.270720447451E+03    0.40500E-02    0.40342E-02   286   0.530E-02    0.741E-02
RMM:  16    -0.270719271122E+03    0.11763E-02    0.13159E-02   256   0.488E-02    0.106E-01
RMM:  17    -0.270716673863E+03    0.25973E-02    0.28577E-02   274   0.488E-02    0.149E-01
RMM:  18    -0.270715169393E+03    0.15045E-02    0.14901E-02   254   0.451E-02    0.171E-01
RMM:  19    -0.270713449941E+03    0.17195E-02    0.19606E-02   259   0.448E-02    0.203E-01
RMM:  20    -0.270712272143E+03    0.11778E-02    0.12963E-02   256   0.425E-02    0.225E-01
RMM:  21    -0.270710464975E+03    0.18072E-02    0.17028E-02   238   0.407E-02    0.245E-01
RMM:  22    -0.270709304655E+03    0.11603E-02    0.11465E-02   243   0.392E-02    0.262E-01
RMM:  23    -0.270708022311E+03    0.12823E-02    0.13404E-02   215   0.372E-02    0.282E-01
RMM:  24    -0.270706853999E+03    0.11683E-02    0.10735E-02   221   0.361E-02    0.296E-01
RMM:  25    -0.270705791419E+03    0.10626E-02    0.10587E-02   202   0.347E-02    0.312E-01
RMM:  26    -0.270704888392E+03    0.90303E-03    0.92233E-03   187   0.335E-02    0.325E-01
RMM:  27    -0.270704113112E+03    0.77528E-03    0.81371E-03   198   0.327E-02    0.340E-01
RMM:  28    -0.270703414652E+03    0.69846E-03    0.81225E-03   205   0.321E-02    0.354E-01
RMM:  29    -0.270702836338E+03    0.57831E-03    0.61697E-03   199   0.309E-02    0.366E-01
RMM:  30    -0.270702040020E+03    0.79632E-03    0.77321E-03   204   0.302E-02    0.376E-01
RMM:  31    -0.270701708126E+03    0.33189E-03    0.41201E-03   201   0.290E-02    0.387E-01
RMM:  32    -0.270700898467E+03    0.80966E-03    0.72116E-03   179   0.281E-02    0.394E-01
RMM:  33    -0.270700480988E+03    0.41748E-03    0.29884E-03   178   0.276E-02    0.400E-01
RMM:  34    -0.270699736666E+03    0.74432E-03    0.62943E-03   197   0.273E-02    0.405E-01
RMM:  35    -0.270699638853E+03    0.97813E-04    0.14311E-03   185   0.266E-02    0.410E-01
RMM:  36    -0.270699094641E+03    0.54421E-03    0.15471E-02   181   0.263E-02    0.415E-01
RMM:  37    -0.270721784794E+03   -0.22690E-01    0.19722E-03   216   0.259E-02    0.471E-01
RMM:  38    -0.270698298381E+03    0.23486E-01    0.16970E+00   220   0.737E-02    0.420E-01
RMM:  39    -0.270697599793E+03    0.69859E-03    0.27754E-01   209   0.374E-02    0.427E-01
RMM:  40    -0.270697392242E+03    0.20755E-03    0.70697E-03   190   0.240E-02    0.435E-01
RMM:  41    -0.270697161097E+03    0.23115E-03    0.25319E-03   170   0.229E-02    0.441E-01
RMM:  42    -0.270696755590E+03    0.40551E-03    0.37389E-03   167   0.224E-02    0.447E-01
RMM:  43    -0.270696671738E+03    0.83852E-04    0.15654E-03   159   0.218E-02    0.451E-01
RMM:  44    -0.270696271050E+03    0.40069E-03    0.31939E-03   165   0.214E-02    0.455E-01
RMM:  45    -0.270696146728E+03    0.12432E-03    0.96459E-04   175   0.214E-02    0.458E-01
RMM:  46    -0.270698469481E+03   -0.23228E-02    0.22659E-03   188   0.213E-02    0.457E-01
RMM:  47    -0.270695756510E+03    0.27130E-02    0.62466E+00   211   0.118E-01    0.458E-01
RMM:  48    -0.270694646185E+03    0.11103E-02    0.15150E-02   186   0.204E-02    0.477E-01
RMM:  49    -0.270694565303E+03    0.80882E-04    0.85817E-04   174   0.192E-02
   21 T=  2667. E= -.28851878E+03 F= -.27069457E+03 E0= -.27062236E+03  EK= 0.21718E+02 SP= -.40E+02 SK= 0.23E+00
Information: wavefunction orthogonal band  167  0.8997
 bond charge predicted
 prediction of wavefunctions
       N       E                     dE             d eps       ncg     rms          rms(c)
RMM:   1    -0.271324592788E+03   -0.62995E+00    0.17082E+01   503   0.286E+00    0.267E+00
RMM:   2    -0.271134373484E+03    0.19022E+00    0.24145E+01   496   0.245E+00    0.147E+00
RMM:   3    -0.270521115215E+03    0.61326E+00    0.95592E-01   546   0.696E-01    0.890E-01
RMM:   4    -0.270468290684E+03    0.52825E-01    0.21649E-01   556   0.355E-01    0.585E-01
RMM:   5    -0.270441601202E+03    0.26689E-01    0.15949E-01   542   0.249E-01    0.314E-01
RMM:   6    -0.270429634141E+03    0.11967E-01    0.93536E-02   561   0.185E-01    0.135E-01
RMM:   7    -0.270419685598E+03    0.99485E-02    0.95095E-02   559   0.118E-01    0.879E-02
RMM:   8    -0.270414446538E+03    0.52391E-02    0.49171E-02   503   0.893E-02    0.739E-02
RMM:   9    -0.270409170127E+03    0.52764E-02    0.50258E-02   515   0.834E-02    0.645E-02
RMM:  10    -0.270404048854E+03    0.51213E-02    0.48629E-02   487   0.912E-02    0.340E-02
RMM:  11    -0.270400147671E+03    0.39012E-02    0.38622E-02   423   0.710E-02    0.339E-02
RMM:  12    -0.270396124904E+03    0.40228E-02    0.39418E-02   472   0.726E-02    0.243E-02
RMM:  13    -0.270392995210E+03    0.31297E-02    0.30949E-02   368   0.639E-02    0.301E-02
RMM:  14    -0.270390111835E+03    0.28834E-02    0.28665E-02   298   0.574E-02    0.461E-02
RMM:  15    -0.270388543255E+03    0.15686E-02    0.17346E-02   263   0.540E-02    0.797E-02
RMM:  16    -0.270385827225E+03    0.27160E-02    0.25769E-02   273   0.516E-02    0.863E-02
RMM:  17    -0.270384188875E+03    0.16383E-02    0.16493E-02   254   0.495E-02    0.103E-01
RMM:  18    -0.270382658875E+03    0.15300E-02    0.15918E-02   233   0.469E-02    0.119E-01
RMM:  19    -0.270380999210E+03    0.16597E-02    0.17023E-02   252   0.455E-02    0.132E-01
RMM:  20    -0.270379857837E+03    0.11414E-02    0.21778E-02   231   0.444E-02    0.144E-01
RMM:  21    -0.270378141043E+03    0.17168E-02    0.17665E-02   224   0.421E-02    0.159E-01
RMM:  22    -0.270377494632E+03    0.64641E-03    0.54046E-03   238   0.410E-02    0.166E-01
RMM:  23    -0.270375939424E+03    0.15552E-02    0.14058E-02   260   0.416E-02    0.174E-01
RMM:  24    -0.270375200083E+03    0.73934E-03    0.54210E-03   253   0.424E-02    0.176E-01
RMM:  25    -0.270374268369E+03    0.93171E-03    0.92948E-03   242   0.403E-02    0.187E-01
RMM:  26    -0.270373849708E+03    0.41866E-03    0.42382E-03   238   0.388E-02    0.195E-01
RMM:  27    -0.270373130409E+03    0.71930E-03    0.68321E-03   243   0.381E-02    0.204E-01
RMM:  28    -0.270372835874E+03    0.29454E-03    0.33755E-03   231   0.359E-02    0.212E-01
RMM:  29    -0.270372422203E+03    0.41367E-03    0.43452E-03   223   0.349E-02    0.223E-01
RMM:  30    -0.270372206646E+03    0.21556E-03    0.28919E-03   216   0.337E-02    0.230E-01
RMM:  31    -0.270372096371E+03    0.11028E-03    0.18379E-03   193   0.325E-02    0.240E-01
RMM:  32    -0.270371956899E+03    0.13947E-03    0.26458E-03   204   0.323E-02    0.248E-01
RMM:  33    -0.270372048333E+03   -0.91434E-04    0.26677E-05   223   0.318E-02
   22 T=  2718. E= -.28841255E+03 F= -.27037205E+03 E0= -.27029251E+03  EK= 0.22131E+02 SP= -.40E+02 SK= 0.69E-01
Information: wavefunction orthogonal band   38  0.8128
 bond charge predicted
 prediction of wavefunctions
       N       E                     dE             d eps       ncg     rms          rms(c)
RMM:   1    -0.271303371895E+03   -0.93141E+00    0.30274E+01   513   0.265E+00    0.328E+00
RMM:   2    -0.270368895289E+03    0.93448E+00    0.27591E+01   494   0.237E+00    0.155E+00
RMM:   3    -0.270359518374E+03    0.93769E-02    0.35760E-01   546   0.772E-01    0.887E-01
RMM:   4    -0.270317550789E+03    0.41968E-01    0.13552E-01   548   0.416E-01    0.481E-01
RMM:   5    -0.270300557482E+03    0.16993E-01    0.11451E-01   557   0.238E-01    0.222E-01
RMM:   6    -0.270291654463E+03    0.89030E-02    0.80097E-02   569   0.144E-01    0.100E-01
RMM:   7    -0.270286095876E+03    0.55586E-02    0.52634E-02   551   0.928E-02    0.604E-02
RMM:   8    -0.270281415363E+03    0.46805E-02    0.45210E-02   507   0.728E-02    0.469E-02
RMM:   9    -0.270277805342E+03    0.36100E-02    0.34757E-02   494   0.677E-02    0.361E-02
RMM:  10    -0.270274245640E+03    0.35597E-02    0.34741E-02   469   0.636E-02    0.289E-02
RMM:  11    -0.270271256198E+03    0.29894E-02    0.29377E-02   496   0.639E-02    0.160E-02
RMM:  12    -0.270268258215E+03    0.29980E-02    0.29928E-02   372   0.541E-02    0.179E-02
RMM:  13    -0.270265897817E+03    0.23604E-02    0.23360E-02   402   0.541E-02    0.182E-02
RMM:  14    -0.270264134640E+03    0.17632E-02    0.18015E-02   289   0.451E-02    0.462E-02
RMM:  15    -0.270262231242E+03    0.19034E-02    0.19135E-02   257   0.413E-02    0.649E-02
RMM:  16    -0.270260784265E+03    0.14470E-02    0.14535E-02   241   0.390E-02    0.805E-02
RMM:  17    -0.270259369979E+03    0.14143E-02    0.14241E-02   235   0.372E-02    0.958E-02
RMM:  18    -0.270257709647E+03    0.16603E-02    0.15338E-02   261   0.378E-02    0.104E-01
RMM:  19    -0.270256596606E+03    0.11130E-02    0.10604E-02   257   0.366E-02    0.114E-01
RMM:  20    -0.270255326158E+03    0.12704E-02    0.12789E-02   245   0.355E-02    0.127E-01
RMM:  21    -0.270254307322E+03    0.10188E-02    0.93004E-03   247   0.349E-02    0.135E-01
RMM:  22    -0.270253260373E+03    0.10469E-02    0.10536E-02   236   0.334E-02    0.147E-01
RMM:  23    -0.270252512344E+03    0.74803E-03    0.73202E-03   224   0.329E-02    0.157E-01
RMM:  24    -0.270251627249E+03    0.88510E-03    0.89346E-03   219   0.319E-02    0.168E-01
RMM:  25    -0.270251017476E+03    0.60977E-03    0.59525E-03   220   0.310E-02    0.178E-01
RMM:  26    -0.270250308759E+03    0.70872E-03    0.71770E-03   210   0.305E-02    0.187E-01
RMM:  27    -0.270249840668E+03    0.46809E-03    0.48566E-03   191   0.293E-02    0.197E-01
RMM:  28    -0.270249281138E+03    0.55953E-03    0.56574E-03   195   0.289E-02    0.206E-01
RMM:  29    -0.270248898156E+03    0.38298E-03    0.40293E-03   189   0.284E-02    0.215E-01
RMM:  30    -0.270248526730E+03    0.37143E-03    0.38865E-03   183   0.276E-02    0.224E-01
RMM:  31    -0.270248185507E+03    0.34122E-03    0.36323E-03   175   0.271E-02    0.233E-01
RMM:  32    -0.270248003534E+03    0.18197E-03    0.21271E-03   181   0.270E-02    0.241E-01
RMM:  33    -0.270247706202E+03    0.29733E-03    0.32749E-03   176   0.261E-02    0.250E-01
RMM:  34    -0.270247625413E+03    0.80790E-04    0.40148E-03   186   0.262E-02    0.257E-01
RMM:  35    -0.270247604269E+03    0.21144E-04    0.30168E-03   189   0.255E-02    0.262E-01
RMM:  36    -0.270254563652E+03   -0.69594E-02    0.46466E-02   194   0.261E-02    0.293E-01
RMM:  37    -0.270246812817E+03    0.77508E-02    0.38548E+00   201   0.122E-01    0.273E-01
RMM:  38    -0.270244937711E+03    0.18751E-02    0.19195E-02   177   0.234E-02    0.294E-01
RMM:  39    -0.270245958317E+03   -0.10206E-02   -0.10147E-02   164   0.227E-02    0.293E-01
RMM:  40    -0.270244607799E+03    0.13505E-02    0.13611E-02   158   0.222E-02    0.308E-01
RMM:  41    -0.270245445308E+03   -0.83751E-03   -0.83929E-03   149   0.218E-02    0.310E-01
RMM:  42    -0.270244455984E+03    0.98932E-03    0.98728E-03   150   0.215E-02    0.321E-01
RMM:  43    -0.270245121441E+03   -0.66546E-03   -0.66535E-03   158   0.213E-02    0.324E-01
RMM:  44    -0.270244387199E+03    0.73424E-03    0.72699E-03   154   0.208E-02    0.334E-01
RMM:  45    -0.270244882757E+03   -0.49556E-03   -0.52748E-03   163   0.206E-02    0.336E-01
RMM:  46    -0.270244398779E+03    0.48398E-03    0.51667E-03   157   0.201E-02    0.346E-01
RMM:  47    -0.270244840784E+03   -0.44201E-03   -0.46607E-03   148   0.198E-02    0.349E-01
RMM:  48    -0.270244443919E+03    0.39686E-03    0.38579E-03   148   0.195E-02    0.357E-01
RMM:  49    -0.270244876729E+03   -0.43281E-03   -0.42324E-03   153   0.194E-02    0.361E-01
RMM:  50    -0.270244610703E+03    0.26603E-03    0.27148E-03   149   0.191E-02    0.368E-01
RMM:  51    -0.270245001351E+03   -0.39065E-03   -0.39296E-03   160   0.190E-02    0.372E-01
RMM:  52    -0.270244825907E+03    0.17544E-03    0.16460E-03   158   0.187E-02    0.379E-01
RMM:  53    -0.270245288212E+03   -0.46230E-03   -0.40986E-03   148   0.184E-02    0.383E-01
RMM:  54    -0.270245248515E+03    0.39696E-04    0.64646E-04   144   0.181E-02
   23 T=  2730. E= -.28843282E+03 F= -.27024525E+03 E0= -.27015921E+03  EK= 0.22235E+02 SP= -.40E+02 SK= 0.95E-03
 bond charge predicted
 prediction of wavefunctions
       N       E                     dE             d eps       ncg     rms          rms(c)
RMM:   1    -0.274493197677E+03   -0.42479E+01    0.69174E+00   512   0.320E+00    0.218E+00
RMM:   2    -0.274715328030E+03   -0.22213E+00   -0.57730E+00   543   0.252E+00    0.155E+00
RMM:   3    -0.277260789328E+03   -0.25455E+01   -0.14080E+01   557   0.190E+00    0.137E+00
RMM:   4    -0.285726035747E+03   -0.84652E+01   -0.30134E+01   534   0.127E+00    0.970E-01
RMM:   5    -0.286089137905E+03   -0.36310E+00   -0.28377E+00   514   0.629E-01    0.648E-01
RMM:   6    -0.285413917055E+03    0.67522E+00    0.66384E+00   512   0.456E-01    0.565E-01
RMM:   7    -0.284923092627E+03    0.49082E+00    0.42552E+00   529   0.316E-01    0.890E-01
RMM:   8    -0.284833530152E+03    0.89562E-01    0.76908E-01   498   0.131E-01    0.861E-01
RMM:   9    -0.284769127797E+03    0.64402E-01    0.63295E-01   431   0.125E-01    0.848E-01
RMM:  10    -0.284740858526E+03    0.28269E-01    0.24756E-01   460   0.100E-01    0.816E-01
RMM:  11    -0.284717428755E+03    0.23430E-01    0.19884E-01   455   0.103E-01    0.775E-01
RMM:  12    -0.284698771086E+03    0.18658E-01    0.15567E-01   417   0.280E-01    0.698E-01
RMM:  13    -0.284718118643E+03   -0.19348E-01    0.87990E-02   466   0.410E-01    0.883E-01
RMM:  14    -0.284705805608E+03    0.12313E-01    0.18311E-01   547   0.169E-01    0.869E-01
RMM:  15    -0.284700964680E+03    0.48409E-02    0.75023E-02   531   0.735E-02    0.864E-01
RMM:  16    -0.284689044311E+03    0.11920E-01    0.61028E-02   408   0.555E-02    0.807E-01
RMM:  17    -0.284692369242E+03   -0.33249E-02    0.20516E-02   400   0.162E-01    0.854E-01
RMM:  18    -0.284697102703E+03   -0.47335E-02   -0.81129E-03   482   0.190E-01    0.921E-01
RMM:  19    -0.284695664431E+03    0.14383E-02    0.14122E-02   527   0.964E-02    0.917E-01
RMM:  20    -0.284694849701E+03    0.81473E-03    0.10903E-02   389   0.349E-02    0.911E-01
RMM:  21    -0.284692599237E+03    0.22505E-02    0.33628E-03   343   0.259E-02    0.895E-01
RMM:  22    -0.284682622467E+03    0.99768E-02   -0.47024E-03   389   0.701E-02    0.815E-01
RMM:  23    -0.284659813956E+03    0.22809E-01   -0.55909E-02   409   0.243E-01    0.580E-01
RMM:  24    -0.284649366998E+03    0.10447E-01   -0.25720E-02   510   0.233E-01    0.453E-01
RMM:  25    -0.284641786559E+03    0.75804E-02    0.30924E-03   518   0.123E-01    0.355E-01
RMM:  26    -0.284639060871E+03    0.27257E-02    0.69792E-03   524   0.705E-02    0.310E-01
RMM:  27    -0.284638599025E+03    0.46185E-03    0.54597E-03   500   0.435E-02    0.299E-01
RMM:  28    -0.284637199205E+03    0.13998E-02    0.28893E-03   382   0.286E-02    0.269E-01
RMM:  29    -0.284635509533E+03    0.16897E-02    0.10868E-04   408   0.339E-02    0.226E-01
RMM:  30    -0.284634806132E+03    0.70340E-03    0.45551E-04   365   0.248E-02    0.203E-01
RMM:  31    -0.284634440050E+03    0.36608E-03    0.43133E-04   286   0.162E-02    0.192E-01
RMM:  32    -0.284633867610E+03    0.57244E-03   -0.21461E-04   268   0.185E-02    0.168E-01
RMM:  33    -0.284632851247E+03    0.10164E-02   -0.13054E-03   423   0.354E-02    0.116E-01
RMM:  34    -0.284632560326E+03    0.29092E-03    0.27997E-04   310   0.197E-02    0.105E-01
RMM:  35    -0.284632282999E+03    0.27733E-03   -0.28889E-04   330   0.201E-02    0.838E-02
RMM:  36    -0.284632030534E+03    0.25247E-03    0.88891E-04   293   0.170E-02    0.818E-02
RMM:  37    -0.284631934418E+03    0.96115E-04   -0.94152E-05   250   0.140E-02
   24 T=  2689. E= -.30301168E+03 F= -.28463193E+03 E0= -.28455246E+03  EK= 0.21900E+02 SP= -.40E+02 SK= 0.39E-01
Information: wavefunction orthogonal band   38  0.4876
 bond charge predicted
 prediction of wavefunctions
       N       E                     dE             d eps       ncg     rms          rms(c)
RMM:   1    -0.281483947566E+03    0.31481E+01   -0.22156E+01   531   0.354E+00    0.309E+00
RMM:   2    -0.284788209867E+03   -0.33043E+01   -0.19665E+01   444   0.260E+00    0.144E+00
RMM:   3    -0.284351959497E+03    0.43625E+00    0.71915E-01   529   0.802E-01    0.867E-01
RMM:   4    -0.284312484247E+03    0.39475E-01    0.20559E-01   490   0.339E-01    0.490E-01
RMM:   5    -0.284297995215E+03    0.14489E-01    0.98952E-02   501   0.198E-01    0.203E-01
RMM:   6    -0.284290745703E+03    0.72495E-02    0.66577E-02   528   0.919E-02    0.116E-01
RMM:   7    -0.284286161717E+03    0.45840E-02    0.42870E-02   463   0.580E-02    0.729E-02
RMM:   8    -0.284283457327E+03    0.27044E-02    0.25451E-02   467   0.438E-02    0.483E-02
RMM:   9    -0.284281426645E+03    0.20307E-02    0.19630E-02   437   0.384E-02    0.248E-02
RMM:  10    -0.284280392256E+03    0.10344E-02    0.10186E-02   298   0.215E-02    0.200E-02
RMM:  11    -0.284279494632E+03    0.89762E-03    0.87556E-03   277   0.216E-02    0.160E-02
RMM:  12    -0.284279056149E+03    0.43848E-03    0.42787E-03   248   0.168E-02    0.207E-02
RMM:  13    -0.284278854211E+03    0.20194E-03    0.26279E-03   232   0.143E-02    0.455E-02
RMM:  14    -0.284278554534E+03    0.29968E-03    0.19657E-03   269   0.160E-02    0.357E-02
RMM:  15    -0.284278309927E+03    0.24461E-03    0.17610E-03   314   0.182E-02    0.271E-02
RMM:  16    -0.284278182344E+03    0.12758E-03    0.10490E-03   240   0.136E-02    0.259E-02
RMM:  17    -0.284278101558E+03    0.80786E-04    0.74586E-04   198   0.106E-02
   25 T=  2586. E= -.30300254E+03 F= -.28427810E+03 E0= -.28420454E+03  EK= 0.21058E+02 SP= -.40E+02 SK= 0.16E+00
 bond charge predicted
 prediction of wavefunctions
       N       E                     dE             d eps       ncg     rms          rms(c)
RMM:   1    -0.283268454363E+03    0.10097E+01    0.16998E+01   451   0.327E+00    0.159E+00
RMM:   2    -0.283865610987E+03   -0.59716E+00   -0.91812E-01   443   0.100E+00    0.744E-01
RMM:   3    -0.283836175117E+03    0.29436E-01    0.22290E-02   514   0.398E-01    0.409E-01
RMM:   4    -0.283830821198E+03    0.53539E-02    0.27871E-03   498   0.175E-01    0.218E-01
RMM:   5    -0.283829935252E+03    0.88595E-03   -0.15317E-03   510   0.922E-02    0.109E-01
RMM:   6    -0.283829658929E+03    0.27632E-03    0.25312E-04   484   0.532E-02    0.601E-02
RMM:   7    -0.283829554366E+03    0.10456E-03    0.83788E-05   433   0.354E-02    0.334E-02
RMM:   8    -0.283829545315E+03    0.90508E-05   -0.13859E-04   330   0.250E-02
   26 T=  2439. E= -.30298501E+03 F= -.28382955E+03 E0= -.28375503E+03  EK= 0.19864E+02 SP= -.39E+02 SK= 0.32E+00
 bond charge predicted
 prediction of wavefunctions
       N       E                     dE             d eps       ncg     rms          rms(c)
RMM:   1    -0.282651463181E+03    0.11781E+01    0.17557E+01   466   0.204E+00    0.966E-01
RMM:   2    -0.283492078309E+03   -0.84062E+00    0.46532E-01   489   0.512E-01    0.572E-01
RMM:   3    -0.283474970397E+03    0.17108E-01    0.10723E-02   517   0.205E-01    0.348E-01
RMM:   4    -0.283471222044E+03    0.37484E-02   -0.71962E-03   481   0.112E-01    0.228E-01
RMM:   5    -0.283469375933E+03    0.18461E-02    0.11576E-03   485   0.826E-02    0.112E-01
RMM:   6    -0.283468798318E+03    0.57761E-03    0.26220E-03   480   0.507E-02    0.493E-02
RMM:   7    -0.283468576507E+03    0.22181E-03    0.17033E-03   402   0.298E-02    0.257E-02
RMM:   8    -0.283468418981E+03    0.15753E-03    0.13381E-03   295   0.194E-02    0.221E-02
RMM:   9    -0.283468307416E+03    0.11156E-03    0.87763E-04   264   0.161E-02    0.171E-02
RMM:  10    -0.283468235894E+03    0.71522E-04    0.57201E-04   264   0.162E-02
   27 T=  2282. E= -.30298485E+03 F= -.28346824E+03 E0= -.28338975E+03  EK= 0.18580E+02 SP= -.39E+02 SK= 0.47E+00
Information: wavefunction orthogonal band  167  0.8999
 bond charge predicted
 prediction of wavefunctions
       N       E                     dE             d eps       ncg     rms          rms(c)
RMM:   1    -0.283222058595E+03    0.24625E+00   -0.43474E-01   451   0.103E+00    0.518E-01
RMM:   2    -0.283054167777E+03    0.16789E+00    0.32355E+00   513   0.494E-01    0.658E-01
RMM:   3    -0.283229323893E+03   -0.17516E+00   -0.21236E-01   520   0.158E-01    0.450E-01
RMM:   4    -0.283222823570E+03    0.65003E-02   -0.33827E-02   472   0.981E-02    0.334E-01
RMM:   5    -0.283218951433E+03    0.38721E-02   -0.23242E-02   450   0.115E-01    0.185E-01
RMM:   6    -0.283218340981E+03    0.61045E-03   -0.67634E-03   513   0.814E-02    0.775E-02
RMM:   7    -0.283218553913E+03   -0.21293E-03   -0.28887E-03   440   0.357E-02    0.475E-02
RMM:   8    -0.283218632359E+03   -0.78446E-04   -0.15233E-03   372   0.271E-02    0.201E-02
RMM:   9    -0.283218682319E+03   -0.49960E-04   -0.56761E-04   305   0.186E-02
   28 T=  2130. E= -.30298568E+03 F= -.28321868E+03 E0= -.28313853E+03  EK= 0.17343E+02 SP= -.38E+02 SK= 0.56E+00
 bond charge predicted
 prediction of wavefunctions
       N       E                     dE             d eps       ncg     rms          rms(c)
RMM:   1    -0.283021613069E+03    0.19702E+00   -0.32061E-01   461   0.983E-01    0.296E-01
RMM:   2    -0.283018900322E+03    0.27127E-02    0.51905E-02   543   0.292E-01    0.167E-01
RMM:   3    -0.283027049028E+03   -0.81487E-02   -0.33282E-02   531   0.101E-01    0.138E-01
RMM:   4    -0.283026679342E+03    0.36969E-03   -0.29805E-03   498   0.491E-02    0.105E-01
RMM:   5    -0.283026322189E+03    0.35715E-03   -0.16546E-03   445   0.549E-02    0.383E-02
RMM:   6    -0.283026282666E+03    0.39523E-04    0.10077E-04   351   0.233E-02
   29 T=  1986. E= -.30298939E+03 F= -.28302628E+03 E0= -.28294602E+03  EK= 0.16170E+02 SP= -.37E+02 SK= 0.60E+00
Information: wavefunction orthogonal band  168  0.8759
 bond charge predicted
 prediction of wavefunctions
       N       E                     dE             d eps       ncg     rms          rms(c)
RMM:   1    -0.282818697603E+03    0.20762E+00   -0.24532E-01   419   0.885E-01    0.187E-01
RMM:   2    -0.282813312994E+03    0.53846E-02    0.14586E-01   538   0.268E-01    0.135E-01
RMM:   3    -0.282822302916E+03   -0.89899E-02   -0.49661E-03   515   0.875E-02    0.111E-01
RMM:   4    -0.282822337297E+03   -0.34381E-04   -0.26742E-04   451   0.388E-02
   30 T=  1848. E= -.30299239E+03 F= -.28282234E+03 E0= -.28274256E+03  EK= 0.15053E+02 SP= -.36E+02 SK= 0.56E+00
 bond charge predicted
 prediction of wavefunctions
 wavefunctions rotated
 writing wavefunctions
