 vasp.5.4.4.18Apr17-6-g9f103f2a35 (build Oct 01 2024 10:11:53) complex          
  
 executed on              Shaheen date 2025.02.19  15:18:41
 running on  192 total cores
 distrk:  each k-point on  192 cores,    1 groups
 distr:  one band on NCORES_PER_BAND=  24 cores,    8 groups


--------------------------------------------------------------------------------------------------------


 INCAR:
 POTCAR:    PAW_PBE Mo 08Apr2002                  
 POTCAR:    PAW_PBE S 06Sep2000                   
 POTCAR:    PAW_PBE Te 08Apr2002                  
 POTCAR:    PAW_PBE Mo 08Apr2002                  
   VRHFIN =Mo: 4p5s4d                                                           
   LEXCH  = PE                                                                  
   EATOM  =   217.5176 eV,   15.9871 Ry                                         
                                                                                
   TITEL  = PAW_PBE Mo 08Apr2002                                                
   LULTRA =        F    use ultrasoft PP ?                                      
   IUNSCR =        1    unscreen: 0-lin 1-nonlin 2-no                           
   RPACOR =    2.200    partial core radius                                     
   POMASS =   95.940; ZVAL   =    6.000    mass and valenz                      
   RCORE  =    2.750    outmost cutoff radius                                   
   RWIGS  =    2.750; RWIGS  =    1.455    wigner-seitz radius (au A)           
   ENMAX  =  224.584; ENMIN  =  168.438 eV                                      
   RCLOC  =    2.111    cutoff for local pot                                    
   LCOR   =        T    correct aug charges                                     
   LPAW   =        T    paw PP                                                  
   EAUG   =  345.278                                                            
   DEXC   =    0.000                                                            
   RMAX   =    2.821    core radius for proj-oper                               
   RAUG   =    1.300    factor for augmentation sphere                          
   RDEP   =    2.815    radius for radial grids                                 
   RDEPT  =    2.211    core radius for aug-charge                              
                                                                                
   Atomic configuration                                                         
   12 entries                                                                   
     n  l   j            E        occ.                                          
     1  0  0.50    -19819.0341   2.0000                                         
     2  0  0.50     -2799.0127   2.0000                                         
     2  1  1.50     -2502.0276   6.0000                                         
     3  0  0.50      -476.4448   2.0000                                         
     3  1  1.50      -379.1496   6.0000                                         
     3  2  2.50      -220.9367  10.0000                                         
     4  0  0.50       -64.3378   2.0000                                         
     4  1  1.50       -38.4773   6.0000                                         
     4  2  2.50        -3.7535   5.0000                                         
     5  0  0.50        -4.0862   1.0000                                         
     5  1  0.50        -2.7701   0.0000                                         
     4  3  2.50        -1.3606   0.0000                                         
   Description                                                                  
     l       E           TYP  RCUT    TYP  RCUT                                 
     2     -3.7534765     23  2.500                                             
     2     -5.1140591     23  2.500                                             
     0     -4.0861560     23  2.600                                             
     0     13.6058260     23  2.600                                             
     1      5.4423304     23  2.750                                             
     1     27.2116520     23  2.750                                             
  local pseudopotential read in
  partial core-charges read in
  partial kinetic energy density read in
  atomic valenz-charges read in
  non local Contribution for L=           2  read in
    real space projection operators read in
  non local Contribution for L=           2  read in
    real space projection operators read in
  non local Contribution for L=           0  read in
    real space projection operators read in
  non local Contribution for L=           0  read in
    real space projection operators read in
  non local Contribution for L=           1  read in
    real space projection operators read in
  non local Contribution for L=           1  read in
    real space projection operators read in
    PAW grid and wavefunctions read in
 
   number of l-projection  operators is LMAX  =           6
   number of lm-projection operators is LMMAX =          18
 
 POTCAR:    PAW_PBE S 06Sep2000                   
   VRHFIN =S : s2p4                                                             
   LEXCH  = PE                                                                  
   EATOM  =   276.8230 eV,   20.3459 Ry                                         
                                                                                
   TITEL  = PAW_PBE S 06Sep2000                                                 
   LULTRA =        F    use ultrasoft PP ?                                      
   IUNSCR =        1    unscreen: 0-lin 1-nonlin 2-no                           
   RPACOR =    1.500    partial core radius                                     
   POMASS =   32.066; ZVAL   =    6.000    mass and valenz                      
   RCORE  =    1.900    outmost cutoff radius                                   
   RWIGS  =    2.200; RWIGS  =    1.164    wigner-seitz radius (au A)           
   ENMAX  =  258.689; ENMIN  =  194.016 eV                                      
   ICORE  =        2    local potential                                         
   LCOR   =        T    correct aug charges                                     
   LPAW   =        T    paw PP                                                  
   EAUG   =  335.092                                                            
   DEXC   =    0.000                                                            
   RMAX   =    1.942    core radius for proj-oper                               
   RAUG   =    1.300    factor for augmentation sphere                          
   RDEP   =    1.954    radius for radial grids                                 
   RDEPT  =    1.744    core radius for aug-charge                              
                                                                                
   Atomic configuration                                                         
    6 entries                                                                   
     n  l   j            E        occ.                                          
     1  0  0.50     -2405.8406   2.0000                                         
     2  0  0.50      -211.7007   2.0000                                         
     2  1  1.50      -156.4958   6.0000                                         
     3  0  0.50       -17.2562   2.0000                                         
     3  1  0.50        -7.0085   4.0000                                         
     3  2  1.50        -6.8029   0.0000                                         
   Description                                                                  
     l       E           TYP  RCUT    TYP  RCUT                                 
     0    -17.2561641     23  1.900                                             
     0    -15.8743224     23  1.900                                             
     1     -7.0085400     23  1.900                                             
     1     -2.7779785     23  1.900                                             
     2     -6.8029130     23  1.900                                             
  local pseudopotential read in
  partial core-charges read in
  partial kinetic energy density read in
  atomic valenz-charges read in
  non local Contribution for L=           0  read in
    real space projection operators read in
  non local Contribution for L=           0  read in
    real space projection operators read in
  non local Contribution for L=           1  read in
    real space projection operators read in
  non local Contribution for L=           1  read in
    real space projection operators read in
    PAW grid and wavefunctions read in
 
   number of l-projection  operators is LMAX  =           4
   number of lm-projection operators is LMMAX =           8
 
 POTCAR:    PAW_PBE Te 08Apr2002                  
   VRHFIN =Te: s2p4                                                             
   LEXCH  = PE                                                                  
   EATOM  =   223.2721 eV,   16.4100 Ry                                         
                                                                                
   TITEL  = PAW_PBE Te 08Apr2002                                                
   LULTRA =        F    use ultrasoft PP ?                                      
   IUNSCR =        1    unscreen: 0-lin 1-nonlin 2-no                           
   RPACOR =    2.200    partial core radius                                     
   POMASS =  127.600; ZVAL   =    6.000    mass and valenz                      
   RCORE  =    2.300    outmost cutoff radius                                   
   RWIGS  =    2.900; RWIGS  =    1.535    wigner-seitz radius (au A)           
   ENMAX  =  174.982; ENMIN  =  131.236 eV                                      
   ICORE  =        3    local potential                                         
   LCOR   =        T    correct aug charges                                     
   LPAW   =        T    paw PP                                                  
   EAUG   =  368.792                                                            
   DEXC   =    0.000                                                            
   RMAX   =    2.345    core radius for proj-oper                               
   RAUG   =    1.300    factor for augmentation sphere                          
   RDEP   =    2.397    radius for radial grids                                 
   RDEPT  =    2.174    core radius for aug-charge                              
                                                                                
   Atomic configuration                                                         
   13 entries                                                                   
     n  l   j            E        occ.                                          
     1  0  0.50    -31621.2075   2.0000                                         
     2  0  0.50     -4848.7941   2.0000                                         
     2  1  1.50     -4352.1960   6.0000                                         
     3  0  0.50      -964.9612   2.0000                                         
     3  1  1.50      -803.6179   6.0000                                         
     3  2  2.50      -559.8710  10.0000                                         
     4  0  0.50      -164.3522   2.0000                                         
     4  1  1.50      -114.3756   6.0000                                         
     4  2  2.50       -41.6483  10.0000                                         
     5  0  0.50       -15.1072   2.0000                                         
     5  1  0.50        -5.9526   4.0000                                         
     5  2  1.50        -5.4423   0.0000                                         
     4  3  2.50        -5.4423   0.0000                                         
   Description                                                                  
     l       E           TYP  RCUT    TYP  RCUT                                 
     0    -15.1072389     23  2.300                                             
     0    -16.4678215     23  2.300                                             
     1     -5.9526306     23  2.300                                             
     1     -2.4873968     23  2.300                                             
     2     -5.4423304     23  2.300                                             
     3     -1.3605826     23  2.300                                             
  local pseudopotential read in
  partial core-charges read in
  partial kinetic energy density read in
  atomic valenz-charges read in
  non local Contribution for L=           0  read in
    real space projection operators read in
  non local Contribution for L=           0  read in
    real space projection operators read in
  non local Contribution for L=           1  read in
    real space projection operators read in
  non local Contribution for L=           1  read in
    real space projection operators read in
  non local Contribution for L=           2  read in
    real space projection operators read in
    PAW grid and wavefunctions read in
 
   number of l-projection  operators is LMAX  =           5
   number of lm-projection operators is LMMAX =          13
 
  PAW_PBE Mo 08Apr2002                  :
 energy of atom  1       EATOM= -217.5176
 kinetic energy error for atom=    0.0005 (will be added to EATOM!!)
  PAW_PBE S 06Sep2000                   :
 energy of atom  2       EATOM= -276.8230
 kinetic energy error for atom=    0.0009 (will be added to EATOM!!)
  PAW_PBE Te 08Apr2002                  :
 energy of atom  3       EATOM= -223.2721
 kinetic energy error for atom=    0.0004 (will be added to EATOM!!)
 
 
 POSCAR: Generated by VASPKIT code               
  positions in direct lattice
  velocities in cartesian coordinates
 exchange correlation table for  LEXCH =        8
   RHO(1)=    0.500       N(1)  =     2000
   RHO(2)=  100.500       N(2)  =     4000
 


--------------------------------------------------------------------------------------------------------


 ion  position               nearest neighbor table
   1  0.500  0.167  0.507-   3 2.43   4 2.44   4 2.44   5 2.71   6 2.72   6 2.72   2 3.35   2 3.35
                             2 3.35   2 3.35
   2  0.000  0.667  0.507-   4 2.43   3 2.44   3 2.44   6 2.71   5 2.72   5 2.72   1 3.35   1 3.35
                             1 3.35   1 3.35
   3  0.500  0.833  0.580-   1 2.43   2 2.44   2 2.44
   4  0.000  0.333  0.580-   2 2.43   1 2.44   1 2.44
   5  0.500  0.833  0.413-   1 2.71   2 2.72   2 2.72   6 3.35   6 3.35   6 3.35   6 3.35
   6  0.000  0.333  0.413-   2 2.71   1 2.72   1 2.72   5 3.35   5 3.35   5 3.35   5 3.35
 

IMPORTANT INFORMATION: All symmetrisations will be switched off!
NOSYMM: (Re-)initialisation of all symmetry stuff for point group C_1.

 
 
 KPOINTS: K-Spacing Value to Generate K-Mesh: 0.01

Automatic generation of k-mesh.
Space group operators:
 irot       det(A)        alpha          n_x          n_y          n_z        tau_x        tau_y        tau_z
    1     1.000000     0.000000     1.000000     0.000000     0.000000     0.000000     0.000000     0.000000
 
 Subroutine IBZKPT returns following result:
 ===========================================
 
 Found    105 irreducible k-points:
 
 Following reciprocal coordinates:
            Coordinates               Weight
  0.000000  0.000000  0.000000      1.000000
  0.052632  0.000000  0.000000      2.000000
  0.105263  0.000000  0.000000      2.000000
  0.157895  0.000000  0.000000      2.000000
  0.210526  0.000000  0.000000      2.000000
  0.263158  0.000000  0.000000      2.000000
  0.315789  0.000000  0.000000      2.000000
  0.368421  0.000000  0.000000      2.000000
  0.421053  0.000000  0.000000      2.000000
  0.473684  0.000000  0.000000      2.000000
  0.000000  0.090909  0.000000      2.000000
  0.052632  0.090909  0.000000      2.000000
  0.105263  0.090909  0.000000      2.000000
  0.157895  0.090909  0.000000      2.000000
  0.210526  0.090909  0.000000      2.000000
  0.263158  0.090909  0.000000      2.000000
  0.315789  0.090909  0.000000      2.000000
  0.368421  0.090909  0.000000      2.000000
  0.421053  0.090909  0.000000      2.000000
  0.473684  0.090909  0.000000      2.000000
 -0.473684  0.090909  0.000000      2.000000
 -0.421053  0.090909  0.000000      2.000000
 -0.368421  0.090909  0.000000      2.000000
 -0.315789  0.090909  0.000000      2.000000
 -0.263158  0.090909  0.000000      2.000000
 -0.210526  0.090909  0.000000      2.000000
 -0.157895  0.090909  0.000000      2.000000
 -0.105263  0.090909  0.000000      2.000000
 -0.052632  0.090909  0.000000      2.000000
  0.000000  0.181818  0.000000      2.000000
  0.052632  0.181818  0.000000      2.000000
  0.105263  0.181818  0.000000      2.000000
  0.157895  0.181818  0.000000      2.000000
  0.210526  0.181818  0.000000      2.000000
  0.263158  0.181818  0.000000      2.000000
  0.315789  0.181818  0.000000      2.000000
  0.368421  0.181818  0.000000      2.000000
  0.421053  0.181818  0.000000      2.000000
  0.473684  0.181818  0.000000      2.000000
 -0.473684  0.181818  0.000000      2.000000
 -0.421053  0.181818  0.000000      2.000000
 -0.368421  0.181818  0.000000      2.000000
 -0.315789  0.181818  0.000000      2.000000
 -0.263158  0.181818  0.000000      2.000000
 -0.210526  0.181818  0.000000      2.000000
 -0.157895  0.181818  0.000000      2.000000
 -0.105263  0.181818  0.000000      2.000000
 -0.052632  0.181818  0.000000      2.000000
  0.000000  0.272727  0.000000      2.000000
  0.052632  0.272727  0.000000      2.000000
  0.105263  0.272727  0.000000      2.000000
  0.157895  0.272727  0.000000      2.000000
  0.210526  0.272727  0.000000      2.000000
  0.263158  0.272727  0.000000      2.000000
  0.315789  0.272727  0.000000      2.000000
  0.368421  0.272727  0.000000      2.000000
  0.421053  0.272727  0.000000      2.000000
  0.473684  0.272727  0.000000      2.000000
 -0.473684  0.272727  0.000000      2.000000
 -0.421053  0.272727  0.000000      2.000000
 -0.368421  0.272727  0.000000      2.000000
 -0.315789  0.272727  0.000000      2.000000
 -0.263158  0.272727  0.000000      2.000000
 -0.210526  0.272727  0.000000      2.000000
 -0.157895  0.272727  0.000000      2.000000
 -0.105263  0.272727  0.000000      2.000000
 -0.052632  0.272727  0.000000      2.000000
  0.000000  0.363636  0.000000      2.000000
  0.052632  0.363636  0.000000      2.000000
  0.105263  0.363636  0.000000      2.000000
  0.157895  0.363636  0.000000      2.000000
  0.210526  0.363636  0.000000      2.000000
  0.263158  0.363636  0.000000      2.000000
  0.315789  0.363636  0.000000      2.000000
  0.368421  0.363636  0.000000      2.000000
  0.421053  0.363636  0.000000      2.000000
  0.473684  0.363636  0.000000      2.000000
 -0.473684  0.363636  0.000000      2.000000
 -0.421053  0.363636  0.000000      2.000000
 -0.368421  0.363636  0.000000      2.000000
 -0.315789  0.363636  0.000000      2.000000
 -0.263158  0.363636  0.000000      2.000000
 -0.210526  0.363636  0.000000      2.000000
 -0.157895  0.363636  0.000000      2.000000
 -0.105263  0.363636  0.000000      2.000000
 -0.052632  0.363636  0.000000      2.000000
  0.000000  0.454545  0.000000      2.000000
  0.052632  0.454545  0.000000      2.000000
  0.105263  0.454545  0.000000      2.000000
  0.157895  0.454545  0.000000      2.000000
  0.210526  0.454545  0.000000      2.000000
  0.263158  0.454545  0.000000      2.000000
  0.315789  0.454545  0.000000      2.000000
  0.368421  0.454545  0.000000      2.000000
  0.421053  0.454545  0.000000      2.000000
  0.473684  0.454545  0.000000      2.000000
 -0.473684  0.454545  0.000000      2.000000
 -0.421053  0.454545  0.000000      2.000000
 -0.368421  0.454545  0.000000      2.000000
 -0.315789  0.454545  0.000000      2.000000
 -0.263158  0.454545  0.000000      2.000000
 -0.210526  0.454545  0.000000      2.000000
 -0.157895  0.454545  0.000000      2.000000
 -0.105263  0.454545  0.000000      2.000000
 -0.052632  0.454545  0.000000      2.000000
 
 Following cartesian coordinates:
            Coordinates               Weight
  0.000000  0.000000  0.000000      1.000000
  0.015647  0.000000  0.000000      2.000000
  0.031295  0.000000  0.000000      2.000000
  0.046942  0.000000  0.000000      2.000000
  0.062590  0.000000  0.000000      2.000000
  0.078237  0.000000  0.000000      2.000000
  0.093884  0.000000  0.000000      2.000000
  0.109532  0.000000  0.000000      2.000000
  0.125179  0.000000  0.000000      2.000000
  0.140827  0.000000  0.000000      2.000000
  0.000000  0.015667  0.000000      2.000000
  0.015647  0.015667  0.000000      2.000000
  0.031295  0.015667  0.000000      2.000000
  0.046942  0.015667  0.000000      2.000000
  0.062590  0.015667  0.000000      2.000000
  0.078237  0.015667  0.000000      2.000000
  0.093884  0.015667  0.000000      2.000000
  0.109532  0.015667  0.000000      2.000000
  0.125179  0.015667  0.000000      2.000000
  0.140827  0.015667  0.000000      2.000000
 -0.140827  0.015667  0.000000      2.000000
 -0.125179  0.015667  0.000000      2.000000
 -0.109532  0.015667  0.000000      2.000000
 -0.093884  0.015667  0.000000      2.000000
 -0.078237  0.015667  0.000000      2.000000
 -0.062590  0.015667  0.000000      2.000000
 -0.046942  0.015667  0.000000      2.000000
 -0.031295  0.015667  0.000000      2.000000
 -0.015647  0.015667  0.000000      2.000000
  0.000000  0.031334  0.000000      2.000000
  0.015647  0.031334  0.000000      2.000000
  0.031295  0.031334  0.000000      2.000000
  0.046942  0.031334  0.000000      2.000000
  0.062590  0.031334  0.000000      2.000000
  0.078237  0.031334  0.000000      2.000000
  0.093884  0.031334  0.000000      2.000000
  0.109532  0.031334  0.000000      2.000000
  0.125179  0.031334  0.000000      2.000000
  0.140827  0.031334  0.000000      2.000000
 -0.140827  0.031334  0.000000      2.000000
 -0.125179  0.031334  0.000000      2.000000
 -0.109532  0.031334  0.000000      2.000000
 -0.093884  0.031334  0.000000      2.000000
 -0.078237  0.031334  0.000000      2.000000
 -0.062590  0.031334  0.000000      2.000000
 -0.046942  0.031334  0.000000      2.000000
 -0.031295  0.031334  0.000000      2.000000
 -0.015647  0.031334  0.000000      2.000000
  0.000000  0.047001  0.000000      2.000000
  0.015647  0.047001  0.000000      2.000000
  0.031295  0.047001  0.000000      2.000000
  0.046942  0.047001  0.000000      2.000000
  0.062590  0.047001  0.000000      2.000000
  0.078237  0.047001  0.000000      2.000000
  0.093884  0.047001  0.000000      2.000000
  0.109532  0.047001  0.000000      2.000000
  0.125179  0.047001  0.000000      2.000000
  0.140827  0.047001  0.000000      2.000000
 -0.140827  0.047001  0.000000      2.000000
 -0.125179  0.047001  0.000000      2.000000
 -0.109532  0.047001  0.000000      2.000000
 -0.093884  0.047001  0.000000      2.000000
 -0.078237  0.047001  0.000000      2.000000
 -0.062590  0.047001  0.000000      2.000000
 -0.046942  0.047001  0.000000      2.000000
 -0.031295  0.047001  0.000000      2.000000
 -0.015647  0.047001  0.000000      2.000000
  0.000000  0.062668  0.000000      2.000000
  0.015647  0.062668  0.000000      2.000000
  0.031295  0.062668  0.000000      2.000000
  0.046942  0.062668  0.000000      2.000000
  0.062590  0.062668  0.000000      2.000000
  0.078237  0.062668  0.000000      2.000000
  0.093884  0.062668  0.000000      2.000000
  0.109532  0.062668  0.000000      2.000000
  0.125179  0.062668  0.000000      2.000000
  0.140827  0.062668  0.000000      2.000000
 -0.140827  0.062668  0.000000      2.000000
 -0.125179  0.062668  0.000000      2.000000
 -0.109532  0.062668  0.000000      2.000000
 -0.093884  0.062668  0.000000      2.000000
 -0.078237  0.062668  0.000000      2.000000
 -0.062590  0.062668  0.000000      2.000000
 -0.046942  0.062668  0.000000      2.000000
 -0.031295  0.062668  0.000000      2.000000
 -0.015647  0.062668  0.000000      2.000000
  0.000000  0.078334  0.000000      2.000000
  0.015647  0.078334  0.000000      2.000000
  0.031295  0.078334  0.000000      2.000000
  0.046942  0.078334  0.000000      2.000000
  0.062590  0.078334  0.000000      2.000000
  0.078237  0.078334  0.000000      2.000000
  0.093884  0.078334  0.000000      2.000000
  0.109532  0.078334  0.000000      2.000000
  0.125179  0.078334  0.000000      2.000000
  0.140827  0.078334  0.000000      2.000000
 -0.140827  0.078334  0.000000      2.000000
 -0.125179  0.078334  0.000000      2.000000
 -0.109532  0.078334  0.000000      2.000000
 -0.093884  0.078334  0.000000      2.000000
 -0.078237  0.078334  0.000000      2.000000
 -0.062590  0.078334  0.000000      2.000000
 -0.046942  0.078334  0.000000      2.000000
 -0.031295  0.078334  0.000000      2.000000
 -0.015647  0.078334  0.000000      2.000000
 


--------------------------------------------------------------------------------------------------------




 Dimension of arrays:
   k-points           NKPTS =    105   k-points in BZ     NKDIM =    105   number of bands    NBANDS=     24
   number of dos      NEDOS =    301   number of ions     NIONS =      6
   non local maximal  LDIM  =      6   non local SUM 2l+1 LMDIM =     18
   total plane-waves  NPLWV = 217728
   max r-space proj   IRMAX =      1   max aug-charges    IRDMAX=  35560
   dimension x,y,z NGX =    28 NGY =   48 NGZ =  162
   dimension x,y,z NGXF=    56 NGYF=   96 NGZF=  324
   support grid    NGXF=    56 NGYF=   96 NGZF=  324
   ions per type =               2   2   2
   NGX,Y,Z   is equivalent  to a cutoff of  13.84, 13.75, 13.30 a.u.
   NGXF,Y,Z  is equivalent  to a cutoff of  27.68, 27.50, 26.60 a.u.

 SYSTEM =  unknown system                          
 POSCAR =  Generated by VASPKIT code               

 Startparameter for this run:
   NWRITE =      2    write-flag & timer
   PREC   = accura    normal or accurate (medium, high low for compatibility)
   ISTART =      0    job   : 0-new  1-cont  2-samecut
   ICHARG =      2    charge: 1-file 2-atom 10-const
   ISPIN  =      1    spin polarized calculation?
   LNONCOLLINEAR =      F non collinear calculations
   LSORBIT =      F    spin-orbit coupling
   INIWAV =      1    electr: 0-lowe 1-rand  2-diag
   LASPH  =      F    aspherical Exc in radial PAW
   METAGGA=      F    non-selfconsistent MetaGGA calc.

 Electronic Relaxation 1
   ENCUT  =  600.0 eV  44.10 Ry    6.64 a.u.   6.72 11.59 40.45*2*pi/ulx,y,z
   ENINI  =  600.0     initial cutoff
   ENAUG  =  368.8 eV  augmentation charge cutoff
   NELM   =     60;   NELMIN=  2; NELMDL= -5     # of ELM steps 
   EDIFF  = 0.1E-06   stopping-criterion for ELM
   LREAL  =      F    real-space projection
   NLSPLINE    = F    spline interpolate recip. space projectors
   LCOMPAT=      F    compatible to vasp.4.4
   GGA_COMPAT  = T    GGA compatible to vasp.4.4-vasp.4.6
   LMAXPAW     = -100 max onsite density
   LMAXMIX     =    2 max onsite mixed and CHGCAR
   VOSKOWN=      0    Vosko Wilk Nusair interpolation
   ROPT   =    0.00000   0.00000   0.00000
 Ionic relaxation
   EDIFFG = -.1E-02   stopping-criterion for IOM
   NSW    =    100    number of steps for IOM
   NBLOCK =      1;   KBLOCK =    100    inner block; outer block 
   IBRION =      2    ionic relax: 0-MD 1-quasi-New 2-CG
   NFREE  =      1    steps in history (QN), initial steepest desc. (CG)
   ISIF   =      2    stress and relaxation
   IWAVPR =     11    prediction:  0-non 1-charg 2-wave 3-comb
   ISYM   =      0    0-nonsym 1-usesym 2-fastsym
   LCORR  =      T    Harris-Foulkes like correction to forces

   POTIM  = 0.5000    time-step for ionic-motion
   TEIN   =    0.0    initial temperature
   TEBEG  =    0.0;   TEEND  =   0.0 temperature during run
   SMASS  =  -3.00    Nose mass-parameter (am)
   estimated Nose-frequenzy (Omega)   =  0.10E-29 period in steps =****** mass=  -0.259E-27a.u.
   SCALEE = 1.0000    scale energy and forces
   NPACO  =    256;   APACO  = 16.0  distance and # of slots for P.C.
   PSTRESS=    0.0 pullay stress

  Mass of Ions in am
   POMASS =  95.94 32.07127.60
  Ionic Valenz
   ZVAL   =   6.00  6.00  6.00
  Atomic Wigner-Seitz radii
   RWIGS  =  -1.00 -1.00 -1.00
  virtual crystal weights 
   VCA    =   1.00  1.00  1.00
   NELECT =      36.0000    total number of electrons
   NUPDOWN=      -1.0000    fix difference up-down

 DOS related values:
   EMIN   =  10.00;   EMAX   =-10.00  energy-range for DOS
   EFERMI =   0.00
   ISMEAR =     0;   SIGMA  =   0.10  broadening in eV -4-tet -1-fermi 0-gaus

 Electronic relaxation 2 (details)
   IALGO  =     38    algorithm
   LDIAG  =      T    sub-space diagonalisation (order eigenvalues)
   LSUBROT=      F    optimize rotation matrix (better conditioning)
   TURBO    =      0    0=normal 1=particle mesh
   IRESTART =      0    0=no restart 2=restart with 2 vectors
   NREBOOT  =      0    no. of reboots
   NMIN     =      0    reboot dimension
   EREF     =   0.00    reference energy to select bands
   IMIX   =      4    mixing-type and parameters
     AMIX     =   0.40;   BMIX     =  1.00
     AMIX_MAG =   1.60;   BMIX_MAG =  1.00
     AMIN     =   0.10
     WC   =   100.;   INIMIX=   1;  MIXPRE=   1;  MAXMIX= -45

 Intra band minimization:
   WEIMIN = 0.0010     energy-eigenvalue tresh-hold
   EBREAK =  0.10E-08  absolut break condition
   DEPER  =   0.30     relativ break condition  

   TIME   =   0.40     timestep for ELM

  volume/ion in A,a.u.               =      65.88       444.58
  Fermi-wavevector in a.u.,A,eV,Ry     =   0.736556  1.391890  7.381368  0.542515
  Thomas-Fermi vector in A             =   1.830024
 
 Write flags
   LWAVE        =      F    write WAVECAR
   LDOWNSAMPLE  =      F    k-point downsampling of WAVECAR
   LCHARG       =      T    write CHGCAR
   LVTOT        =      F    write LOCPOT, total local potential
   LVHAR        =      F    write LOCPOT, Hartree potential only
   LELF         =      F    write electronic localiz. function (ELF)
   LORBIT       =      0    0 simple, 1 ext, 2 COOP (PROOUT), +10 PAW based schemes


 Dipole corrections
   LMONO  =      F    monopole corrections only (constant potential shift)
   LDIPOL =      T    correct potential (dipole corrections)
   IDIPOL =      3    1-x, 2-y, 3-z, 4-all directions 
   EPSILON=  1.0000000 bulk dielectric constant

 Exchange correlation treatment:
   GGA     =    PE    GGA type
   LEXCH   =     8    internal setting for exchange type
   VOSKOWN=      0    Vosko Wilk Nusair interpolation
   LHFCALC =     F    Hartree Fock is set to
   LHFONE  =     F    Hartree Fock one center treatment
   AEXX    =    0.0000 exact exchange contribution

 Linear response parameters
   LEPSILON=     F    determine dielectric tensor
   LRPA    =     F    only Hartree local field effects (RPA)
   LNABLA  =     F    use nabla operator in PAW spheres
   LVEL    =     F    velocity operator in full k-point grid
   LINTERFAST=   F  fast interpolation
   KINTER  =     0    interpolate to denser k-point grid
   CSHIFT  =0.1000    complex shift for real part using Kramers Kronig
   OMEGAMAX=  -1.0    maximum frequency
   DEG_THRESHOLD= 0.2000000E-02 threshold for treating states as degnerate
   RTIME   =   -0.100 relaxation time in fs
  (WPLASMAI=    0.000 imaginary part of plasma frequency in eV, 0.658/RTIME)
   DFIELD  = 0.0000000 0.0000000 0.0000000 field for delta impulse in time
 
 Orbital magnetization related:
   ORBITALMAG=     F  switch on orbital magnetization
   LCHIMAG   =     F  perturbation theory with respect to B field
   DQ        =  0.001000  dq finite difference perturbation B field
   LLRAUG    =     F  two centre corrections for induced B field



--------------------------------------------------------------------------------------------------------


 conjugate gradient relaxation of ions
 charge density and potential will be updated during run
 non-spin polarized calculation
 Variant of blocked Davidson
 Davidson routine will perform the subspace rotation
 perform sub-space diagonalisation
    after iterative eigenvector-optimisation
 modified Broyden-mixing scheme, WC =      100.0
 initial mixing is a Kerker type mixing with AMIX =  0.4000 and BMIX =      1.0000
 Hartree-type preconditioning will be used
 using additional bands            6
 reciprocal scheme for non local part
 use partial core corrections
 calculate Harris-corrections to forces 
   (improved forces if not selfconsistent)
 use gradient corrections 
 use of overlap-Matrix (Vanderbilt PP)
 Gauss-broadening in eV      SIGMA  =   0.10


--------------------------------------------------------------------------------------------------------


  energy-cutoff  :      600.00
  volume of cell :      395.28
      direct lattice vectors                 reciprocal lattice vectors
     3.363599539  0.000000000  0.000000000     0.297300552  0.000000000  0.000000000
     0.000000000  5.802622124  0.000000000     0.000000000  0.172335882  0.000000000
     0.000000000  0.000000000 20.252588272     0.000000000  0.000000000  0.049376405

  length of vectors
     3.363599539  5.802622124 20.252588272     0.297300552  0.172335882  0.049376405


 
 k-points in units of 2pi/SCALE and weight: K-Spacing Value to Generate K-Mesh: 0.01
   0.00000000  0.00000000  0.00000000       0.005
   0.01564740  0.00000000  0.00000000       0.010
   0.03129479  0.00000000  0.00000000       0.010
   0.04694219  0.00000000  0.00000000       0.010
   0.06258959  0.00000000  0.00000000       0.010
   0.07823699  0.00000000  0.00000000       0.010
   0.09388438  0.00000000  0.00000000       0.010
   0.10953178  0.00000000  0.00000000       0.010
   0.12517918  0.00000000  0.00000000       0.010
   0.14082658  0.00000000  0.00000000       0.010
   0.00000000  0.01566690  0.00000000       0.010
   0.01564740  0.01566690  0.00000000       0.010
   0.03129479  0.01566690  0.00000000       0.010
   0.04694219  0.01566690  0.00000000       0.010
   0.06258959  0.01566690  0.00000000       0.010
   0.07823699  0.01566690  0.00000000       0.010
   0.09388438  0.01566690  0.00000000       0.010
   0.10953178  0.01566690  0.00000000       0.010
   0.12517918  0.01566690  0.00000000       0.010
   0.14082658  0.01566690  0.00000000       0.010
  -0.14082658  0.01566690  0.00000000       0.010
  -0.12517918  0.01566690  0.00000000       0.010
  -0.10953178  0.01566690  0.00000000       0.010
  -0.09388438  0.01566690  0.00000000       0.010
  -0.07823699  0.01566690  0.00000000       0.010
  -0.06258959  0.01566690  0.00000000       0.010
  -0.04694219  0.01566690  0.00000000       0.010
  -0.03129479  0.01566690  0.00000000       0.010
  -0.01564740  0.01566690  0.00000000       0.010
   0.00000000  0.03133380  0.00000000       0.010
   0.01564740  0.03133380  0.00000000       0.010
   0.03129479  0.03133380  0.00000000       0.010
   0.04694219  0.03133380  0.00000000       0.010
   0.06258959  0.03133380  0.00000000       0.010
   0.07823699  0.03133380  0.00000000       0.010
   0.09388438  0.03133380  0.00000000       0.010
   0.10953178  0.03133380  0.00000000       0.010
   0.12517918  0.03133380  0.00000000       0.010
   0.14082658  0.03133380  0.00000000       0.010
  -0.14082658  0.03133380  0.00000000       0.010
  -0.12517918  0.03133380  0.00000000       0.010
  -0.10953178  0.03133380  0.00000000       0.010
  -0.09388438  0.03133380  0.00000000       0.010
  -0.07823699  0.03133380  0.00000000       0.010
  -0.06258959  0.03133380  0.00000000       0.010
  -0.04694219  0.03133380  0.00000000       0.010
  -0.03129479  0.03133380  0.00000000       0.010
  -0.01564740  0.03133380  0.00000000       0.010
   0.00000000  0.04700070  0.00000000       0.010
   0.01564740  0.04700070  0.00000000       0.010
   0.03129479  0.04700070  0.00000000       0.010
   0.04694219  0.04700070  0.00000000       0.010
   0.06258959  0.04700070  0.00000000       0.010
   0.07823699  0.04700070  0.00000000       0.010
   0.09388438  0.04700070  0.00000000       0.010
   0.10953178  0.04700070  0.00000000       0.010
   0.12517918  0.04700070  0.00000000       0.010
   0.14082658  0.04700070  0.00000000       0.010
  -0.14082658  0.04700070  0.00000000       0.010
  -0.12517918  0.04700070  0.00000000       0.010
  -0.10953178  0.04700070  0.00000000       0.010
  -0.09388438  0.04700070  0.00000000       0.010
  -0.07823699  0.04700070  0.00000000       0.010
  -0.06258959  0.04700070  0.00000000       0.010
  -0.04694219  0.04700070  0.00000000       0.010
  -0.03129479  0.04700070  0.00000000       0.010
  -0.01564740  0.04700070  0.00000000       0.010
   0.00000000  0.06266759  0.00000000       0.010
   0.01564740  0.06266759  0.00000000       0.010
   0.03129479  0.06266759  0.00000000       0.010
   0.04694219  0.06266759  0.00000000       0.010
   0.06258959  0.06266759  0.00000000       0.010
   0.07823699  0.06266759  0.00000000       0.010
   0.09388438  0.06266759  0.00000000       0.010
   0.10953178  0.06266759  0.00000000       0.010
   0.12517918  0.06266759  0.00000000       0.010
   0.14082658  0.06266759  0.00000000       0.010
  -0.14082658  0.06266759  0.00000000       0.010
  -0.12517918  0.06266759  0.00000000       0.010
  -0.10953178  0.06266759  0.00000000       0.010
  -0.09388438  0.06266759  0.00000000       0.010
  -0.07823699  0.06266759  0.00000000       0.010
  -0.06258959  0.06266759  0.00000000       0.010
  -0.04694219  0.06266759  0.00000000       0.010
  -0.03129479  0.06266759  0.00000000       0.010
  -0.01564740  0.06266759  0.00000000       0.010
   0.00000000  0.07833449  0.00000000       0.010
   0.01564740  0.07833449  0.00000000       0.010
   0.03129479  0.07833449  0.00000000       0.010
   0.04694219  0.07833449  0.00000000       0.010
   0.06258959  0.07833449  0.00000000       0.010
   0.07823699  0.07833449  0.00000000       0.010
   0.09388438  0.07833449  0.00000000       0.010
   0.10953178  0.07833449  0.00000000       0.010
   0.12517918  0.07833449  0.00000000       0.010
   0.14082658  0.07833449  0.00000000       0.010
  -0.14082658  0.07833449  0.00000000       0.010
  -0.12517918  0.07833449  0.00000000       0.010
  -0.10953178  0.07833449  0.00000000       0.010
  -0.09388438  0.07833449  0.00000000       0.010
  -0.07823699  0.07833449  0.00000000       0.010
  -0.06258959  0.07833449  0.00000000       0.010
  -0.04694219  0.07833449  0.00000000       0.010
  -0.03129479  0.07833449  0.00000000       0.010
  -0.01564740  0.07833449  0.00000000       0.010
 
 k-points in reciprocal lattice and weights: K-Spacing Value to Generate K-Mesh: 0.01
   0.00000000  0.00000000  0.00000000       0.005
   0.05263158  0.00000000  0.00000000       0.010
   0.10526316  0.00000000  0.00000000       0.010
   0.15789474  0.00000000  0.00000000       0.010
   0.21052632  0.00000000  0.00000000       0.010
   0.26315789  0.00000000  0.00000000       0.010
   0.31578947  0.00000000  0.00000000       0.010
   0.36842105  0.00000000  0.00000000       0.010
   0.42105263  0.00000000  0.00000000       0.010
   0.47368421  0.00000000  0.00000000       0.010
   0.00000000  0.09090909  0.00000000       0.010
   0.05263158  0.09090909  0.00000000       0.010
   0.10526316  0.09090909  0.00000000       0.010
   0.15789474  0.09090909  0.00000000       0.010
   0.21052632  0.09090909  0.00000000       0.010
   0.26315789  0.09090909  0.00000000       0.010
   0.31578947  0.09090909  0.00000000       0.010
   0.36842105  0.09090909  0.00000000       0.010
   0.42105263  0.09090909  0.00000000       0.010
   0.47368421  0.09090909  0.00000000       0.010
  -0.47368421  0.09090909  0.00000000       0.010
  -0.42105263  0.09090909  0.00000000       0.010
  -0.36842105  0.09090909  0.00000000       0.010
  -0.31578947  0.09090909  0.00000000       0.010
  -0.26315789  0.09090909  0.00000000       0.010
  -0.21052632  0.09090909  0.00000000       0.010
  -0.15789474  0.09090909  0.00000000       0.010
  -0.10526316  0.09090909  0.00000000       0.010
  -0.05263158  0.09090909  0.00000000       0.010
   0.00000000  0.18181818  0.00000000       0.010
   0.05263158  0.18181818  0.00000000       0.010
   0.10526316  0.18181818  0.00000000       0.010
   0.15789474  0.18181818  0.00000000       0.010
   0.21052632  0.18181818  0.00000000       0.010
   0.26315789  0.18181818  0.00000000       0.010
   0.31578947  0.18181818  0.00000000       0.010
   0.36842105  0.18181818  0.00000000       0.010
   0.42105263  0.18181818  0.00000000       0.010
   0.47368421  0.18181818  0.00000000       0.010
  -0.47368421  0.18181818  0.00000000       0.010
  -0.42105263  0.18181818  0.00000000       0.010
  -0.36842105  0.18181818  0.00000000       0.010
  -0.31578947  0.18181818  0.00000000       0.010
  -0.26315789  0.18181818  0.00000000       0.010
  -0.21052632  0.18181818  0.00000000       0.010
  -0.15789474  0.18181818  0.00000000       0.010
  -0.10526316  0.18181818  0.00000000       0.010
  -0.05263158  0.18181818  0.00000000       0.010
   0.00000000  0.27272727  0.00000000       0.010
   0.05263158  0.27272727  0.00000000       0.010
   0.10526316  0.27272727  0.00000000       0.010
   0.15789474  0.27272727  0.00000000       0.010
   0.21052632  0.27272727  0.00000000       0.010
   0.26315789  0.27272727  0.00000000       0.010
   0.31578947  0.27272727  0.00000000       0.010
   0.36842105  0.27272727  0.00000000       0.010
   0.42105263  0.27272727  0.00000000       0.010
   0.47368421  0.27272727  0.00000000       0.010
  -0.47368421  0.27272727  0.00000000       0.010
  -0.42105263  0.27272727  0.00000000       0.010
  -0.36842105  0.27272727  0.00000000       0.010
  -0.31578947  0.27272727  0.00000000       0.010
  -0.26315789  0.27272727  0.00000000       0.010
  -0.21052632  0.27272727  0.00000000       0.010
  -0.15789474  0.27272727  0.00000000       0.010
  -0.10526316  0.27272727  0.00000000       0.010
  -0.05263158  0.27272727  0.00000000       0.010
   0.00000000  0.36363636  0.00000000       0.010
   0.05263158  0.36363636  0.00000000       0.010
   0.10526316  0.36363636  0.00000000       0.010
   0.15789474  0.36363636  0.00000000       0.010
   0.21052632  0.36363636  0.00000000       0.010
   0.26315789  0.36363636  0.00000000       0.010
   0.31578947  0.36363636  0.00000000       0.010
   0.36842105  0.36363636  0.00000000       0.010
   0.42105263  0.36363636  0.00000000       0.010
   0.47368421  0.36363636  0.00000000       0.010
  -0.47368421  0.36363636  0.00000000       0.010
  -0.42105263  0.36363636  0.00000000       0.010
  -0.36842105  0.36363636  0.00000000       0.010
  -0.31578947  0.36363636  0.00000000       0.010
  -0.26315789  0.36363636  0.00000000       0.010
  -0.21052632  0.36363636  0.00000000       0.010
  -0.15789474  0.36363636  0.00000000       0.010
  -0.10526316  0.36363636  0.00000000       0.010
  -0.05263158  0.36363636  0.00000000       0.010
   0.00000000  0.45454545  0.00000000       0.010
   0.05263158  0.45454545  0.00000000       0.010
   0.10526316  0.45454545  0.00000000       0.010
   0.15789474  0.45454545  0.00000000       0.010
   0.21052632  0.45454545  0.00000000       0.010
   0.26315789  0.45454545  0.00000000       0.010
   0.31578947  0.45454545  0.00000000       0.010
   0.36842105  0.45454545  0.00000000       0.010
   0.42105263  0.45454545  0.00000000       0.010
   0.47368421  0.45454545  0.00000000       0.010
  -0.47368421  0.45454545  0.00000000       0.010
  -0.42105263  0.45454545  0.00000000       0.010
  -0.36842105  0.45454545  0.00000000       0.010
  -0.31578947  0.45454545  0.00000000       0.010
  -0.26315789  0.45454545  0.00000000       0.010
  -0.21052632  0.45454545  0.00000000       0.010
  -0.15789474  0.45454545  0.00000000       0.010
  -0.10526316  0.45454545  0.00000000       0.010
  -0.05263158  0.45454545  0.00000000       0.010
 
 position of ions in fractional coordinates (direct lattice) 
   0.49999997  0.16666654  0.50703967
   0.00000000  0.66666651  0.50703967
   0.49999997  0.83333325  0.57974952
   0.00000000  0.33333322  0.57974952
   0.50000000  0.83333325  0.41321075
   0.00000000  0.33333325  0.41321075
 
 position of ions in cartesian coordinates  (Angst):
   1.68179967  0.96710294 10.26886559
   0.00000000  3.86841383 10.26886559
   1.68179967  4.83551798 11.74142843
   0.00000000  1.93420674 11.74142843
   1.68179977  4.83551798  8.36858719
   0.00000000  1.93420691  8.36858719
 


--------------------------------------------------------------------------------------------------------


 k-point  1 :   0.0000 0.0000 0.0000  plane waves:   13235
 k-point  2 :   0.0526 0.0000 0.0000  plane waves:   13249
 k-point  3 :   0.1053 0.0000 0.0000  plane waves:   13217
 k-point  4 :   0.1579 0.0000 0.0000  plane waves:   13201
 k-point  5 :   0.2105 0.0000 0.0000  plane waves:   13205
 k-point  6 :   0.2632 0.0000 0.0000  plane waves:   13179
 k-point  7 :   0.3158 0.0000 0.0000  plane waves:   13198
 k-point  8 :   0.3684 0.0000 0.0000  plane waves:   13198
 k-point  9 :   0.4211 0.0000 0.0000  plane waves:   13202
 k-point 10 :   0.4737 0.0000 0.0000  plane waves:   13182
 k-point 11 :   0.0000 0.0909 0.0000  plane waves:   13235
 k-point 12 :   0.0526 0.0909 0.0000  plane waves:   13219
 k-point 13 :   0.1053 0.0909 0.0000  plane waves:   13213
 k-point 14 :   0.1579 0.0909 0.0000  plane waves:   13203
 k-point 15 :   0.2105 0.0909 0.0000  plane waves:   13213
 k-point 16 :   0.2632 0.0909 0.0000  plane waves:   13186
 k-point 17 :   0.3158 0.0909 0.0000  plane waves:   13175
 k-point 18 :   0.3684 0.0909 0.0000  plane waves:   13186
 k-point 19 :   0.4211 0.0909 0.0000  plane waves:   13197
 k-point 20 :   0.4737 0.0909 0.0000  plane waves:   13189
 k-point 21 :  -0.4737 0.0909 0.0000  plane waves:   13189
 k-point 22 :  -0.4211 0.0909 0.0000  plane waves:   13197
 k-point 23 :  -0.3684 0.0909 0.0000  plane waves:   13186
 k-point 24 :  -0.3158 0.0909 0.0000  plane waves:   13175
 k-point 25 :  -0.2632 0.0909 0.0000  plane waves:   13186
 k-point 26 :  -0.2105 0.0909 0.0000  plane waves:   13213
 k-point 27 :  -0.1579 0.0909 0.0000  plane waves:   13203
 k-point 28 :  -0.1053 0.0909 0.0000  plane waves:   13213
 k-point 29 :  -0.0526 0.0909 0.0000  plane waves:   13219
 k-point 30 :   0.0000 0.1818 0.0000  plane waves:   13225
 k-point 31 :   0.0526 0.1818 0.0000  plane waves:   13231
 k-point 32 :   0.1053 0.1818 0.0000  plane waves:   13206
 k-point 33 :   0.1579 0.1818 0.0000  plane waves:   13191
 k-point 34 :   0.2105 0.1818 0.0000  plane waves:   13185
 k-point 35 :   0.2632 0.1818 0.0000  plane waves:   13165
 k-point 36 :   0.3158 0.1818 0.0000  plane waves:   13185
 k-point 37 :   0.3684 0.1818 0.0000  plane waves:   13200
 k-point 38 :   0.4211 0.1818 0.0000  plane waves:   13200
 k-point 39 :   0.4737 0.1818 0.0000  plane waves:   13195
 k-point 40 :  -0.4737 0.1818 0.0000  plane waves:   13195
 k-point 41 :  -0.4211 0.1818 0.0000  plane waves:   13200
 k-point 42 :  -0.3684 0.1818 0.0000  plane waves:   13200
 k-point 43 :  -0.3158 0.1818 0.0000  plane waves:   13185
 k-point 44 :  -0.2632 0.1818 0.0000  plane waves:   13165
 k-point 45 :  -0.2105 0.1818 0.0000  plane waves:   13185
 k-point 46 :  -0.1579 0.1818 0.0000  plane waves:   13191
 k-point 47 :  -0.1053 0.1818 0.0000  plane waves:   13206
 k-point 48 :  -0.0526 0.1818 0.0000  plane waves:   13231
 k-point 49 :   0.0000 0.2727 0.0000  plane waves:   13195
 k-point 50 :   0.0526 0.2727 0.0000  plane waves:   13200
 k-point 51 :   0.1053 0.2727 0.0000  plane waves:   13200
 k-point 52 :   0.1579 0.2727 0.0000  plane waves:   13204
 k-point 53 :   0.2105 0.2727 0.0000  plane waves:   13201
 k-point 54 :   0.2632 0.2727 0.0000  plane waves:   13191
 k-point 55 :   0.3158 0.2727 0.0000  plane waves:   13170
 k-point 56 :   0.3684 0.2727 0.0000  plane waves:   13181
 k-point 57 :   0.4211 0.2727 0.0000  plane waves:   13189
 k-point 58 :   0.4737 0.2727 0.0000  plane waves:   13190
 k-point 59 :  -0.4737 0.2727 0.0000  plane waves:   13190
 k-point 60 :  -0.4211 0.2727 0.0000  plane waves:   13189
 k-point 61 :  -0.3684 0.2727 0.0000  plane waves:   13181
 k-point 62 :  -0.3158 0.2727 0.0000  plane waves:   13170
 k-point 63 :  -0.2632 0.2727 0.0000  plane waves:   13191
 k-point 64 :  -0.2105 0.2727 0.0000  plane waves:   13201
 k-point 65 :  -0.1579 0.2727 0.0000  plane waves:   13204
 k-point 66 :  -0.1053 0.2727 0.0000  plane waves:   13200
 k-point 67 :  -0.0526 0.2727 0.0000  plane waves:   13200
 k-point 68 :   0.0000 0.3636 0.0000  plane waves:   13177
 k-point 69 :   0.0526 0.3636 0.0000  plane waves:   13180
 k-point 70 :   0.1053 0.3636 0.0000  plane waves:   13191
 k-point 71 :   0.1579 0.3636 0.0000  plane waves:   13183
 k-point 72 :   0.2105 0.3636 0.0000  plane waves:   13184
 k-point 73 :   0.2632 0.3636 0.0000  plane waves:   13161
 k-point 74 :   0.3158 0.3636 0.0000  plane waves:   13164
 k-point 75 :   0.3684 0.3636 0.0000  plane waves:   13173
 k-point 76 :   0.4211 0.3636 0.0000  plane waves:   13189
 k-point 77 :   0.4737 0.3636 0.0000  plane waves:   13202
 k-point 78 :  -0.4737 0.3636 0.0000  plane waves:   13202
 k-point 79 :  -0.4211 0.3636 0.0000  plane waves:   13189
 k-point 80 :  -0.3684 0.3636 0.0000  plane waves:   13173
 k-point 81 :  -0.3158 0.3636 0.0000  plane waves:   13164
 k-point 82 :  -0.2632 0.3636 0.0000  plane waves:   13161
 k-point 83 :  -0.2105 0.3636 0.0000  plane waves:   13184
 k-point 84 :  -0.1579 0.3636 0.0000  plane waves:   13183
 k-point 85 :  -0.1053 0.3636 0.0000  plane waves:   13191
 k-point 86 :  -0.0526 0.3636 0.0000  plane waves:   13180
 k-point 87 :   0.0000 0.4545 0.0000  plane waves:   13204
 k-point 88 :   0.0526 0.4545 0.0000  plane waves:   13173
 k-point 89 :   0.1053 0.4545 0.0000  plane waves:   13149
 k-point 90 :   0.1579 0.4545 0.0000  plane waves:   13163
 k-point 91 :   0.2105 0.4545 0.0000  plane waves:   13174
 k-point 92 :   0.2632 0.4545 0.0000  plane waves:   13169
 k-point 93 :   0.3158 0.4545 0.0000  plane waves:   13175
 k-point 94 :   0.3684 0.4545 0.0000  plane waves:   13187
 k-point 95 :   0.4211 0.4545 0.0000  plane waves:   13194
 k-point 96 :   0.4737 0.4545 0.0000  plane waves:   13238
 k-point 97 :  -0.4737 0.4545 0.0000  plane waves:   13238
 k-point 98 :  -0.4211 0.4545 0.0000  plane waves:   13194
 k-point 99 :  -0.3684 0.4545 0.0000  plane waves:   13187
 k-point ** :  -0.3158 0.4545 0.0000  plane waves:   13175
 k-point ** :  -0.2632 0.4545 0.0000  plane waves:   13169
 k-point ** :  -0.2105 0.4545 0.0000  plane waves:   13174
 k-point ** :  -0.1579 0.4545 0.0000  plane waves:   13163
 k-point ** :  -0.1053 0.4545 0.0000  plane waves:   13149
 k-point ** :  -0.0526 0.4545 0.0000  plane waves:   13173

 maximum and minimum number of plane-waves per node :       570      537

 maximum number of plane-waves:     13249
 maximum index in each direction: 
   IXMAX=    7   IYMAX=   11   IZMAX=   40
   IXMIN=   -7   IYMIN=  -12   IZMIN=  -40


 parallel 3D FFT for wavefunctions:
    minimum data exchange during FFTs selected (reduces bandwidth)
 parallel 3D FFT for charge:
    minimum data exchange during FFTs selected (reduces bandwidth)


 total amount of memory used by VASP MPI-rank0    62837. kBytes
=======================================================================

   base      :      30000. kBytes
   nonl-proj :      25819. kBytes
   fftplans  :       1397. kBytes
   grid      :       2623. kBytes
   one-center:         15. kBytes
   wavefun   :       2983. kBytes
 
     INWAV:  cpu time    0.0000: real time    0.0000
 Broyden mixing: mesh for mixing (old mesh)
   NGX = 13   NGY = 23   NGZ = 81
  (NGX  = 56   NGY  = 96   NGZ  =324)
  gives a total of  24219 points

 initial charge density was supplied:
 charge density of overlapping atoms calculated
 number of electron      36.0000000 magnetization 
 keeping initial charge density in first step


--------------------------------------------------------------------------------------------------------


 Maximum index for augmentation-charges         1257 (set IRDMAX)


--------------------------------------------------------------------------------------------------------


 First call to EWALD:  gamma=   0.242
 Maximum number of real-space cells 5x 3x 1
 Maximum number of reciprocal cells 2x 2x 7

    FEWALD:  cpu time    0.0015: real time    0.0015


--------------------------------------- Iteration      1(   1)  ---------------------------------------


    POTLOK:  cpu time    0.0207: real time    0.0391
    SETDIJ:  cpu time    0.0055: real time    0.0055
     EDDAV:  cpu time    1.1902: real time    1.1989
       DOS:  cpu time    0.0017: real time    0.0017
    --------------------------------------------
      LOOP:  cpu time    1.2180: real time    1.2452

 eigenvalue-minimisations  :  5040
 total energy-change (2. order) : 0.2735791E+03  (-0.1303311E+04)
 number of electron      36.0000000 magnetization 
 augmentation part       36.0000000 magnetization 

 DIPCOR: dipole corrections for dipol
 direction  3 min pos     1,
 dipolmoment           0.000000      0.000000      0.000002 electrons x Angstroem
 Tr[quadrupol]      -123.900603

 energy correction for charged system         0.000000 eV
 dipol+quadrupol energy correction           -0.000000 eV
 added-field ion interaction          0.000000 eV  (added to PSCEN)


 Free energy of the ion-electron system (eV)
  ---------------------------------------------------
  alpha Z        PSCENC =        26.20911271
  Ewald energy   TEWEN  =      4201.63698050
  -Hartree energ DENC   =     -5522.75888111
  -exchange      EXHF   =         0.00000000
  -V(xc)+E(xc)   XCENC  =      -153.02872117
  PAW double counting   =      1381.62273368    -1155.94054365
  entropy T*S    EENTRO =        -0.01838042
  eigenvalues    EBANDS =        60.63507205
  atomic energy  EATOM  =      1435.22174307
  Solvation  Ediel_sol  =         0.00000000
  ---------------------------------------------------
  free energy    TOTEN  =       273.57911567 eV

  energy without entropy =      273.59749608  energy(sigma->0) =      273.58830587


--------------------------------------------------------------------------------------------------------




--------------------------------------- Iteration      1(   2)  ---------------------------------------


     EDDAV:  cpu time    1.3991: real time    1.3994
       DOS:  cpu time    0.0015: real time    0.0015
    --------------------------------------------
      LOOP:  cpu time    1.4006: real time    1.4009

 eigenvalue-minimisations  :  7856
 total energy-change (2. order) :-0.2804964E+03  (-0.2727068E+03)
 number of electron      36.0000000 magnetization 
 augmentation part       36.0000000 magnetization 

 DIPCOR: dipole corrections for dipol
 direction  3 min pos     1,
 dipolmoment           0.000000      0.000000      0.000002 electrons x Angstroem
 Tr[quadrupol]      -123.900603

 energy correction for charged system         0.000000 eV
 dipol+quadrupol energy correction           -0.000000 eV
 added-field ion interaction          0.000000 eV  (added to PSCEN)


 Free energy of the ion-electron system (eV)
  ---------------------------------------------------
  alpha Z        PSCENC =        26.20911271
  Ewald energy   TEWEN  =      4201.63698050
  -Hartree energ DENC   =     -5522.75888111
  -exchange      EXHF   =         0.00000000
  -V(xc)+E(xc)   XCENC  =      -153.02872117
  PAW double counting   =      1381.62273368    -1155.94054365
  entropy T*S    EENTRO =        -0.00113503
  eigenvalues    EBANDS =      -219.87858278
  atomic energy  EATOM  =      1435.22174307
  Solvation  Ediel_sol  =         0.00000000
  ---------------------------------------------------
  free energy    TOTEN  =        -6.91729378 eV

  energy without entropy =       -6.91615875  energy(sigma->0) =       -6.91672626


--------------------------------------------------------------------------------------------------------




--------------------------------------- Iteration      1(   3)  ---------------------------------------


     EDDAV:  cpu time    1.2839: real time    1.2844
       DOS:  cpu time    0.0011: real time    0.0011
    --------------------------------------------
      LOOP:  cpu time    1.2849: real time    1.2855

 eigenvalue-minimisations  :  6688
 total energy-change (2. order) :-0.3383528E+02  (-0.3355422E+02)
 number of electron      36.0000000 magnetization 
 augmentation part       36.0000000 magnetization 

 DIPCOR: dipole corrections for dipol
 direction  3 min pos     1,
 dipolmoment           0.000000      0.000000      0.000002 electrons x Angstroem
 Tr[quadrupol]      -123.900603

 energy correction for charged system         0.000000 eV
 dipol+quadrupol energy correction           -0.000000 eV
 added-field ion interaction          0.000000 eV  (added to PSCEN)


 Free energy of the ion-electron system (eV)
  ---------------------------------------------------
  alpha Z        PSCENC =        26.20911271
  Ewald energy   TEWEN  =      4201.63698050
  -Hartree energ DENC   =     -5522.75888111
  -exchange      EXHF   =         0.00000000
  -V(xc)+E(xc)   XCENC  =      -153.02872117
  PAW double counting   =      1381.62273368    -1155.94054365
  entropy T*S    EENTRO =        -0.00000000
  eigenvalues    EBANDS =      -253.71499947
  atomic energy  EATOM  =      1435.22174307
  Solvation  Ediel_sol  =         0.00000000
  ---------------------------------------------------
  free energy    TOTEN  =       -40.75257544 eV

  energy without entropy =      -40.75257544  energy(sigma->0) =      -40.75257544


--------------------------------------------------------------------------------------------------------




--------------------------------------- Iteration      1(   4)  ---------------------------------------


     EDDAV:  cpu time    1.3319: real time    1.3322
       DOS:  cpu time    0.0011: real time    0.0011
    --------------------------------------------
      LOOP:  cpu time    1.3330: real time    1.3333

 eigenvalue-minimisations  :  7176
 total energy-change (2. order) :-0.1116990E+01  (-0.1111195E+01)
 number of electron      36.0000000 magnetization 
 augmentation part       36.0000000 magnetization 

 DIPCOR: dipole corrections for dipol
 direction  3 min pos     1,
 dipolmoment           0.000000      0.000000      0.000002 electrons x Angstroem
 Tr[quadrupol]      -123.900603

 energy correction for charged system         0.000000 eV
 dipol+quadrupol energy correction           -0.000000 eV
 added-field ion interaction          0.000000 eV  (added to PSCEN)


 Free energy of the ion-electron system (eV)
  ---------------------------------------------------
  alpha Z        PSCENC =        26.20911271
  Ewald energy   TEWEN  =      4201.63698050
  -Hartree energ DENC   =     -5522.75888111
  -exchange      EXHF   =         0.00000000
  -V(xc)+E(xc)   XCENC  =      -153.02872117
  PAW double counting   =      1381.62273368    -1155.94054365
  entropy T*S    EENTRO =        -0.00000000
  eigenvalues    EBANDS =      -254.83198908
  atomic energy  EATOM  =      1435.22174307
  Solvation  Ediel_sol  =         0.00000000
  ---------------------------------------------------
  free energy    TOTEN  =       -41.86956505 eV

  energy without entropy =      -41.86956505  energy(sigma->0) =      -41.86956505


--------------------------------------------------------------------------------------------------------




--------------------------------------- Iteration      1(   5)  ---------------------------------------


     EDDAV:  cpu time    1.3589: real time    1.3593
       DOS:  cpu time    0.0011: real time    0.0011
    CHARGE:  cpu time    0.0434: real time    0.0435
    MIXING:  cpu time    0.0004: real time    0.0004
    --------------------------------------------
      LOOP:  cpu time    1.4039: real time    1.4043

 eigenvalue-minimisations  :  7632
 total energy-change (2. order) :-0.3830494E-01  (-0.3827892E-01)
 number of electron      36.0000000 magnetization 
 augmentation part       -2.3336034 magnetization 

 DIPCOR: dipole corrections for dipol
 direction  3 min pos     1,
 dipolmoment           0.000000      0.000000      0.000002 electrons x Angstroem
 Tr[quadrupol]      -123.900603

 energy correction for charged system         0.000000 eV
 dipol+quadrupol energy correction           -0.000000 eV
 added-field ion interaction          0.000000 eV  (added to PSCEN)


 Broyden mixing:
  rms(total) = 0.27188E+01    rms(broyden)= 0.27188E+01
  rms(prec ) = 0.27588E+01
  weight for this iteration     100.00

 Free energy of the ion-electron system (eV)
  ---------------------------------------------------
  alpha Z        PSCENC =        26.20911271
  Ewald energy   TEWEN  =      4201.63698050
  -Hartree energ DENC   =     -5522.75888111
  -exchange      EXHF   =         0.00000000
  -V(xc)+E(xc)   XCENC  =      -153.02872117
  PAW double counting   =      1381.62273368    -1155.94054365
  entropy T*S    EENTRO =        -0.00000000
  eigenvalues    EBANDS =      -254.87029402
  atomic energy  EATOM  =      1435.22174307
  Solvation  Ediel_sol  =         0.00000000
  ---------------------------------------------------
  free energy    TOTEN  =       -41.90786999 eV

  energy without entropy =      -41.90786999  energy(sigma->0) =      -41.90786999


--------------------------------------------------------------------------------------------------------




--------------------------------------- Iteration      1(   6)  ---------------------------------------


    POTLOK:  cpu time    0.0126: real time    0.0126
    SETDIJ:  cpu time    0.0020: real time    0.0020
     EDDAV:  cpu time    1.3049: real time    1.3061
       DOS:  cpu time    0.0015: real time    0.0015
    CHARGE:  cpu time    0.0429: real time    0.0429
    MIXING:  cpu time    0.0003: real time    0.0003
    --------------------------------------------
      LOOP:  cpu time    1.3642: real time    1.3654

 eigenvalue-minimisations  :  7144
 total energy-change (2. order) : 0.1942522E+01  (-0.1172898E+01)
 number of electron      36.0000000 magnetization 
 augmentation part       -1.4210314 magnetization 

 DIPCOR: dipole corrections for dipol
 direction  3 min pos     1,
 dipolmoment           0.000000      0.000000      0.189601 electrons x Angstroem
 Tr[quadrupol]      -123.948636

 energy correction for charged system         0.000000 eV
 dipol+quadrupol energy correction           -0.008228 eV
 added-field ion interaction          0.000001 eV  (added to PSCEN)


 Broyden mixing:
  rms(total) = 0.11775E+01    rms(broyden)= 0.11775E+01
  rms(prec ) = 0.12097E+01
  weight for this iteration     100.00

 eigenvalues of (default mixing * dielectric matrix)
  average eigenvalue GAMMA=   1.2212
  1.2212

 Free energy of the ion-electron system (eV)
  ---------------------------------------------------
  alpha Z        PSCENC =        26.20088569
  Ewald energy   TEWEN  =      4201.63698050
  -Hartree energ DENC   =     -5522.43106671
  -exchange      EXHF   =         0.00000000
  -V(xc)+E(xc)   XCENC  =      -151.76567532
  PAW double counting   =      1941.40820393    -1717.23300529
  entropy T*S    EENTRO =        -0.00000010
  eigenvalues    EBANDS =      -253.00341331
  atomic energy  EATOM  =      1435.22174307
  Solvation  Ediel_sol  =         0.00000000
  ---------------------------------------------------
  free energy    TOTEN  =       -39.96534753 eV

  energy without entropy =      -39.96534743  energy(sigma->0) =      -39.96534748


--------------------------------------------------------------------------------------------------------




--------------------------------------- Iteration      1(   7)  ---------------------------------------


    POTLOK:  cpu time    0.0122: real time    0.0122
    SETDIJ:  cpu time    0.0020: real time    0.0020
     EDDAV:  cpu time    1.3064: real time    1.3068
       DOS:  cpu time    0.0012: real time    0.0012
    CHARGE:  cpu time    0.0424: real time    0.0424
    MIXING:  cpu time    0.0004: real time    0.0004
    --------------------------------------------
      LOOP:  cpu time    1.3647: real time    1.3650

 eigenvalue-minimisations  :  6856
 total energy-change (2. order) : 0.1866490E+00  (-0.6691420E+00)
 number of electron      36.0000000 magnetization 
 augmentation part       -2.0153197 magnetization 

 DIPCOR: dipole corrections for dipol
 direction  3 min pos     1,
 dipolmoment           0.000000      0.000000      0.184103 electrons x Angstroem
 Tr[quadrupol]      -124.715190

 energy correction for charged system         0.000000 eV
 dipol+quadrupol energy correction           -0.007758 eV
 added-field ion interaction          0.000001 eV  (added to PSCEN)


 Broyden mixing:
  rms(total) = 0.72548E+00    rms(broyden)= 0.72548E+00
  rms(prec ) = 0.75794E+00
  weight for this iteration     100.00

 eigenvalues of (default mixing * dielectric matrix)
  average eigenvalue GAMMA=   1.2091
  1.8026  0.6156

 Free energy of the ion-electron system (eV)
  ---------------------------------------------------
  alpha Z        PSCENC =        26.20135595
  Ewald energy   TEWEN  =      4201.63698050
  -Hartree energ DENC   =     -5537.70196403
  -exchange      EXHF   =         0.00000000
  -V(xc)+E(xc)   XCENC  =      -151.92913216
  PAW double counting   =      2490.91628548    -2267.36278352
  entropy T*S    EENTRO =        -0.00000000
  eigenvalues    EBANDS =      -236.76118382
  atomic energy  EATOM  =      1435.22174307
  Solvation  Ediel_sol  =         0.00000000
  ---------------------------------------------------
  free energy    TOTEN  =       -39.77869852 eV

  energy without entropy =      -39.77869852  energy(sigma->0) =      -39.77869852


--------------------------------------------------------------------------------------------------------




--------------------------------------- Iteration      1(   8)  ---------------------------------------


    POTLOK:  cpu time    0.0122: real time    0.0122
    SETDIJ:  cpu time    0.0021: real time    0.0021
     EDDAV:  cpu time    1.2801: real time    1.2805
       DOS:  cpu time    0.0011: real time    0.0011
    CHARGE:  cpu time    0.0427: real time    0.0429
    MIXING:  cpu time    0.0004: real time    0.0003
    --------------------------------------------
      LOOP:  cpu time    1.3385: real time    1.3391

 eigenvalue-minimisations  :  6856
 total energy-change (2. order) : 0.3383154E+00  (-0.1509011E+00)
 number of electron      36.0000000 magnetization 
 augmentation part       -1.7192330 magnetization 

 DIPCOR: dipole corrections for dipol
 direction  3 min pos     1,
 dipolmoment           0.000000      0.000000      0.136346 electrons x Angstroem
 Tr[quadrupol]      -124.684008

 energy correction for charged system         0.000000 eV
 dipol+quadrupol energy correction           -0.004255 eV
 added-field ion interaction          0.000001 eV  (added to PSCEN)


 Broyden mixing:
  rms(total) = 0.26462E+00    rms(broyden)= 0.26462E+00
  rms(prec ) = 0.27049E+00
  weight for this iteration     100.00

 eigenvalues of (default mixing * dielectric matrix)
  average eigenvalue GAMMA=   1.1005
  2.0538  0.6567  0.5909

 Free energy of the ion-electron system (eV)
  ---------------------------------------------------
  alpha Z        PSCENC =        26.20485846
  Ewald energy   TEWEN  =      4201.63698050
  -Hartree energ DENC   =     -5535.53688826
  -exchange      EXHF   =         0.00000000
  -V(xc)+E(xc)   XCENC  =      -151.45567603
  PAW double counting   =      2840.26346299    -2617.26494570
  entropy T*S    EENTRO =        -0.00000000
  eigenvalues    EBANDS =      -238.50991814
  atomic energy  EATOM  =      1435.22174307
  Solvation  Ediel_sol  =         0.00000000
  ---------------------------------------------------
  free energy    TOTEN  =       -39.44038310 eV

  energy without entropy =      -39.44038310  energy(sigma->0) =      -39.44038310


--------------------------------------------------------------------------------------------------------




--------------------------------------- Iteration      1(   9)  ---------------------------------------


    POTLOK:  cpu time    0.0122: real time    0.0122
    SETDIJ:  cpu time    0.0020: real time    0.0020
     EDDAV:  cpu time    1.2668: real time    1.2671
       DOS:  cpu time    0.0011: real time    0.0011
    CHARGE:  cpu time    0.0426: real time    0.0426
    MIXING:  cpu time    0.0004: real time    0.0004
    --------------------------------------------
      LOOP:  cpu time    1.3252: real time    1.3255

 eigenvalue-minimisations  :  6624
 total energy-change (2. order) : 0.1522068E-01  (-0.1040348E-01)
 number of electron      36.0000000 magnetization 
 augmentation part       -1.7114143 magnetization 

 DIPCOR: dipole corrections for dipol
 direction  3 min pos     1,
 dipolmoment           0.000000      0.000000      0.164054 electrons x Angstroem
 Tr[quadrupol]      -124.790871

 energy correction for charged system         0.000000 eV
 dipol+quadrupol energy correction           -0.006160 eV
 added-field ion interaction          0.000001 eV  (added to PSCEN)


 Broyden mixing:
  rms(total) = 0.98284E-01    rms(broyden)= 0.98284E-01
  rms(prec ) = 0.10083E+00
  weight for this iteration     100.00

 eigenvalues of (default mixing * dielectric matrix)
  average eigenvalue GAMMA=   1.1554
  2.0180  0.9985  0.9985  0.6067

 Free energy of the ion-electron system (eV)
  ---------------------------------------------------
  alpha Z        PSCENC =        26.20295350
  Ewald energy   TEWEN  =      4201.63698050
  -Hartree energ DENC   =     -5537.83985415
  -exchange      EXHF   =         0.00000000
  -V(xc)+E(xc)   XCENC  =      -151.34781434
  PAW double counting   =      2965.99412737    -2743.16953689
  entropy T*S    EENTRO =        -0.00000000
  eigenvalues    EBANDS =      -236.12376148
  atomic energy  EATOM  =      1435.22174307
  Solvation  Ediel_sol  =         0.00000000
  ---------------------------------------------------
  free energy    TOTEN  =       -39.42516242 eV

  energy without entropy =      -39.42516242  energy(sigma->0) =      -39.42516242


--------------------------------------------------------------------------------------------------------




--------------------------------------- Iteration      1(  10)  ---------------------------------------


    POTLOK:  cpu time    0.0121: real time    0.0121
    SETDIJ:  cpu time    0.0020: real time    0.0019
     EDDAV:  cpu time    1.3423: real time    1.3426
       DOS:  cpu time    0.0010: real time    0.0010
    CHARGE:  cpu time    0.0428: real time    0.0428
    MIXING:  cpu time    0.0004: real time    0.0004
    --------------------------------------------
      LOOP:  cpu time    1.4006: real time    1.4009

 eigenvalue-minimisations  :  7400
 total energy-change (2. order) : 0.2687787E-02  (-0.2189539E-02)
 number of electron      36.0000000 magnetization 
 augmentation part       -1.7313739 magnetization 

 DIPCOR: dipole corrections for dipol
 direction  3 min pos     1,
 dipolmoment           0.000000      0.000000      0.167418 electrons x Angstroem
 Tr[quadrupol]      -124.869853

 energy correction for charged system         0.000000 eV
 dipol+quadrupol energy correction           -0.006416 eV
 added-field ion interaction          0.000001 eV  (added to PSCEN)


 Broyden mixing:
  rms(total) = 0.83246E-01    rms(broyden)= 0.83246E-01
  rms(prec ) = 0.84308E-01
  weight for this iteration     100.00

 eigenvalues of (default mixing * dielectric matrix)
  average eigenvalue GAMMA=   1.3290
  2.1790  2.1790  1.0435  0.6217  0.6217

 Free energy of the ion-electron system (eV)
  ---------------------------------------------------
  alpha Z        PSCENC =        26.20269828
  Ewald energy   TEWEN  =      4201.63698050
  -Hartree energ DENC   =     -5539.71101090
  -exchange      EXHF   =         0.00000000
  -V(xc)+E(xc)   XCENC  =      -151.30550526
  PAW double counting   =      2988.70105629    -2765.93630490
  entropy T*S    EENTRO =        -0.00000000
  eigenvalues    EBANDS =      -234.23213171
  atomic energy  EATOM  =      1435.22174307
  Solvation  Ediel_sol  =         0.00000000
  ---------------------------------------------------
  free energy    TOTEN  =       -39.42247463 eV

  energy without entropy =      -39.42247463  energy(sigma->0) =      -39.42247463


--------------------------------------------------------------------------------------------------------




--------------------------------------- Iteration      1(  11)  ---------------------------------------


    POTLOK:  cpu time    0.0121: real time    0.0121
    SETDIJ:  cpu time    0.0020: real time    0.0020
     EDDAV:  cpu time    1.3759: real time    1.3764
       DOS:  cpu time    0.0012: real time    0.0012
    CHARGE:  cpu time    0.0429: real time    0.0429
    MIXING:  cpu time    0.0005: real time    0.0005
    --------------------------------------------
      LOOP:  cpu time    1.4347: real time    1.4352

 eigenvalue-minimisations  :  7376
 total energy-change (2. order) : 0.1330117E-02  (-0.3796207E-03)
 number of electron      36.0000000 magnetization 
 augmentation part       -1.7248169 magnetization 

 DIPCOR: dipole corrections for dipol
 direction  3 min pos     1,
 dipolmoment           0.000000      0.000000      0.159454 electrons x Angstroem
 Tr[quadrupol]      -124.940507

 energy correction for charged system         0.000000 eV
 dipol+quadrupol energy correction           -0.005820 eV
 added-field ion interaction          0.000001 eV  (added to PSCEN)


 Broyden mixing:
  rms(total) = 0.47597E-01    rms(broyden)= 0.47597E-01
  rms(prec ) = 0.49172E-01
  weight for this iteration     100.00

 eigenvalues of (default mixing * dielectric matrix)
  average eigenvalue GAMMA=   1.3128
  2.3590  2.3590  1.0455  0.6140  0.7497  0.7497

 Free energy of the ion-electron system (eV)
  ---------------------------------------------------
  alpha Z        PSCENC =        26.20329411
  Ewald energy   TEWEN  =      4201.63698050
  -Hartree energ DENC   =     -5541.21100300
  -exchange      EXHF   =         0.00000000
  -V(xc)+E(xc)   XCENC  =      -151.26472880
  PAW double counting   =      3006.88086638    -2784.16097825
  entropy T*S    EENTRO =        -0.00000000
  eigenvalues    EBANDS =      -232.72731853
  atomic energy  EATOM  =      1435.22174307
  Solvation  Ediel_sol  =         0.00000000
  ---------------------------------------------------
  free energy    TOTEN  =       -39.42114451 eV

  energy without entropy =      -39.42114451  energy(sigma->0) =      -39.42114451


--------------------------------------------------------------------------------------------------------




--------------------------------------- Iteration      1(  12)  ---------------------------------------


    POTLOK:  cpu time    0.0123: real time    0.0123
    SETDIJ:  cpu time    0.0020: real time    0.0020
     EDDAV:  cpu time    1.3202: real time    1.3205
       DOS:  cpu time    0.0011: real time    0.0011
    CHARGE:  cpu time    0.0426: real time    0.0426
    MIXING:  cpu time    0.0005: real time    0.0005
    --------------------------------------------
      LOOP:  cpu time    1.3787: real time    1.3791

 eigenvalue-minimisations  :  7160
 total energy-change (2. order) : 0.8400193E-03  (-0.3680456E-03)
 number of electron      36.0000000 magnetization 
 augmentation part       -1.7288386 magnetization 

 DIPCOR: dipole corrections for dipol
 direction  3 min pos     1,
 dipolmoment           0.000000      0.000000      0.164491 electrons x Angstroem
 Tr[quadrupol]      -125.004520

 energy correction for charged system         0.000000 eV
 dipol+quadrupol energy correction           -0.006193 eV
 added-field ion interaction          0.000001 eV  (added to PSCEN)


 Broyden mixing:
  rms(total) = 0.15394E-01    rms(broyden)= 0.15394E-01
  rms(prec ) = 0.17189E-01
  weight for this iteration     100.00

 eigenvalues of (default mixing * dielectric matrix)
  average eigenvalue GAMMA=   1.2499
  2.3055  2.3055  1.1452  0.8816  0.8816  0.6152  0.6152

 Free energy of the ion-electron system (eV)
  ---------------------------------------------------
  alpha Z        PSCENC =        26.20292063
  Ewald energy   TEWEN  =      4201.63698050
  -Hartree energ DENC   =     -5542.64920800
  -exchange      EXHF   =         0.00000000
  -V(xc)+E(xc)   XCENC  =      -151.24328959
  PAW double counting   =      3005.70430662    -2782.99577528
  entropy T*S    EENTRO =        -0.00000000
  eigenvalues    EBANDS =      -231.29798245
  atomic energy  EATOM  =      1435.22174307
  Solvation  Ediel_sol  =         0.00000000
  ---------------------------------------------------
  free energy    TOTEN  =       -39.42030450 eV

  energy without entropy =      -39.42030450  energy(sigma->0) =      -39.42030450


--------------------------------------------------------------------------------------------------------




--------------------------------------- Iteration      1(  13)  ---------------------------------------


    POTLOK:  cpu time    0.0122: real time    0.0122
    SETDIJ:  cpu time    0.0020: real time    0.0020
     EDDAV:  cpu time    1.3022: real time    1.3025
       DOS:  cpu time    0.0011: real time    0.0011
    CHARGE:  cpu time    0.0425: real time    0.0425
    MIXING:  cpu time    0.0005: real time    0.0005
    --------------------------------------------
      LOOP:  cpu time    1.3606: real time    1.3609

 eigenvalue-minimisations  :  7056
 total energy-change (2. order) : 0.1275115E-03  (-0.2060164E-03)
 number of electron      36.0000000 magnetization 
 augmentation part       -1.7220233 magnetization 

 DIPCOR: dipole corrections for dipol
 direction  3 min pos     1,
 dipolmoment           0.000000      0.000000      0.163694 electrons x Angstroem
 Tr[quadrupol]      -125.030661

 energy correction for charged system         0.000000 eV
 dipol+quadrupol energy correction           -0.006133 eV
 added-field ion interaction          0.000001 eV  (added to PSCEN)


 Broyden mixing:
  rms(total) = 0.11467E-01    rms(broyden)= 0.11467E-01
  rms(prec ) = 0.13314E-01
  weight for this iteration     100.00

 eigenvalues of (default mixing * dielectric matrix)
  average eigenvalue GAMMA=   1.2152
  2.3366  2.3366  1.5517  1.1002  0.7189  0.6630  0.6630  0.3520

 Free energy of the ion-electron system (eV)
  ---------------------------------------------------
  alpha Z        PSCENC =        26.20298052
  Ewald energy   TEWEN  =      4201.63698050
  -Hartree energ DENC   =     -5543.17184987
  -exchange      EXHF   =         0.00000000
  -V(xc)+E(xc)   XCENC  =      -151.23062464
  PAW double counting   =      3006.28828250    -2783.58122799
  entropy T*S    EENTRO =        -0.00000000
  eigenvalues    EBANDS =      -230.78646108
  atomic energy  EATOM  =      1435.22174307
  Solvation  Ediel_sol  =         0.00000000
  ---------------------------------------------------
  free energy    TOTEN  =       -39.42017698 eV

  energy without entropy =      -39.42017698  energy(sigma->0) =      -39.42017698


--------------------------------------------------------------------------------------------------------




--------------------------------------- Iteration      1(  14)  ---------------------------------------


    POTLOK:  cpu time    0.0125: real time    0.0125
    SETDIJ:  cpu time    0.0020: real time    0.0020
     EDDAV:  cpu time    1.3132: real time    1.3136
       DOS:  cpu time    0.0011: real time    0.0011
    CHARGE:  cpu time    0.0443: real time    0.0443
[...]
     12      -4.4332      2.00000
     13      -3.4836      2.00000
     14      -3.4641      2.00000
     15      -2.6441      2.00000
     16      -2.3375      2.00000
     17      -2.0891      2.00000
     18      -1.9287      2.00000
     19       0.0942      0.00000
     20       0.1376      0.00000
     21       0.2059      0.00000
     22       0.3240      0.00000
     23       1.7026      0.00000
     24       1.7166      0.00000

 k-point    96 :       0.4737    0.4545    0.0000
  band No.  band energies     occupation 
      1     -13.7111      2.00000
      2     -13.6966      2.00000
      3     -12.2681      2.00000
      4     -12.2254      2.00000
      5      -7.4564      2.00000
      6      -7.4194      2.00000
      7      -6.2659      2.00000
      8      -6.2513      2.00000
      9      -5.2339      2.00000
     10      -5.2336      2.00000
     11      -4.4821      2.00000
     12      -4.4631      2.00000
     13      -3.4872      2.00000
     14      -3.4826      2.00000
     15      -2.3965      2.00000
     16      -2.2523      2.00000
     17      -2.0528      2.00000
     18      -1.9583      2.00000
     19       0.1227      0.00000
     20       0.1428      0.00000
     21       0.2667      0.00000
     22       0.3218      0.00000
     23       1.6898      0.00000
     24       1.6946      0.00000

 k-point    97 :      -0.4737    0.4545    0.0000
  band No.  band energies     occupation 
      1     -13.7111      2.00000
      2     -13.6966      2.00000
      3     -12.2681      2.00000
      4     -12.2254      2.00000
      5      -7.4564      2.00000
      6      -7.4194      2.00000
      7      -6.2659      2.00000
      8      -6.2513      2.00000
      9      -5.2339      2.00000
     10      -5.2336      2.00000
     11      -4.4821      2.00000
     12      -4.4631      2.00000
     13      -3.4872      2.00000
     14      -3.4826      2.00000
     15      -2.3965      2.00000
     16      -2.2523      2.00000
     17      -2.0528      2.00000
     18      -1.9583      2.00000
     19       0.1227      0.00000
     20       0.1428      0.00000
     21       0.2667      0.00000
     22       0.3218      0.00000
     23       1.6898      0.00000
     24       1.6946      0.00000

 k-point    98 :      -0.4211    0.4545    0.0000
  band No.  band energies     occupation 
      1     -13.7594      2.00000
      2     -13.7159      2.00000
      3     -12.4095      2.00000
      4     -12.2905      2.00000
      5      -7.3033      2.00000
      6      -7.2036      2.00000
      7      -6.2181      2.00000
      8      -6.1725      2.00000
      9      -5.2292      2.00000
     10      -5.2257      2.00000
     11      -4.4953      2.00000
     12      -4.4332      2.00000
     13      -3.4836      2.00000
     14      -3.4641      2.00000
     15      -2.6441      2.00000
     16      -2.3375      2.00000
     17      -2.0891      2.00000
     18      -1.9287      2.00000
     19       0.0942      0.00000
     20       0.1376      0.00000
     21       0.2059      0.00000
     22       0.3240      0.00000
     23       1.7026      0.00000
     24       1.7166      0.00000

 k-point    99 :      -0.3684    0.4545    0.0000
  band No.  band energies     occupation 
      1     -13.8380      2.00000
      2     -13.7660      2.00000
      3     -12.6133      2.00000
      4     -12.4386      2.00000
      5      -7.0035      2.00000
      6      -6.8704      2.00000
      7      -6.1041      2.00000
      8      -6.0207      2.00000
      9      -5.2300      2.00000
     10      -5.2131      2.00000
     11      -4.5242      2.00000
     12      -4.4125      2.00000
     13      -3.4465      2.00000
     14      -3.4062      2.00000
     15      -2.9298      2.00000
     16      -2.5641      2.00000
     17      -2.0889      2.00000
     18      -1.9583      2.00000
     19       0.0217      0.00000
     20       0.0241      0.00000
     21       0.2494      0.00000
     22       0.3130      0.00000
     23       1.5953      0.00000
     24       1.6366      0.00000

 k-point   100 :      -0.3158    0.4545    0.0000
  band No.  band energies     occupation 
      1     -13.9407      2.00000
      2     -13.8408      2.00000
      3     -12.8382      2.00000
      4     -12.6294      2.00000
      5      -6.6467      2.00000
      6      -6.5196      2.00000
      7      -5.9123      2.00000
      8      -5.7828      2.00000
      9      -5.2355      2.00000
     10      -5.2095      2.00000
     11      -4.5697      2.00000
     12      -4.4189      2.00000
     13      -3.3502      2.00000
     14      -3.3230      2.00000
     15      -3.1698      2.00000
     16      -2.7990      2.00000
     17      -2.0877      2.00000
     18      -2.0042      2.00000
     19      -0.1060      0.00000
     20      -0.1053      0.00000
     21       0.3152      0.00000
     22       0.3272      0.00000
     23       1.3817      0.00000
     24       1.4525      0.00000

 k-point   101 :      -0.2632    0.4545    0.0000
  band No.  band energies     occupation 
      1     -14.0586      2.00000
      2     -13.9318      2.00000
      3     -13.0527      2.00000
      4     -12.8262      2.00000
      5      -6.3463      2.00000
      6      -6.2525      2.00000
      7      -5.6459      2.00000
      8      -5.5382      2.00000
      9      -5.2221      2.00000
     10      -5.1551      2.00000
     11      -4.5922      2.00000
     12      -4.4355      2.00000
     13      -3.4219      2.00000
     14      -3.2156      2.00000
     15      -3.1300      2.00000
     16      -2.9907      2.00000
     17      -2.0504      2.00000
     18      -2.0236      2.00000
     19      -0.2358      0.00000
     20      -0.2105      0.00000
     21       0.3499      0.00000
     22       0.3774      0.00000
     23       1.1749      0.00000
     24       1.2183      0.00000

 k-point   102 :      -0.2105    0.4545    0.0000
  band No.  band energies     occupation 
      1     -14.1804      2.00000
      2     -14.0287      2.00000
      3     -13.2374      2.00000
      4     -13.0045      2.00000
      5      -6.1664      2.00000
      6      -6.1159      2.00000
      7      -5.4662      2.00000
      8      -5.4588      2.00000
      9      -5.1495      2.00000
     10      -4.8456      2.00000
     11      -4.5653      2.00000
     12      -4.4310      2.00000
     13      -3.4590      2.00000
     14      -3.1544      2.00000
     15      -3.0472      2.00000
     16      -3.0440      2.00000
     17      -1.9982      2.00000
     18      -1.9692      2.00000
     19      -0.3137      0.00000
     20      -0.2513      0.00000
     21       0.3679      0.00000
     22       0.4348      0.00000
     23       1.0116      0.00000
     24       1.0258      0.00000

 k-point   103 :      -0.1579    0.4545    0.0000
  band No.  band energies     occupation 
      1     -14.2928      2.00000
      2     -14.1200      2.00000
      3     -13.3833      2.00000
      4     -13.1500      2.00000
      5      -6.1123      2.00000
      6      -6.1063      2.00000
      7      -5.4532      2.00000
      8      -5.4118      2.00000
      9      -4.9453      2.00000
     10      -4.5376      2.00000
     11      -4.5099      2.00000
     12      -4.3826      2.00000
     13      -3.3110      2.00000
     14      -3.1798      2.00000
     15      -3.0421      2.00000
     16      -2.9531      2.00000
     17      -1.9644      2.00000
     18      -1.8896      2.00000
     19      -0.3027      0.00000
     20      -0.2032      0.00000
     21       0.3897      0.00000
     22       0.5043      0.00000
     23       0.8944      0.00000
     24       0.9786      0.00000

 k-point   104 :      -0.1053    0.4545    0.0000
  band No.  band energies     occupation 
      1     -14.3833      2.00000
      2     -14.1946      2.00000
      3     -13.4876      2.00000
      4     -13.2561      2.00000
      5      -6.1771      2.00000
      6      -6.1287      2.00000
      7      -5.4589      2.00000
      8      -5.3431      2.00000
      9      -4.8216      2.00000
     10      -4.3991      2.00000
     11      -4.3939      2.00000
     12      -4.2564      2.00000
     13      -3.1664      2.00000
     14      -3.1532      2.00000
     15      -2.9995      2.00000
     16      -2.8521      2.00000
     17      -1.9900      2.00000
     18      -1.8746      2.00000
     19      -0.2201      0.00000
     20      -0.0974      0.00000
     21       0.4389      0.00000
     22       0.6031      0.00000
     23       0.9090      0.00000
     24       1.0496      0.00000

 k-point   105 :      -0.0526    0.4545    0.0000
  band No.  band energies     occupation 
      1     -14.4419      2.00000
      2     -14.2433      2.00000
      3     -13.5498      2.00000
      4     -13.3202      2.00000
      5      -6.2386      2.00000
      6      -6.1710      2.00000
      7      -5.4561      2.00000
      8      -5.2962      2.00000
      9      -4.7950      2.00000
     10      -4.3470      2.00000
     11      -4.2402      2.00000
     12      -4.1344      2.00000
     13      -3.2510      2.00000
     14      -3.1699      2.00000
     15      -2.7353      2.00000
     16      -2.7313      2.00000
     17      -2.0925      2.00000
     18      -1.9221      2.00000
     19      -0.1417      0.00000
     20      -0.0153      0.00000
     21       0.5159      0.00000
     22       0.7121      0.00000
     23       1.0119      0.00000
     24       1.1776      0.00000


--------------------------------------------------------------------------------------------------------


 soft charge-density along one line, spin component           1
         0         1         2         3         4         5         6         7         8         9
 total charge-density along one line
 
 pseudopotential strength for first ion, spin component:           1
 -9.494   0.000   0.000  -0.002  -0.000  -9.685   0.000   0.000
  0.000  -9.502  -0.000  -0.000  -0.002   0.000  -9.693  -0.000
  0.000  -0.000  -9.491   0.000   0.001   0.000  -0.000  -9.682
 -0.002  -0.000   0.000  -9.503   0.000  -0.002  -0.000   0.000
 -0.000  -0.002   0.001   0.000  -9.494  -0.000  -0.002   0.001
 -9.685   0.000   0.000  -0.002  -0.000  -9.865   0.000   0.000
  0.000  -9.693  -0.000  -0.000  -0.002   0.000  -9.873  -0.000
  0.000  -0.000  -9.682   0.000   0.001   0.000  -0.000  -9.862
 -0.002  -0.000   0.000  -9.694   0.000  -0.002  -0.000   0.000
 -0.000  -0.002   0.001   0.000  -9.684  -0.000  -0.002   0.001
  0.000  -0.000   0.001  -0.000   0.000   0.000  -0.000   0.001
  0.000  -0.000   0.002  -0.000   0.001   0.000  -0.000   0.002
 -0.000  -0.029   0.000   0.000   0.007  -0.000  -0.029   0.000
  0.000  -0.000  -0.030  -0.000  -0.000   0.000  -0.000  -0.030
  0.007   0.000   0.000  -0.029  -0.000   0.007   0.000   0.000
 -0.000  -0.035   0.000   0.000   0.008  -0.000  -0.036   0.000
  0.000  -0.000  -0.038  -0.000  -0.000   0.000  -0.000  -0.038
  0.008   0.000   0.000  -0.035  -0.000   0.008   0.000   0.000
 total augmentation occupancy for first ion, spin component:           1
  2.105  -0.000  -0.000   0.434  -0.000  -2.491   0.000   0.000  -0.617   0.000  -0.000   0.000   0.000  -0.000  -0.321  -0.000
 -0.000   3.210   0.001   0.000   0.438   0.000  -4.174  -0.001  -0.000  -0.623   0.003  -0.000  -0.149   0.005  -0.000   0.029
 -0.000   0.001   1.553  -0.000   0.001   0.000  -0.001  -1.754  -0.000  -0.001  -0.109   0.018   0.000   0.165  -0.000  -0.000
  0.434   0.000  -0.000   3.206   0.000  -0.617  -0.000  -0.000  -4.173  -0.000   0.000  -0.000  -0.000   0.000  -0.149   0.000
 -0.000   0.438   0.001   0.000   2.116   0.000  -0.623  -0.001  -0.000  -2.498   0.001  -0.000  -0.325   0.000   0.000   0.048
 -2.491   0.000   0.000  -0.617   0.000   3.790  -0.000  -0.000   0.767  -0.000   0.000  -0.000  -0.000   0.000   0.389   0.000
  0.000  -4.174  -0.001  -0.000  -0.623  -0.000   6.000   0.001   0.000   0.776  -0.003   0.000   0.169  -0.006   0.000  -0.040
  0.000  -0.001  -1.754  -0.000  -0.001  -0.000   0.001   2.892   0.000   0.003   0.235  -0.019  -0.001  -0.137  -0.000   0.000
 -0.617  -0.000  -0.000  -4.173  -0.000   0.767   0.000   0.000   5.999   0.000   0.000  -0.000   0.000  -0.000   0.168  -0.000
  0.000  -0.623  -0.001  -0.000  -2.498  -0.000   0.776   0.003   0.000   3.795  -0.003   0.001   0.394   0.000  -0.000  -0.054
 -0.000   0.003  -0.109   0.000   0.001   0.000  -0.003   0.235   0.000  -0.003   1.556  -0.100  -0.002   0.045  -0.000   0.000
  0.000  -0.000   0.018  -0.000  -0.000  -0.000   0.000  -0.019  -0.000   0.001  -0.100   0.008   0.000  -0.001   0.000  -0.000
  0.000  -0.149   0.000  -0.000  -0.325  -0.000   0.169  -0.001   0.000   0.394  -0.002   0.000   0.290  -0.000   0.000  -0.036
 -0.000   0.005   0.165   0.000   0.000   0.000  -0.006  -0.137  -0.000   0.000   0.045  -0.001  -0.000   0.356  -0.000   0.000
 -0.321  -0.000  -0.000  -0.149   0.000   0.389   0.000  -0.000   0.168  -0.000  -0.000   0.000   0.000  -0.000   0.289  -0.000
 -0.000   0.029  -0.000   0.000   0.048   0.000  -0.040   0.000  -0.000  -0.054   0.000  -0.000  -0.036   0.000  -0.000   0.005
  0.000  -0.001  -0.018  -0.000  -0.000  -0.000   0.001   0.006   0.000  -0.000  -0.010   0.000   0.000  -0.044   0.000  -0.000
  0.048   0.000   0.000   0.029  -0.000  -0.053  -0.000  -0.000  -0.040   0.000   0.000  -0.000  -0.000   0.000  -0.036  -0.000


------------------------ aborting loop because EDIFF is reached ----------------------------------------


    CHARGE:  cpu time    0.0465: real time    0.0465
    FORLOC:  cpu time    0.0003: real time    0.0003
    FORNL :  cpu time    0.0634: real time    0.0634
    STRESS:  cpu time    0.3245: real time    0.3246
    FORCOR:  cpu time    0.0141: real time    0.0141
    FORHAR:  cpu time    0.0024: real time    0.0024
    MIXING:  cpu time    0.0002: real time    0.0002
    OFIELD:  cpu time    0.0000: real time    0.0000

  FORCE on cell =-STRESS in cart. coord.  units (eV):
  Direction    XX          YY          ZZ          XY          YZ          ZX
  --------------------------------------------------------------------------------------
  Alpha Z    26.20911    26.20911    26.20911
  Ewald    5271.41777  5272.41632 -6348.00664     0.00000    -0.21488     0.00000
  Hartree  5479.72246  5480.08874 -5419.20142     0.00000    -0.08447     0.00000
  E(xc)    -145.45766  -145.48217  -147.26499     0.00000    -0.00163    -0.00000
  Local  -11307.49033-11308.84197 11198.71952    -0.00000     0.30859    -0.00000
  n-local   324.03234   323.95486   339.12755    -0.00000    -0.01745     0.00000
  augment   -67.64190   -67.60798   -71.26207     0.00000     0.00583    -0.00000
  Kinetic   419.34878   419.80846   421.67065    -0.00000     0.00461     0.00000
  Fock        0.00000     0.00000     0.00000     0.00000     0.00000     0.00000
  -------------------------------------------------------------------------------------
  Total       0.14058     0.54537    -0.00829    -0.00000     0.00060     0.00000
  in kB       0.56979     2.21052    -0.03360    -0.00000     0.00243     0.00000
  external pressure =        0.92 kB  Pullay stress =        0.00 kB


 VOLUME and BASIS-vectors are now :
 -----------------------------------------------------------------------------
  energy-cutoff  :      600.00
  volume of cell :      395.28
      direct lattice vectors                 reciprocal lattice vectors
     3.363599539  0.000000000  0.000000000     0.297300552  0.000000000  0.000000000
     0.000000000  5.802622124  0.000000000     0.000000000  0.172335882  0.000000000
     0.000000000  0.000000000 20.252588272     0.000000000  0.000000000  0.049376405

  length of vectors
     3.363599539  5.802622124 20.252588272     0.297300552  0.172335882  0.049376405


 FORCES acting on ions
    electron-ion (+dipol)            ewald-force                    non-local-force                 convergence-correction
 -----------------------------------------------------------------------------------------------
   -.124E-06 -.342E+00 -.376E+01   0.122E-06 0.341E+00 0.611E+01   -.196E-07 0.127E-02 -.235E+01   0.382E-08 -.200E-03 0.441E-03
   0.288E-06 -.343E+00 -.376E+01   -.266E-06 0.341E+00 0.611E+01   0.130E-07 0.126E-02 -.235E+01   -.668E-08 0.249E-03 0.563E-03
   -.481E-06 0.227E+00 -.468E+03   0.431E-06 -.224E+00 0.474E+03   0.139E-06 -.653E-02 -.553E+01   0.200E-07 0.315E-02 0.151E-02
   0.346E-07 0.234E+00 -.468E+03   -.434E-07 -.224E+00 0.474E+03   0.631E-08 -.615E-02 -.553E+01   0.276E-08 -.295E-02 -.257E-03
   0.320E-06 0.117E+00 0.475E+03   -.308E-06 -.118E+00 -.480E+03   -.116E-06 -.141E-02 0.457E+01   -.572E-09 0.212E-02 -.581E-03
   -.654E-07 0.120E+00 0.475E+03   0.647E-07 -.117E+00 -.480E+03   -.102E-07 -.126E-02 0.457E+01   0.563E-09 -.212E-02 0.807E-03
 -----------------------------------------------------------------------------------------------
   -.278E-07 0.125E-01 0.663E+01   -.130E-13 0.140E-14 0.114E-12   0.118E-07 -.128E-01 -.663E+01   0.199E-07 0.258E-03 0.249E-02
 
 
 POSITION                                       TOTAL-FORCE (eV/Angst)
 -----------------------------------------------------------------------------------
      1.68180      0.96819     10.26910        -0.000000     -0.000074      0.000155
     -0.00000      3.86950     10.26910         0.000000     -0.000028     -0.000234
      1.68180      4.83490     11.74435         0.000000      0.000062     -0.000022
     -0.00000      1.93359     11.74435        -0.000000      0.000295      0.000165
      1.68180      4.83505      8.36543        -0.000000     -0.000323      0.000069
     -0.00000      1.93374      8.36543        -0.000000      0.000068     -0.000133
 -----------------------------------------------------------------------------------
    total drift:                                0.000000     -0.000053     -0.000287


--------------------------------------------------------------------------------------------------------



  FREE ENERGIE OF THE ION-ELECTRON SYSTEM (eV)
  ---------------------------------------------------
  free  energy   TOTEN  =       -39.42126768 eV

  energy  without entropy=      -39.42126768  energy(sigma->0) =      -39.42126768
 
 d Force = 0.8919535E-07[-0.119E-07, 0.190E-06]  d Energy = 0.9580117E-07-0.661E-08
 d Force =-0.2202270E-01[-0.220E-01,-0.220E-01]  d Ewald  =-0.2202270E-01 0.327E-10


--------------------------------------------------------------------------------------------------------


    POTLOK:  cpu time    0.0140: real time    0.0140


--------------------------------------------------------------------------------------------------------




--------------------------------------------------------------------------------------------------------


  
 reached required accuracy - stopping structural energy minimisation
     LOOP+:  cpu time    2.9751: real time    3.0357
    4ORBIT:  cpu time    0.0000: real time    0.0000

 total amount of memory used by VASP MPI-rank0    62837. kBytes
=======================================================================

   base      :      30000. kBytes
   nonl-proj :      25819. kBytes
   fftplans  :       1397. kBytes
   grid      :       2623. kBytes
   one-center:         15. kBytes
   wavefun   :       2983. kBytes
 
  
  
 General timing and accounting informations for this job:
 ========================================================
  
                  Total CPU time used (sec):       86.972
                            User time (sec):       83.831
                          System time (sec):        3.141
                         Elapsed time (sec):       87.559
  
                   Maximum memory used (kb):      174704.
                   Average memory used (kb):           0.
  
                          Minor page faults:        25066
                          Major page faults:          990
                 Voluntary context switches:         2288
