 running on  192 total cores
 distrk:  each k-point on  192 cores,    1 groups
 distr:  one band on   24 cores,    8 groups
 using from now: INCAR     
 vasp.5.4.4.18Apr17-6-g9f103f2a35 (build Oct 01 2024 10:11:53) complex          
  
 POSCAR found type information on POSCAR  S  Se Sn Pb
 POSCAR found :  4 types and      20 ions
 scaLAPACK will be used

 ----------------------------------------------------------------------------- 
|                                                                             |
|  ADVICE TO THIS USER RUNNING 'VASP/VAMP'   (HEAR YOUR MASTER'S VOICE ...):  |
|                                                                             |
|      You have a (more or less) 'large supercell' and for larger cells       |
|      it might be more efficient to use real space projection opertators     |
|      So try LREAL= Auto  in the INCAR   file.                               |
|      Mind:          For very  accurate calculation you might also keep the  |
|      reciprocal projection scheme          (i.e. LREAL=.FALSE.)             |
|                                                                             |
 ----------------------------------------------------------------------------- 

 WARNING: PSMAXN for non-local potential too small
 WARNING: PSMAXN for non-local potential too small
 LDA part: xc-table for Pade appr. of Perdew
 WARNING: stress and forces are not correct
 POSCAR, INCAR and KPOINTS ok, starting setup
 FFT: planning ...
 WAVECAR not read
 charge-density read from file: SnSe                                    
 WARNING: random wavefunctions but no delay for mixing, default for NELMDL
 entering main loop
       N       E                     dE             d eps       ncg     rms          rms(c)
DAV:   1     0.694545946194E+03    0.69455E+03   -0.34769E+04  5120   0.130E+03
DAV:   2     0.388809394127E+02   -0.65567E+03   -0.63034E+03  7312   0.190E+02
DAV:   3    -0.769981762934E+02   -0.11588E+03   -0.11349E+03  6096   0.849E+01
DAV:   4    -0.846821676943E+02   -0.76840E+01   -0.76326E+01  7368   0.230E+01
DAV:   5    -0.848505285315E+02   -0.16836E+00   -0.16797E+00  6552   0.374E+00
DAV:   6    -0.848575677680E+02   -0.70392E-02   -0.70352E-02  7648   0.715E-01
DAV:   7    -0.848577787862E+02   -0.21102E-03   -0.21097E-03  6560   0.124E-01
DAV:   8    -0.848577905397E+02   -0.11754E-04   -0.11752E-04  7000   0.262E-02
DAV:   9    -0.848577910904E+02   -0.55066E-06   -0.55069E-06  5304   0.561E-03
   1 F= -.88212357E+02 E0= -.88212357E+02  d E =0.000000E+00
