 vasp.5.4.4.18Apr17-6-g9f103f2a35 (build Sep 16 2021 13:51:27) complex          
  
 executed on             LinuxIFC date 2023.03.16  12:57:39
 running on   24 total cores
 distrk:  each k-point on   24 cores,    1 groups
 distr:  one band on NCORES_PER_BAND=  24 cores,    1 groups


--------------------------------------------------------------------------------------------------------


 INCAR:
 POTCAR:    PAW_PBE Sn 08Apr2002                  
 POTCAR:    PAW_PBE Se 06Sep2000                  

 ----------------------------------------------------------------------------- 
|                                                                             |
|           W    W    AA    RRRRR   N    N  II  N    N   GGGG   !!!           |
|           W    W   A  A   R    R  NN   N  II  NN   N  G    G  !!!           |
|           W    W  A    A  R    R  N N  N  II  N N  N  G       !!!           |
|           W WW W  AAAAAA  RRRRR   N  N N  II  N  N N  G  GGG   !            |
|           WW  WW  A    A  R   R   N   NN  II  N   NN  G    G                |
|           W    W  A    A  R    R  N    N  II  N    N   GGGG   !!!           |
|                                                                             |
|      For optimal performance we recommend to set                            |
|        NCORE= 4 - approx SQRT( number of cores)                             |
|      NCORE specifies how many cores store one orbital (NPAR=cpu/NCORE).     |
|      This setting can  greatly improve the performance of VASP for DFT.     |
|      The default,   NCORE=1            might be grossly inefficient         |
|      on modern multi-core architectures or massively parallel machines.     |
|      Do your own testing !!!!                                               |
|      Unfortunately you need to use the default for GW and RPA calculations. |
|      (for HF NCORE is supported but not extensively tested yet)             |
|                                                                             |
 ----------------------------------------------------------------------------- 

 POTCAR:    PAW_PBE Sn 08Apr2002                  
   VRHFIN =Sn: s2p2                                                             
   LEXCH  = PE                                                                  
   EATOM  =    94.0860 eV,    6.9151 Ry                                         
                                                                                
   TITEL  = PAW_PBE Sn 08Apr2002                                                
   LULTRA =        F    use ultrasoft PP ?                                      
   IUNSCR =        1    unscreen: 0-lin 1-nonlin 2-no                           
   RPACOR =    2.000    partial core radius                                     
   POMASS =  118.710; ZVAL   =    4.000    mass and valenz                      
   RCORE  =    3.000    outmost cutoff radius                                   
   RWIGS  =    2.960; RWIGS  =    1.566    wigner-seitz radius (au A)           
   ENMAX  =  103.236; ENMIN  =   77.427 eV                                      
   ICORE  =        3    local potential                                         
   LCOR   =        T    correct aug charges                                     
   LPAW   =        T    paw PP                                                  
   EAUG   =  263.585                                                            
   DEXC   =    0.000                                                            
   RMAX   =    3.078    core radius for proj-oper                               
   RAUG   =    1.300    factor for augmentation sphere                          
   RDEP   =    3.022    radius for radial grids                                 
   RDEPT  =    2.655    core radius for aug-charge                              
                                                                                
   Atomic configuration                                                         
   13 entries                                                                   
     n  l   j            E        occ.                                          
     1  0  0.50    -29007.2859   2.0000                                         
     2  0  0.50     -4378.8056   2.0000                                         
     2  1  1.50     -3930.4293   6.0000                                         
     3  0  0.50      -845.0264   2.0000                                         
     3  1  1.50      -698.5725   6.0000                                         
     3  2  2.50      -473.2839  10.0000                                         
     4  0  0.50      -133.9036   2.0000                                         
     4  1  1.50       -89.6752   6.0000                                         
     4  2  2.50       -25.8375  10.0000                                         
     5  0  0.50       -10.5484   2.0000                                         
     5  1  0.50        -3.6940   2.0000                                         
     5  2  1.50        -1.3606   0.0000                                         
     4  3  2.50        -4.0817   0.0000                                         
   Description                                                                  
     l       E           TYP  RCUT    TYP  RCUT                                 
     0    -10.5483727     23  3.000                                             
     0     27.2116520     23  3.000                                             
     1     -3.6939829     23  3.000                                             
     1      1.9821976     23  3.000                                             
     2     -1.3605826     23  3.000                                             
     3     -2.7211652     23  3.000                                             
  local pseudopotential read in
  partial core-charges read in
  partial kinetic energy density read in
  atomic valenz-charges read in
  non local Contribution for L=           0  read in
    real space projection operators read in
  non local Contribution for L=           0  read in
    real space projection operators read in
  non local Contribution for L=           1  read in
    real space projection operators read in
  non local Contribution for L=           1  read in
    real space projection operators read in
  non local Contribution for L=           2  read in
    real space projection operators read in
    PAW grid and wavefunctions read in
 
   number of l-projection  operators is LMAX  =           5
   number of lm-projection operators is LMMAX =          13
 
 POTCAR:    PAW_PBE Se 06Sep2000                  
   VRHFIN =Se: s2p4                                                             
   LEXCH  = PE                                                                  
   EATOM  =   257.1286 eV,   18.8984 Ry                                         
                                                                                
   TITEL  = PAW_PBE Se 06Sep2000                                                
   LULTRA =        F    use ultrasoft PP ?                                      
   IUNSCR =        1    unscreen: 0-lin 1-nonlin 2-no                           
   RPACOR =    1.900    partial core radius                                     
   POMASS =   78.960; ZVAL   =    6.000    mass and valenz                      
   RCORE  =    2.100    outmost cutoff radius                                   
   RWIGS  =    2.200; RWIGS  =    1.164    wigner-seitz radius (au A)           
   ENMAX  =  211.555; ENMIN  =  158.666 eV                                      
   ICORE  =        3    local potential                                         
   LCOR   =        T    correct aug charges                                     
   LPAW   =        T    paw PP                                                  
   EAUG   =  446.842                                                            
   DEXC   =    0.000                                                            
   RMAX   =    2.147    core radius for proj-oper                               
   RAUG   =    1.300    factor for augmentation sphere                          
   RDEP   =    2.177    radius for radial grids                                 
   RDEPT  =    1.928    core radius for aug-charge                              
                                                                                
   Atomic configuration                                                         
   10 entries                                                                   
     n  l   j            E        occ.                                          
     1  0  0.50    -12503.4787   2.0000                                         
     2  0  0.50     -1606.9547   2.0000                                         
     2  1  1.50     -1413.3140   6.0000                                         
     3  0  0.50      -213.4885   2.0000                                         
     3  1  1.50      -152.9538   6.0000                                         
     3  2  2.50       -53.1221  10.0000                                         
     4  0  0.50       -17.2865   2.0000                                         
     4  1  0.50        -6.5110   4.0000                                         
     4  2  2.50        -6.8029   0.0000                                         
     4  3  2.50        -6.8029   0.0000                                         
   Description                                                                  
     l       E           TYP  RCUT    TYP  RCUT                                 
     0    -17.2865377     23  2.100                                             
     0    -15.3094411     23  2.100                                             
     1     -6.5110275     23  2.100                                             
     1     -0.0695192     23  2.100                                             
     2     -6.8029130     23  2.100                                             
     3     -1.3605826      7  2.100                                             
  local pseudopotential read in
  partial core-charges read in
  partial kinetic energy density read in
  atomic valenz-charges read in
  non local Contribution for L=           0  read in
    real space projection operators read in
  non local Contribution for L=           0  read in
    real space projection operators read in
  non local Contribution for L=           1  read in
    real space projection operators read in
  non local Contribution for L=           1  read in
    real space projection operators read in
  non local Contribution for L=           2  read in
    real space projection operators read in
    PAW grid and wavefunctions read in
 
   number of l-projection  operators is LMAX  =           5
   number of lm-projection operators is LMMAX =          13
 
 WARNING: PSMAXN for non-local potential too small
          PSMAXN should be >   12.5490833729506       NTYP=           1
  PAW_PBE Sn 08Apr2002                  :
 energy of atom  1       EATOM=  -94.0860
 kinetic energy error for atom=    0.0000 (will be added to EATOM!!)
  PAW_PBE Se 06Sep2000                  :
 energy of atom  2       EATOM= -257.1286
 kinetic energy error for atom=    0.0006 (will be added to EATOM!!)
 
 
 POSCAR:  POSCAR with strain of 0.003            
  positions in direct lattice
  No initial velocities read in
 exchange correlation table for  LEXCH =        8
   RHO(1)=    0.500       N(1)  =     2000
   RHO(2)=  100.500       N(2)  =     4000
 


--------------------------------------------------------------------------------------------------------


 ion  position               nearest neighbor table
   1  0.581  0.750  0.569-   4 2.72   3 2.92   3 2.92   3 3.23   3 3.23
   2  0.081  0.250  0.431-   3 2.72   4 2.92   4 2.92   4 3.23   4 3.23
   3  0.033  0.250  0.567-   2 2.72   1 2.92   1 2.92   1 3.23   1 3.23
   4  0.533  0.750  0.433-   1 2.72   2 2.92   2 2.92   2 3.23   2 3.23
 

IMPORTANT INFORMATION: All symmetrisations will be switched off!
NOSYMM: (Re-)initialisation of all symmetry stuff for point group C_1.

 
 
 KPOINTS: KMesh Grid                              

Automatic generation of k-mesh.
Space group operators:
 irot       det(A)        alpha          n_x          n_y          n_z        tau_x        tau_y        tau_z
    1     1.000000     0.000000     1.000000     0.000000     0.000000     0.000000     0.000000     0.000000
 
 Subroutine IBZKPT returns following result:
 ===========================================
 
 Found    113 irreducible k-points:
 
 Following reciprocal coordinates:
            Coordinates               Weight
  0.000000  0.000000  0.000000      1.000000
  0.066667  0.000000  0.000000      2.000000
  0.133333  0.000000  0.000000      2.000000
  0.200000  0.000000  0.000000      2.000000
  0.266667  0.000000  0.000000      2.000000
  0.333333  0.000000  0.000000      2.000000
  0.400000  0.000000  0.000000      2.000000
  0.466667  0.000000  0.000000      2.000000
  0.000000  0.066667  0.000000      2.000000
  0.066667  0.066667  0.000000      2.000000
  0.133333  0.066667  0.000000      2.000000
  0.200000  0.066667  0.000000      2.000000
  0.266667  0.066667  0.000000      2.000000
  0.333333  0.066667  0.000000      2.000000
  0.400000  0.066667  0.000000      2.000000
  0.466667  0.066667  0.000000      2.000000
 -0.466667  0.066667  0.000000      2.000000
 -0.400000  0.066667  0.000000      2.000000
 -0.333333  0.066667  0.000000      2.000000
 -0.266667  0.066667  0.000000      2.000000
 -0.200000  0.066667  0.000000      2.000000
 -0.133333  0.066667  0.000000      2.000000
 -0.066667  0.066667  0.000000      2.000000
  0.000000  0.133333  0.000000      2.000000
  0.066667  0.133333  0.000000      2.000000
  0.133333  0.133333  0.000000      2.000000
  0.200000  0.133333  0.000000      2.000000
  0.266667  0.133333  0.000000      2.000000
  0.333333  0.133333  0.000000      2.000000
  0.400000  0.133333  0.000000      2.000000
  0.466667  0.133333  0.000000      2.000000
 -0.466667  0.133333  0.000000      2.000000
 -0.400000  0.133333  0.000000      2.000000
 -0.333333  0.133333  0.000000      2.000000
 -0.266667  0.133333  0.000000      2.000000
 -0.200000  0.133333  0.000000      2.000000
 -0.133333  0.133333  0.000000      2.000000
 -0.066667  0.133333  0.000000      2.000000
  0.000000  0.200000  0.000000      2.000000
  0.066667  0.200000  0.000000      2.000000
  0.133333  0.200000  0.000000      2.000000
  0.200000  0.200000  0.000000      2.000000
  0.266667  0.200000  0.000000      2.000000
  0.333333  0.200000  0.000000      2.000000
  0.400000  0.200000  0.000000      2.000000
  0.466667  0.200000  0.000000      2.000000
 -0.466667  0.200000  0.000000      2.000000
 -0.400000  0.200000  0.000000      2.000000
 -0.333333  0.200000  0.000000      2.000000
 -0.266667  0.200000  0.000000      2.000000
 -0.200000  0.200000  0.000000      2.000000
 -0.133333  0.200000  0.000000      2.000000
 -0.066667  0.200000  0.000000      2.000000
  0.000000  0.266667  0.000000      2.000000
  0.066667  0.266667  0.000000      2.000000
  0.133333  0.266667  0.000000      2.000000
  0.200000  0.266667  0.000000      2.000000
  0.266667  0.266667  0.000000      2.000000
  0.333333  0.266667  0.000000      2.000000
  0.400000  0.266667  0.000000      2.000000
  0.466667  0.266667  0.000000      2.000000
 -0.466667  0.266667  0.000000      2.000000
 -0.400000  0.266667  0.000000      2.000000
 -0.333333  0.266667  0.000000      2.000000
 -0.266667  0.266667  0.000000      2.000000
 -0.200000  0.266667  0.000000      2.000000
 -0.133333  0.266667  0.000000      2.000000
 -0.066667  0.266667  0.000000      2.000000
  0.000000  0.333333  0.000000      2.000000
  0.066667  0.333333  0.000000      2.000000
  0.133333  0.333333  0.000000      2.000000
  0.200000  0.333333  0.000000      2.000000
  0.266667  0.333333  0.000000      2.000000
  0.333333  0.333333  0.000000      2.000000
  0.400000  0.333333  0.000000      2.000000
  0.466667  0.333333  0.000000      2.000000
 -0.466667  0.333333  0.000000      2.000000
 -0.400000  0.333333  0.000000      2.000000
 -0.333333  0.333333  0.000000      2.000000
 -0.266667  0.333333  0.000000      2.000000
 -0.200000  0.333333  0.000000      2.000000
 -0.133333  0.333333  0.000000      2.000000
 -0.066667  0.333333  0.000000      2.000000
  0.000000  0.400000  0.000000      2.000000
  0.066667  0.400000  0.000000      2.000000
  0.133333  0.400000  0.000000      2.000000
  0.200000  0.400000  0.000000      2.000000
  0.266667  0.400000  0.000000      2.000000
  0.333333  0.400000  0.000000      2.000000
  0.400000  0.400000  0.000000      2.000000
  0.466667  0.400000  0.000000      2.000000
 -0.466667  0.400000  0.000000      2.000000
 -0.400000  0.400000  0.000000      2.000000
 -0.333333  0.400000  0.000000      2.000000
 -0.266667  0.400000  0.000000      2.000000
 -0.200000  0.400000  0.000000      2.000000
 -0.133333  0.400000  0.000000      2.000000
 -0.066667  0.400000  0.000000      2.000000
  0.000000  0.466667  0.000000      2.000000
  0.066667  0.466667  0.000000      2.000000
  0.133333  0.466667  0.000000      2.000000
  0.200000  0.466667  0.000000      2.000000
  0.266667  0.466667  0.000000      2.000000
  0.333333  0.466667  0.000000      2.000000
  0.400000  0.466667  0.000000      2.000000
  0.466667  0.466667  0.000000      2.000000
 -0.466667  0.466667  0.000000      2.000000
 -0.400000  0.466667  0.000000      2.000000
 -0.333333  0.466667  0.000000      2.000000
 -0.266667  0.466667  0.000000      2.000000
 -0.200000  0.466667  0.000000      2.000000
 -0.133333  0.466667  0.000000      2.000000
 -0.066667  0.466667  0.000000      2.000000
 
 Following cartesian coordinates:
            Coordinates               Weight
  0.000000  0.000000  0.000000      1.000000
  0.015213  0.000000  0.000000      2.000000
  0.030425  0.000000  0.000000      2.000000
  0.045638  0.000000  0.000000      2.000000
  0.060850  0.000000  0.000000      2.000000
  0.076063  0.000000  0.000000      2.000000
  0.091275  0.000000  0.000000      2.000000
  0.106488  0.000000  0.000000      2.000000
  0.000000  0.015492  0.000000      2.000000
  0.015213  0.015492  0.000000      2.000000
  0.030425  0.015492  0.000000      2.000000
  0.045638  0.015492  0.000000      2.000000
  0.060850  0.015492  0.000000      2.000000
  0.076063  0.015492  0.000000      2.000000
  0.091275  0.015492  0.000000      2.000000
  0.106488  0.015492  0.000000      2.000000
 -0.106488  0.015492  0.000000      2.000000
 -0.091275  0.015492  0.000000      2.000000
 -0.076063  0.015492  0.000000      2.000000
 -0.060850  0.015492  0.000000      2.000000
 -0.045638  0.015492  0.000000      2.000000
 -0.030425  0.015492  0.000000      2.000000
 -0.015213  0.015492  0.000000      2.000000
  0.000000  0.030985  0.000000      2.000000
  0.015213  0.030985  0.000000      2.000000
  0.030425  0.030985  0.000000      2.000000
  0.045638  0.030985  0.000000      2.000000
  0.060850  0.030985  0.000000      2.000000
  0.076063  0.030985  0.000000      2.000000
  0.091275  0.030985  0.000000      2.000000
  0.106488  0.030985  0.000000      2.000000
 -0.106488  0.030985  0.000000      2.000000
 -0.091275  0.030985  0.000000      2.000000
 -0.076063  0.030985  0.000000      2.000000
 -0.060850  0.030985  0.000000      2.000000
 -0.045638  0.030985  0.000000      2.000000
 -0.030425  0.030985  0.000000      2.000000
 -0.015213  0.030985  0.000000      2.000000
  0.000000  0.046477  0.000000      2.000000
  0.015213  0.046477  0.000000      2.000000
  0.030425  0.046477  0.000000      2.000000
  0.045638  0.046477  0.000000      2.000000
  0.060850  0.046477  0.000000      2.000000
  0.076063  0.046477  0.000000      2.000000
  0.091275  0.046477  0.000000      2.000000
  0.106488  0.046477  0.000000      2.000000
 -0.106488  0.046477  0.000000      2.000000
 -0.091275  0.046477  0.000000      2.000000
 -0.076063  0.046477  0.000000      2.000000
 -0.060850  0.046477  0.000000      2.000000
 -0.045638  0.046477  0.000000      2.000000
 -0.030425  0.046477  0.000000      2.000000
 -0.015213  0.046477  0.000000      2.000000
  0.000000  0.061969  0.000000      2.000000
  0.015213  0.061969  0.000000      2.000000
  0.030425  0.061969  0.000000      2.000000
  0.045638  0.061969  0.000000      2.000000
  0.060850  0.061969  0.000000      2.000000
  0.076063  0.061969  0.000000      2.000000
  0.091275  0.061969  0.000000      2.000000
  0.106488  0.061969  0.000000      2.000000
 -0.106488  0.061969  0.000000      2.000000
 -0.091275  0.061969  0.000000      2.000000
 -0.076063  0.061969  0.000000      2.000000
 -0.060850  0.061969  0.000000      2.000000
 -0.045638  0.061969  0.000000      2.000000
 -0.030425  0.061969  0.000000      2.000000
 -0.015213  0.061969  0.000000      2.000000
  0.000000  0.077462  0.000000      2.000000
  0.015213  0.077462  0.000000      2.000000
  0.030425  0.077462  0.000000      2.000000
  0.045638  0.077462  0.000000      2.000000
  0.060850  0.077462  0.000000      2.000000
  0.076063  0.077462  0.000000      2.000000
  0.091275  0.077462  0.000000      2.000000
  0.106488  0.077462  0.000000      2.000000
 -0.106488  0.077462  0.000000      2.000000
 -0.091275  0.077462  0.000000      2.000000
 -0.076063  0.077462  0.000000      2.000000
 -0.060850  0.077462  0.000000      2.000000
 -0.045638  0.077462  0.000000      2.000000
 -0.030425  0.077462  0.000000      2.000000
 -0.015213  0.077462  0.000000      2.000000
  0.000000  0.092954  0.000000      2.000000
  0.015213  0.092954  0.000000      2.000000
  0.030425  0.092954  0.000000      2.000000
  0.045638  0.092954  0.000000      2.000000
  0.060850  0.092954  0.000000      2.000000
  0.076063  0.092954  0.000000      2.000000
  0.091275  0.092954  0.000000      2.000000
  0.106488  0.092954  0.000000      2.000000
 -0.106488  0.092954  0.000000      2.000000
 -0.091275  0.092954  0.000000      2.000000
 -0.076063  0.092954  0.000000      2.000000
 -0.060850  0.092954  0.000000      2.000000
 -0.045638  0.092954  0.000000      2.000000
 -0.030425  0.092954  0.000000      2.000000
 -0.015213  0.092954  0.000000      2.000000
  0.000000  0.108446  0.000000      2.000000
  0.015213  0.108446  0.000000      2.000000
  0.030425  0.108446  0.000000      2.000000
  0.045638  0.108446  0.000000      2.000000
  0.060850  0.108446  0.000000      2.000000
  0.076063  0.108446  0.000000      2.000000
  0.091275  0.108446  0.000000      2.000000
  0.106488  0.108446  0.000000      2.000000
 -0.106488  0.108446  0.000000      2.000000
 -0.091275  0.108446  0.000000      2.000000
 -0.076063  0.108446  0.000000      2.000000
 -0.060850  0.108446  0.000000      2.000000
 -0.045638  0.108446  0.000000      2.000000
 -0.030425  0.108446  0.000000      2.000000
 -0.015213  0.108446  0.000000      2.000000
 


--------------------------------------------------------------------------------------------------------




 Dimension of arrays:
   k-points           NKPTS =    113   k-points in BZ     NKDIM =    113   number of bands    NBANDS=     14
   number of dos      NEDOS =    301   number of ions     NIONS =      4
   non local maximal  LDIM  =      5   non local SUM 2l+1 LMDIM =     13
   total plane-waves  NPLWV = 207360
   max r-space proj   IRMAX =      1   max aug-charges    IRDMAX=  53115
   dimension x,y,z NGX =    36 NGY =   36 NGZ =  160
   dimension x,y,z NGXF=    72 NGYF=   72 NGZF=  320
   support grid    NGXF=    72 NGYF=   72 NGZF=  320
   ions per type =               2   2
   NGX,Y,Z   is equivalent  to a cutoff of  13.66, 13.91, 13.30 a.u.
   NGXF,Y,Z  is equivalent  to a cutoff of  27.31, 27.82, 26.60 a.u.

 SYSTEM =  SnSe                                    
 POSCAR =   POSCAR with strain of 0.003            

 Startparameter for this run:
   NWRITE =      2    write-flag & timer
   PREC   = accura    normal or accurate (medium, high low for compatibility)
   ISTART =      0    job   : 0-new  1-cont  2-samecut
   ICHARG =      2    charge: 1-file 2-atom 10-const
   ISPIN  =      1    spin polarized calculation?
   LNONCOLLINEAR =      F non collinear calculations
   LSORBIT =      F    spin-orbit coupling
   INIWAV =      1    electr: 0-lowe 1-rand  2-diag
   LASPH  =      F    aspherical Exc in radial PAW
   METAGGA=      F    non-selfconsistent MetaGGA calc.

 Electronic Relaxation 1
   ENCUT  =  600.0 eV  44.10 Ry    6.64 a.u.   8.75  8.59 39.94*2*pi/ulx,y,z
   ENINI  =  600.0     initial cutoff
   ENAUG  =  446.8 eV  augmentation charge cutoff
   NELM   =     60;   NELMIN=  2; NELMDL= -5     # of ELM steps 
   EDIFF  = 0.1E-05   stopping-criterion for ELM
   LREAL  =      F    real-space projection
   NLSPLINE    = F    spline interpolate recip. space projectors
   LCOMPAT=      F    compatible to vasp.4.4
   GGA_COMPAT  = T    GGA compatible to vasp.4.4-vasp.4.6
   LMAXPAW     = -100 max onsite density
   LMAXMIX     =    2 max onsite mixed and CHGCAR
   VOSKOWN=      0    Vosko Wilk Nusair interpolation
   ROPT   =    0.00000   0.00000
 Ionic relaxation
   EDIFFG = -.1E-02   stopping-criterion for IOM
   NSW    =    100    number of steps for IOM
   NBLOCK =      1;   KBLOCK =    100    inner block; outer block 
   IBRION =      2    ionic relax: 0-MD 1-quasi-New 2-CG
   NFREE  =      1    steps in history (QN), initial steepest desc. (CG)
   ISIF   =      2    stress and relaxation
   IWAVPR =     11    prediction:  0-non 1-charg 2-wave 3-comb
   ISYM   =      0    0-nonsym 1-usesym 2-fastsym
   LCORR  =      T    Harris-Foulkes like correction to forces

   POTIM  = 0.5000    time-step for ionic-motion
   TEIN   =    0.0    initial temperature
   TEBEG  =    0.0;   TEEND  =   0.0 temperature during run
   SMASS  =  -3.00    Nose mass-parameter (am)
   estimated Nose-frequenzy (Omega)   =  0.10E-29 period in steps =****** mass=  -0.439E-27a.u.
   SCALEE = 1.0000    scale energy and forces
   NPACO  =    256;   APACO  = 16.0  distance and # of slots for P.C.
   PSTRESS=    0.0 pullay stress

  Mass of Ions in am
   POMASS = 118.71 78.96
  Ionic Valenz
   ZVAL   =   4.00  6.00
  Atomic Wigner-Seitz radii
   RWIGS  =  -1.00 -1.00
  virtual crystal weights 
   VCA    =   1.00  1.00
   NELECT =      20.0000    total number of electrons
   NUPDOWN=      -1.0000    fix difference up-down

 DOS related values:
   EMIN   =  10.00;   EMAX   =-10.00  energy-range for DOS
   EFERMI =   0.00
   ISMEAR =     0;   SIGMA  =   0.10  broadening in eV -4-tet -1-fermi 0-gaus

 Electronic relaxation 2 (details)
   IALGO  =     38    algorithm
   LDIAG  =      T    sub-space diagonalisation (order eigenvalues)
   LSUBROT=      F    optimize rotation matrix (better conditioning)
   TURBO    =      0    0=normal 1=particle mesh
   IRESTART =      0    0=no restart 2=restart with 2 vectors
   NREBOOT  =      0    no. of reboots
   NMIN     =      0    reboot dimension
   EREF     =   0.00    reference energy to select bands
   IMIX   =      4    mixing-type and parameters
     AMIX     =   0.40;   BMIX     =  1.00
     AMIX_MAG =   1.60;   BMIX_MAG =  1.00
     AMIN     =   0.10
     WC   =   100.;   INIMIX=   1;  MIXPRE=   1;  MAXMIX= -45

 Intra band minimization:
   WEIMIN = 0.0010     energy-eigenvalue tresh-hold
   EBREAK =  0.18E-07  absolut break condition
   DEPER  =   0.30     relativ break condition  

   TIME   =   0.40     timestep for ELM

  volume/ion in A,a.u.               =      94.29       636.31
  Fermi-wavevector in a.u.,A,eV,Ry     =   0.615047  1.162270  5.146845  0.378282
  Thomas-Fermi vector in A             =   1.672276
 
 Write flags
   LWAVE        =      T    write WAVECAR
   LDOWNSAMPLE  =      F    k-point downsampling of WAVECAR
   LCHARG       =      T    write CHGCAR
   LVTOT        =      F    write LOCPOT, total local potential
   LVHAR        =      F    write LOCPOT, Hartree potential only
   LELF         =      F    write electronic localiz. function (ELF)
   LORBIT       =      0    0 simple, 1 ext, 2 COOP (PROOUT), +10 PAW based schemes


 Dipole corrections
   LMONO  =      F    monopole corrections only (constant potential shift)
   LDIPOL =      F    correct potential (dipole corrections)
   IDIPOL =      0    1-x, 2-y, 3-z, 4-all directions 
   EPSILON=  1.0000000 bulk dielectric constant

 Exchange correlation treatment:
   GGA     =    PE    GGA type
   LEXCH   =     8    internal setting for exchange type
   VOSKOWN=      0    Vosko Wilk Nusair interpolation
   LHFCALC =     F    Hartree Fock is set to
   LHFONE  =     F    Hartree Fock one center treatment
   AEXX    =    0.0000 exact exchange contribution

 Linear response parameters
   LEPSILON=     F    determine dielectric tensor
   LRPA    =     F    only Hartree local field effects (RPA)
   LNABLA  =     F    use nabla operator in PAW spheres
   LVEL    =     F    velocity operator in full k-point grid
   LINTERFAST=   F  fast interpolation
   KINTER  =     0    interpolate to denser k-point grid
   CSHIFT  =0.1000    complex shift for real part using Kramers Kronig
   OMEGAMAX=  -1.0    maximum frequency
   DEG_THRESHOLD= 0.2000000E-02 threshold for treating states as degnerate
   RTIME   =   -0.100 relaxation time in fs
  (WPLASMAI=    0.000 imaginary part of plasma frequency in eV, 0.658/RTIME)
   DFIELD  = 0.0000000 0.0000000 0.0000000 field for delta impulse in time
 
 Orbital magnetization related:
   ORBITALMAG=     F  switch on orbital magnetization
   LCHIMAG   =     F  perturbation theory with respect to B field
   DQ        =  0.001000  dq finite difference perturbation B field
   LLRAUG    =     F  two centre corrections for induced B field



--------------------------------------------------------------------------------------------------------


 conjugate gradient relaxation of ions
 charge density and potential will be updated during run
 non-spin polarized calculation
 Variant of blocked Davidson
 Davidson routine will perform the subspace rotation
 perform sub-space diagonalisation
    after iterative eigenvector-optimisation
 modified Broyden-mixing scheme, WC =      100.0
 initial mixing is a Kerker type mixing with AMIX =  0.4000 and BMIX =      1.0000
 Hartree-type preconditioning will be used
 using additional bands            4
 reciprocal scheme for non local part
 use partial core corrections
 calculate Harris-corrections to forces 
   (improved forces if not selfconsistent)
 use gradient corrections 
 use of overlap-Matrix (Vanderbilt PP)
 Gauss-broadening in eV      SIGMA  =   0.10


--------------------------------------------------------------------------------------------------------


  energy-cutoff  :      600.00
  volume of cell :      377.16
      direct lattice vectors                 reciprocal lattice vectors
     4.382356765  0.000000000  0.000000000     0.228187720  0.000000000  0.000000000
     0.000000000  4.303209052  0.000000000     0.000000000  0.232384713  0.000000000
     0.000000000  0.000000000 20.000000000     0.000000000  0.000000000  0.050000000

  length of vectors
     4.382356765  4.303209052 20.000000000     0.228187720  0.232384713  0.050000000


 
 k-points in units of 2pi/SCALE and weight: KMesh Grid                              
   0.00000000  0.00000000  0.00000000       0.004
   0.01521251  0.00000000  0.00000000       0.009
   0.03042503  0.00000000  0.00000000       0.009
   0.04563754  0.00000000  0.00000000       0.009
   0.06085006  0.00000000  0.00000000       0.009
   0.07606257  0.00000000  0.00000000       0.009
   0.09127509  0.00000000  0.00000000       0.009
   0.10648760  0.00000000  0.00000000       0.009
   0.00000000  0.01549231  0.00000000       0.009
   0.01521251  0.01549231  0.00000000       0.009
   0.03042503  0.01549231  0.00000000       0.009
   0.04563754  0.01549231  0.00000000       0.009
   0.06085006  0.01549231  0.00000000       0.009
   0.07606257  0.01549231  0.00000000       0.009
   0.09127509  0.01549231  0.00000000       0.009
   0.10648760  0.01549231  0.00000000       0.009
  -0.10648760  0.01549231  0.00000000       0.009
  -0.09127509  0.01549231  0.00000000       0.009
  -0.07606257  0.01549231  0.00000000       0.009
  -0.06085006  0.01549231  0.00000000       0.009
  -0.04563754  0.01549231  0.00000000       0.009
  -0.03042503  0.01549231  0.00000000       0.009
  -0.01521251  0.01549231  0.00000000       0.009
   0.00000000  0.03098463  0.00000000       0.009
   0.01521251  0.03098463  0.00000000       0.009
   0.03042503  0.03098463  0.00000000       0.009
   0.04563754  0.03098463  0.00000000       0.009
   0.06085006  0.03098463  0.00000000       0.009
   0.07606257  0.03098463  0.00000000       0.009
   0.09127509  0.03098463  0.00000000       0.009
   0.10648760  0.03098463  0.00000000       0.009
  -0.10648760  0.03098463  0.00000000       0.009
  -0.09127509  0.03098463  0.00000000       0.009
  -0.07606257  0.03098463  0.00000000       0.009
  -0.06085006  0.03098463  0.00000000       0.009
  -0.04563754  0.03098463  0.00000000       0.009
  -0.03042503  0.03098463  0.00000000       0.009
  -0.01521251  0.03098463  0.00000000       0.009
   0.00000000  0.04647694  0.00000000       0.009
   0.01521251  0.04647694  0.00000000       0.009
   0.03042503  0.04647694  0.00000000       0.009
   0.04563754  0.04647694  0.00000000       0.009
   0.06085006  0.04647694  0.00000000       0.009
   0.07606257  0.04647694  0.00000000       0.009
   0.09127509  0.04647694  0.00000000       0.009
   0.10648760  0.04647694  0.00000000       0.009
  -0.10648760  0.04647694  0.00000000       0.009
  -0.09127509  0.04647694  0.00000000       0.009
  -0.07606257  0.04647694  0.00000000       0.009
  -0.06085006  0.04647694  0.00000000       0.009
  -0.04563754  0.04647694  0.00000000       0.009
  -0.03042503  0.04647694  0.00000000       0.009
  -0.01521251  0.04647694  0.00000000       0.009
   0.00000000  0.06196926  0.00000000       0.009
   0.01521251  0.06196926  0.00000000       0.009
   0.03042503  0.06196926  0.00000000       0.009
   0.04563754  0.06196926  0.00000000       0.009
   0.06085006  0.06196926  0.00000000       0.009
   0.07606257  0.06196926  0.00000000       0.009
   0.09127509  0.06196926  0.00000000       0.009
   0.10648760  0.06196926  0.00000000       0.009
  -0.10648760  0.06196926  0.00000000       0.009
  -0.09127509  0.06196926  0.00000000       0.009
  -0.07606257  0.06196926  0.00000000       0.009
  -0.06085006  0.06196926  0.00000000       0.009
  -0.04563754  0.06196926  0.00000000       0.009
  -0.03042503  0.06196926  0.00000000       0.009
  -0.01521251  0.06196926  0.00000000       0.009
   0.00000000  0.07746157  0.00000000       0.009
   0.01521251  0.07746157  0.00000000       0.009
   0.03042503  0.07746157  0.00000000       0.009
   0.04563754  0.07746157  0.00000000       0.009
   0.06085006  0.07746157  0.00000000       0.009
   0.07606257  0.07746157  0.00000000       0.009
   0.09127509  0.07746157  0.00000000       0.009
   0.10648760  0.07746157  0.00000000       0.009
  -0.10648760  0.07746157  0.00000000       0.009
  -0.09127509  0.07746157  0.00000000       0.009
  -0.07606257  0.07746157  0.00000000       0.009
  -0.06085006  0.07746157  0.00000000       0.009
  -0.04563754  0.07746157  0.00000000       0.009
  -0.03042503  0.07746157  0.00000000       0.009
  -0.01521251  0.07746157  0.00000000       0.009
   0.00000000  0.09295389  0.00000000       0.009
   0.01521251  0.09295389  0.00000000       0.009
   0.03042503  0.09295389  0.00000000       0.009
   0.04563754  0.09295389  0.00000000       0.009
   0.06085006  0.09295389  0.00000000       0.009
   0.07606257  0.09295389  0.00000000       0.009
   0.09127509  0.09295389  0.00000000       0.009
   0.10648760  0.09295389  0.00000000       0.009
  -0.10648760  0.09295389  0.00000000       0.009
  -0.09127509  0.09295389  0.00000000       0.009
  -0.07606257  0.09295389  0.00000000       0.009
  -0.06085006  0.09295389  0.00000000       0.009
  -0.04563754  0.09295389  0.00000000       0.009
  -0.03042503  0.09295389  0.00000000       0.009
  -0.01521251  0.09295389  0.00000000       0.009
   0.00000000  0.10844620  0.00000000       0.009
   0.01521251  0.10844620  0.00000000       0.009
   0.03042503  0.10844620  0.00000000       0.009
   0.04563754  0.10844620  0.00000000       0.009
   0.06085006  0.10844620  0.00000000       0.009
   0.07606257  0.10844620  0.00000000       0.009
   0.09127509  0.10844620  0.00000000       0.009
   0.10648760  0.10844620  0.00000000       0.009
  -0.10648760  0.10844620  0.00000000       0.009
  -0.09127509  0.10844620  0.00000000       0.009
  -0.07606257  0.10844620  0.00000000       0.009
  -0.06085006  0.10844620  0.00000000       0.009
  -0.04563754  0.10844620  0.00000000       0.009
  -0.03042503  0.10844620  0.00000000       0.009
  -0.01521251  0.10844620  0.00000000       0.009
 
 k-points in reciprocal lattice and weights: KMesh Grid                              
   0.00000000  0.00000000  0.00000000       0.004
   0.06666667  0.00000000  0.00000000       0.009
   0.13333333  0.00000000  0.00000000       0.009
   0.20000000  0.00000000  0.00000000       0.009
   0.26666667  0.00000000  0.00000000       0.009
   0.33333333  0.00000000  0.00000000       0.009
   0.40000000  0.00000000  0.00000000       0.009
   0.46666667  0.00000000  0.00000000       0.009
   0.00000000  0.06666667  0.00000000       0.009
   0.06666667  0.06666667  0.00000000       0.009
   0.13333333  0.06666667  0.00000000       0.009
   0.20000000  0.06666667  0.00000000       0.009
   0.26666667  0.06666667  0.00000000       0.009
   0.33333333  0.06666667  0.00000000       0.009
   0.40000000  0.06666667  0.00000000       0.009
   0.46666667  0.06666667  0.00000000       0.009
  -0.46666667  0.06666667  0.00000000       0.009
  -0.40000000  0.06666667  0.00000000       0.009
  -0.33333333  0.06666667  0.00000000       0.009
  -0.26666667  0.06666667  0.00000000       0.009
  -0.20000000  0.06666667  0.00000000       0.009
  -0.13333333  0.06666667  0.00000000       0.009
  -0.06666667  0.06666667  0.00000000       0.009
   0.00000000  0.13333333  0.00000000       0.009
   0.06666667  0.13333333  0.00000000       0.009
   0.13333333  0.13333333  0.00000000       0.009
   0.20000000  0.13333333  0.00000000       0.009
   0.26666667  0.13333333  0.00000000       0.009
   0.33333333  0.13333333  0.00000000       0.009
   0.40000000  0.13333333  0.00000000       0.009
   0.46666667  0.13333333  0.00000000       0.009
  -0.46666667  0.13333333  0.00000000       0.009
  -0.40000000  0.13333333  0.00000000       0.009
  -0.33333333  0.13333333  0.00000000       0.009
  -0.26666667  0.13333333  0.00000000       0.009
  -0.20000000  0.13333333  0.00000000       0.009
  -0.13333333  0.13333333  0.00000000       0.009
  -0.06666667  0.13333333  0.00000000       0.009
   0.00000000  0.20000000  0.00000000       0.009
   0.06666667  0.20000000  0.00000000       0.009
   0.13333333  0.20000000  0.00000000       0.009
   0.20000000  0.20000000  0.00000000       0.009
   0.26666667  0.20000000  0.00000000       0.009
   0.33333333  0.20000000  0.00000000       0.009
   0.40000000  0.20000000  0.00000000       0.009
   0.46666667  0.20000000  0.00000000       0.009
  -0.46666667  0.20000000  0.00000000       0.009
  -0.40000000  0.20000000  0.00000000       0.009
  -0.33333333  0.20000000  0.00000000       0.009
  -0.26666667  0.20000000  0.00000000       0.009
  -0.20000000  0.20000000  0.00000000       0.009
  -0.13333333  0.20000000  0.00000000       0.009
  -0.06666667  0.20000000  0.00000000       0.009
   0.00000000  0.26666667  0.00000000       0.009
   0.06666667  0.26666667  0.00000000       0.009
   0.13333333  0.26666667  0.00000000       0.009
   0.20000000  0.26666667  0.00000000       0.009
   0.26666667  0.26666667  0.00000000       0.009
   0.33333333  0.26666667  0.00000000       0.009
   0.40000000  0.26666667  0.00000000       0.009
   0.46666667  0.26666667  0.00000000       0.009
  -0.46666667  0.26666667  0.00000000       0.009
  -0.40000000  0.26666667  0.00000000       0.009
  -0.33333333  0.26666667  0.00000000       0.009
  -0.26666667  0.26666667  0.00000000       0.009
  -0.20000000  0.26666667  0.00000000       0.009
  -0.13333333  0.26666667  0.00000000       0.009
  -0.06666667  0.26666667  0.00000000       0.009
   0.00000000  0.33333333  0.00000000       0.009
   0.06666667  0.33333333  0.00000000       0.009
   0.13333333  0.33333333  0.00000000       0.009
   0.20000000  0.33333333  0.00000000       0.009
   0.26666667  0.33333333  0.00000000       0.009
   0.33333333  0.33333333  0.00000000       0.009
   0.40000000  0.33333333  0.00000000       0.009
   0.46666667  0.33333333  0.00000000       0.009
  -0.46666667  0.33333333  0.00000000       0.009
  -0.40000000  0.33333333  0.00000000       0.009
  -0.33333333  0.33333333  0.00000000       0.009
  -0.26666667  0.33333333  0.00000000       0.009
  -0.20000000  0.33333333  0.00000000       0.009
  -0.13333333  0.33333333  0.00000000       0.009
  -0.06666667  0.33333333  0.00000000       0.009
   0.00000000  0.40000000  0.00000000       0.009
   0.06666667  0.40000000  0.00000000       0.009
   0.13333333  0.40000000  0.00000000       0.009
   0.20000000  0.40000000  0.00000000       0.009
   0.26666667  0.40000000  0.00000000       0.009
   0.33333333  0.40000000  0.00000000       0.009
   0.40000000  0.40000000  0.00000000       0.009
   0.46666667  0.40000000  0.00000000       0.009
  -0.46666667  0.40000000  0.00000000       0.009
  -0.40000000  0.40000000  0.00000000       0.009
  -0.33333333  0.40000000  0.00000000       0.009
  -0.26666667  0.40000000  0.00000000       0.009
  -0.20000000  0.40000000  0.00000000       0.009
  -0.13333333  0.40000000  0.00000000       0.009
  -0.06666667  0.40000000  0.00000000       0.009
   0.00000000  0.46666667  0.00000000       0.009
   0.06666667  0.46666667  0.00000000       0.009
   0.13333333  0.46666667  0.00000000       0.009
   0.20000000  0.46666667  0.00000000       0.009
   0.26666667  0.46666667  0.00000000       0.009
   0.33333333  0.46666667  0.00000000       0.009
   0.40000000  0.46666667  0.00000000       0.009
   0.46666667  0.46666667  0.00000000       0.009
  -0.46666667  0.46666667  0.00000000       0.009
  -0.40000000  0.46666667  0.00000000       0.009
  -0.33333333  0.46666667  0.00000000       0.009
  -0.26666667  0.46666667  0.00000000       0.009
  -0.20000000  0.46666667  0.00000000       0.009
  -0.13333333  0.46666667  0.00000000       0.009
  -0.06666667  0.46666667  0.00000000       0.009
 
 position of ions in fractional coordinates (direct lattice) 
   0.58124336  0.75000000  0.56874314
   0.08124336  0.25000000  0.43125686
   0.03286064  0.25000000  0.56707387
   0.53286061  0.75000000  0.43292613
 
 position of ions in cartesian coordinates  (Angst):
   2.54721576  3.22740679 11.37486283
   0.35603738  1.07580226  8.62513717
   0.14400706  1.07580226 11.34147733
   2.33518532  3.22740679  8.65852267
 


--------------------------------------------------------------------------------------------------------


 k-point  1 :   0.0000 0.0000 0.0000  plane waves:   12683
 k-point  2 :   0.0667 0.0000 0.0000  plane waves:   12633
 k-point  3 :   0.1333 0.0000 0.0000  plane waves:   12609
 k-point  4 :   0.2000 0.0000 0.0000  plane waves:   12567
 k-point  5 :   0.2667 0.0000 0.0000  plane waves:   12558
 k-point  6 :   0.3333 0.0000 0.0000  plane waves:   12602
 k-point  7 :   0.4000 0.0000 0.0000  plane waves:   12630
 k-point  8 :   0.4667 0.0000 0.0000  plane waves:   12614
 k-point  9 :   0.0000 0.0667 0.0000  plane waves:   12615
 k-point 10 :   0.0667 0.0667 0.0000  plane waves:   12623
 k-point 11 :   0.1333 0.0667 0.0000  plane waves:   12612
 k-point 12 :   0.2000 0.0667 0.0000  plane waves:   12578
 k-point 13 :   0.2667 0.0667 0.0000  plane waves:   12587
 k-point 14 :   0.3333 0.0667 0.0000  plane waves:   12611
 k-point 15 :   0.4000 0.0667 0.0000  plane waves:   12606
 k-point 16 :   0.4667 0.0667 0.0000  plane waves:   12614
 k-point 17 :  -0.4667 0.0667 0.0000  plane waves:   12614
 k-point 18 :  -0.4000 0.0667 0.0000  plane waves:   12606
 k-point 19 :  -0.3333 0.0667 0.0000  plane waves:   12611
 k-point 20 :  -0.2667 0.0667 0.0000  plane waves:   12587
 k-point 21 :  -0.2000 0.0667 0.0000  plane waves:   12578
 k-point 22 :  -0.1333 0.0667 0.0000  plane waves:   12612
 k-point 23 :  -0.0667 0.0667 0.0000  plane waves:   12623
 k-point 24 :   0.0000 0.1333 0.0000  plane waves:   12599
 k-point 25 :   0.0667 0.1333 0.0000  plane waves:   12604
 k-point 26 :   0.1333 0.1333 0.0000  plane waves:   12588
 k-point 27 :   0.2000 0.1333 0.0000  plane waves:   12571
 k-point 28 :   0.2667 0.1333 0.0000  plane waves:   12583
 k-point 29 :   0.3333 0.1333 0.0000  plane waves:   12608
 k-point 30 :   0.4000 0.1333 0.0000  plane waves:   12607
 k-point 31 :   0.4667 0.1333 0.0000  plane waves:   12608
 k-point 32 :  -0.4667 0.1333 0.0000  plane waves:   12608
 k-point 33 :  -0.4000 0.1333 0.0000  plane waves:   12607
 k-point 34 :  -0.3333 0.1333 0.0000  plane waves:   12608
 k-point 35 :  -0.2667 0.1333 0.0000  plane waves:   12583
 k-point 36 :  -0.2000 0.1333 0.0000  plane waves:   12571
 k-point 37 :  -0.1333 0.1333 0.0000  plane waves:   12588
 k-point 38 :  -0.0667 0.1333 0.0000  plane waves:   12604
 k-point 39 :   0.0000 0.2000 0.0000  plane waves:   12605
 k-point 40 :   0.0667 0.2000 0.0000  plane waves:   12593
 k-point 41 :   0.1333 0.2000 0.0000  plane waves:   12580
 k-point 42 :   0.2000 0.2000 0.0000  plane waves:   12581
 k-point 43 :   0.2667 0.2000 0.0000  plane waves:   12578
 k-point 44 :   0.3333 0.2000 0.0000  plane waves:   12586
 k-point 45 :   0.4000 0.2000 0.0000  plane waves:   12591
 k-point 46 :   0.4667 0.2000 0.0000  plane waves:   12606
 k-point 47 :  -0.4667 0.2000 0.0000  plane waves:   12606
 k-point 48 :  -0.4000 0.2000 0.0000  plane waves:   12591
 k-point 49 :  -0.3333 0.2000 0.0000  plane waves:   12586
 k-point 50 :  -0.2667 0.2000 0.0000  plane waves:   12578
 k-point 51 :  -0.2000 0.2000 0.0000  plane waves:   12581
 k-point 52 :  -0.1333 0.2000 0.0000  plane waves:   12580
 k-point 53 :  -0.0667 0.2000 0.0000  plane waves:   12593
 k-point 54 :   0.0000 0.2667 0.0000  plane waves:   12593
 k-point 55 :   0.0667 0.2667 0.0000  plane waves:   12580
 k-point 56 :   0.1333 0.2667 0.0000  plane waves:   12585
 k-point 57 :   0.2000 0.2667 0.0000  plane waves:   12588
 k-point 58 :   0.2667 0.2667 0.0000  plane waves:   12589
 k-point 59 :   0.3333 0.2667 0.0000  plane waves:   12587
 k-point 60 :   0.4000 0.2667 0.0000  plane waves:   12579
 k-point 61 :   0.4667 0.2667 0.0000  plane waves:   12591
 k-point 62 :  -0.4667 0.2667 0.0000  plane waves:   12591
 k-point 63 :  -0.4000 0.2667 0.0000  plane waves:   12579
 k-point 64 :  -0.3333 0.2667 0.0000  plane waves:   12587
 k-point 65 :  -0.2667 0.2667 0.0000  plane waves:   12589
 k-point 66 :  -0.2000 0.2667 0.0000  plane waves:   12588
 k-point 67 :  -0.1333 0.2667 0.0000  plane waves:   12585
 k-point 68 :  -0.0667 0.2667 0.0000  plane waves:   12580
 k-point 69 :   0.0000 0.3333 0.0000  plane waves:   12557
 k-point 70 :   0.0667 0.3333 0.0000  plane waves:   12560
 k-point 71 :   0.1333 0.3333 0.0000  plane waves:   12577
 k-point 72 :   0.2000 0.3333 0.0000  plane waves:   12601
 k-point 73 :   0.2667 0.3333 0.0000  plane waves:   12578
 k-point 74 :   0.3333 0.3333 0.0000  plane waves:   12568
 k-point 75 :   0.4000 0.3333 0.0000  plane waves:   12578
 k-point 76 :   0.4667 0.3333 0.0000  plane waves:   12587
 k-point 77 :  -0.4667 0.3333 0.0000  plane waves:   12587
 k-point 78 :  -0.4000 0.3333 0.0000  plane waves:   12578
 k-point 79 :  -0.3333 0.3333 0.0000  plane waves:   12568
 k-point 80 :  -0.2667 0.3333 0.0000  plane waves:   12578
 k-point 81 :  -0.2000 0.3333 0.0000  plane waves:   12601
 k-point 82 :  -0.1333 0.3333 0.0000  plane waves:   12577
 k-point 83 :  -0.0667 0.3333 0.0000  plane waves:   12560
 k-point 84 :   0.0000 0.4000 0.0000  plane waves:   12543
 k-point 85 :   0.0667 0.4000 0.0000  plane waves:   12561
 k-point 86 :   0.1333 0.4000 0.0000  plane waves:   12562
 k-point 87 :   0.2000 0.4000 0.0000  plane waves:   12559
 k-point 88 :   0.2667 0.4000 0.0000  plane waves:   12582
 k-point 89 :   0.3333 0.4000 0.0000  plane waves:   12567
 k-point 90 :   0.4000 0.4000 0.0000  plane waves:   12574
 k-point 91 :   0.4667 0.4000 0.0000  plane waves:   12573
 k-point 92 :  -0.4667 0.4000 0.0000  plane waves:   12573
 k-point 93 :  -0.4000 0.4000 0.0000  plane waves:   12574
 k-point 94 :  -0.3333 0.4000 0.0000  plane waves:   12567
 k-point 95 :  -0.2667 0.4000 0.0000  plane waves:   12582
 k-point 96 :  -0.2000 0.4000 0.0000  plane waves:   12559
 k-point 97 :  -0.1333 0.4000 0.0000  plane waves:   12562
 k-point 98 :  -0.0667 0.4000 0.0000  plane waves:   12561
 k-point 99 :   0.0000 0.4667 0.0000  plane waves:   12568
 k-point ** :   0.0667 0.4667 0.0000  plane waves:   12565
 k-point ** :   0.1333 0.4667 0.0000  plane waves:   12575
 k-point ** :   0.2000 0.4667 0.0000  plane waves:   12583
 k-point ** :   0.2667 0.4667 0.0000  plane waves:   12558
 k-point ** :   0.3333 0.4667 0.0000  plane waves:   12562
 k-point ** :   0.4000 0.4667 0.0000  plane waves:   12567
 k-point ** :   0.4667 0.4667 0.0000  plane waves:   12572
 k-point ** :  -0.4667 0.4667 0.0000  plane waves:   12572
 k-point ** :  -0.4000 0.4667 0.0000  plane waves:   12567
 k-point ** :  -0.3333 0.4667 0.0000  plane waves:   12562
 k-point ** :  -0.2667 0.4667 0.0000  plane waves:   12558
 k-point ** :  -0.2000 0.4667 0.0000  plane waves:   12583
 k-point ** :  -0.1333 0.4667 0.0000  plane waves:   12575
 k-point ** :  -0.0667 0.4667 0.0000  plane waves:   12565

 maximum and minimum number of plane-waves per node :       551      505

 maximum number of plane-waves:     12683
 maximum index in each direction: 
   IXMAX=    9   IYMAX=    8   IZMAX=   39
   IXMIN=   -9   IYMIN=   -9   IZMIN=  -39


 parallel 3D FFT for wavefunctions:
    minimum data exchange during FFTs selected (reduces bandwidth)
 parallel 3D FFT for charge:
    minimum data exchange during FFTs selected (reduces bandwidth)


 total amount of memory used by VASP MPI-rank0    63318. kBytes
=======================================================================

   base      :      30000. kBytes
   nonl-proj :      12514. kBytes
   fftplans  :       2678. kBytes
   grid      :       4349. kBytes
   one-center:          8. kBytes
   wavefun   :      13769. kBytes
 
     INWAV:  cpu time    0.0000: real time    0.0006
 Broyden mixing: mesh for mixing (old mesh)
   NGX = 17   NGY = 17   NGZ = 79
  (NGX  = 72   NGY  = 72   NGZ  =320)
  gives a total of  22831 points

 initial charge density was supplied:
 charge density of overlapping atoms calculated
 number of electron      20.0000000 magnetization 
 keeping initial charge density in first step


--------------------------------------------------------------------------------------------------------


 Maximum index for augmentation-charges         2224 (set IRDMAX)


--------------------------------------------------------------------------------------------------------


 First call to EWALD:  gamma=   0.245
 Maximum number of real-space cells 4x 4x 1
 Maximum number of reciprocal cells 2x 2x 7

    FEWALD:  cpu time    0.0011: real time    0.0021


--------------------------------------- Iteration      1(   1)  ---------------------------------------


    POTLOK:  cpu time    0.0543: real time    0.1690
    SETDIJ:  cpu time    0.0091: real time    0.0099
     EDDAV:  cpu time    2.1408: real time    2.1462
       DOS:  cpu time    0.0043: real time    0.0044
    --------------------------------------------
      LOOP:  cpu time    2.2085: real time    2.3295

 eigenvalue-minimisations  :  3164
 total energy-change (2. order) : 0.1447034E+03  (-0.6282743E+03)
 number of electron      20.0000000 magnetization 
 augmentation part       20.0000000 magnetization 

 Free energy of the ion-electron system (eV)
  ---------------------------------------------------
  alpha Z        PSCENC =         9.48051625
  Ewald energy   TEWEN  =      1148.70303507
  -Hartree energ DENC   =     -1750.54845126
  -exchange      EXHF   =         0.00000000
  -V(xc)+E(xc)   XCENC  =      -238.60476118
  PAW double counting   =       799.43158084     -524.17639913
  entropy T*S    EENTRO =        -0.01303471
  eigenvalues    EBANDS =        -1.99696769
  atomic energy  EATOM  =       702.42789710
  Solvation  Ediel_sol  =         0.00000000
  ---------------------------------------------------
  free energy    TOTEN  =       144.70341530 eV

  energy without entropy =      144.71645001  energy(sigma->0) =      144.70993266


--------------------------------------------------------------------------------------------------------




--------------------------------------- Iteration      1(   2)  ---------------------------------------


     EDDAV:  cpu time    3.0651: real time    3.0695
       DOS:  cpu time    0.0040: real time    0.0039
    --------------------------------------------
      LOOP:  cpu time    3.0690: real time    3.0735

 eigenvalue-minimisations  :  5268
 total energy-change (2. order) :-0.1401749E+03  (-0.1363144E+03)
 number of electron      20.0000000 magnetization 
 augmentation part       20.0000000 magnetization 

 Free energy of the ion-electron system (eV)
  ---------------------------------------------------
  alpha Z        PSCENC =         9.48051625
  Ewald energy   TEWEN  =      1148.70303507
  -Hartree energ DENC   =     -1750.54845126
  -exchange      EXHF   =         0.00000000
  -V(xc)+E(xc)   XCENC  =      -238.60476118
  PAW double counting   =       799.43158084     -524.17639913
  entropy T*S    EENTRO =        -0.00014658
  eigenvalues    EBANDS =      -142.18475703
  atomic energy  EATOM  =       702.42789710
  Solvation  Ediel_sol  =         0.00000000
  ---------------------------------------------------
  free energy    TOTEN  =         4.52851410 eV

  energy without entropy =        4.52866068  energy(sigma->0) =        4.52858739


--------------------------------------------------------------------------------------------------------




--------------------------------------- Iteration      1(   3)  ---------------------------------------


     EDDAV:  cpu time    2.4703: real time    2.4737
       DOS:  cpu time    0.0030: real time    0.0029
    --------------------------------------------
      LOOP:  cpu time    2.4733: real time    2.4767

 eigenvalue-minimisations  :  3992
 total energy-change (2. order) :-0.2051543E+02  (-0.2035060E+02)
 number of electron      20.0000000 magnetization 
 augmentation part       20.0000000 magnetization 

 Free energy of the ion-electron system (eV)
  ---------------------------------------------------
  alpha Z        PSCENC =         9.48051625
  Ewald energy   TEWEN  =      1148.70303507
  -Hartree energ DENC   =     -1750.54845126
  -exchange      EXHF   =         0.00000000
  -V(xc)+E(xc)   XCENC  =      -238.60476118
  PAW double counting   =       799.43158084     -524.17639913
  entropy T*S    EENTRO =        -0.00000000
  eigenvalues    EBANDS =      -162.70033673
  atomic energy  EATOM  =       702.42789710
  Solvation  Ediel_sol  =         0.00000000
  ---------------------------------------------------
  free energy    TOTEN  =       -15.98691903 eV

  energy without entropy =      -15.98691903  energy(sigma->0) =      -15.98691903


--------------------------------------------------------------------------------------------------------




--------------------------------------- Iteration      1(   4)  ---------------------------------------


     EDDAV:  cpu time    2.7182: real time    2.7218
       DOS:  cpu time    0.0030: real time    0.0030
    --------------------------------------------
      LOOP:  cpu time    2.7212: real time    2.7248

 eigenvalue-minimisations  :  4588
 total energy-change (2. order) :-0.7954861E+00  (-0.7934647E+00)
 number of electron      20.0000000 magnetization 
 augmentation part       20.0000000 magnetization 

 Free energy of the ion-electron system (eV)
  ---------------------------------------------------
  alpha Z        PSCENC =         9.48051625
  Ewald energy   TEWEN  =      1148.70303507
  -Hartree energ DENC   =     -1750.54845126
  -exchange      EXHF   =         0.00000000
  -V(xc)+E(xc)   XCENC  =      -238.60476118
  PAW double counting   =       799.43158084     -524.17639913
  entropy T*S    EENTRO =        -0.00000000
  eigenvalues    EBANDS =      -163.49582279
  atomic energy  EATOM  =       702.42789710
  Solvation  Ediel_sol  =         0.00000000
  ---------------------------------------------------
  free energy    TOTEN  =       -16.78240509 eV

  energy without entropy =      -16.78240509  energy(sigma->0) =      -16.78240509


--------------------------------------------------------------------------------------------------------




--------------------------------------- Iteration      1(   5)  ---------------------------------------


     EDDAV:  cpu time    2.5209: real time    2.5243
       DOS:  cpu time    0.0029: real time    0.0029
    CHARGE:  cpu time    0.1779: real time    0.1786
    MIXING:  cpu time    0.0076: real time    0.0077
    --------------------------------------------
      LOOP:  cpu time    2.7093: real time    2.7136

 eigenvalue-minimisations  :  4148
 total energy-change (2. order) :-0.1670755E-01  (-0.1669502E-01)
 number of electron      20.0000000 magnetization 
 augmentation part       -4.5224035 magnetization 

 Broyden mixing:
  rms(total) = 0.45014E+00    rms(broyden)= 0.45014E+00
  rms(prec ) = 0.49110E+00
  weight for this iteration     100.00

 Free energy of the ion-electron system (eV)
  ---------------------------------------------------
  alpha Z        PSCENC =         9.48051625
  Ewald energy   TEWEN  =      1148.70303507
  -Hartree energ DENC   =     -1750.54845126
  -exchange      EXHF   =         0.00000000
  -V(xc)+E(xc)   XCENC  =      -238.60476118
  PAW double counting   =       799.43158084     -524.17639913
  entropy T*S    EENTRO =        -0.00000000
  eigenvalues    EBANDS =      -163.51253034
  atomic energy  EATOM  =       702.42789710
  Solvation  Ediel_sol  =         0.00000000
  ---------------------------------------------------
  free energy    TOTEN  =       -16.79911264 eV

  energy without entropy =      -16.79911264  energy(sigma->0) =      -16.79911264


--------------------------------------------------------------------------------------------------------




--------------------------------------- Iteration      1(   6)  ---------------------------------------


    POTLOK:  cpu time    0.0363: real time    0.0368
    SETDIJ:  cpu time    0.0031: real time    0.0031
     EDDAV:  cpu time    2.4477: real time    2.4512
       DOS:  cpu time    0.0031: real time    0.0031
    CHARGE:  cpu time    0.1685: real time    0.1689
    MIXING:  cpu time    0.0012: real time    0.0014
    --------------------------------------------
      LOOP:  cpu time    2.6599: real time    2.6645

 eigenvalue-minimisations  :  3936
 total energy-change (2. order) : 0.4941539E+00  (-0.1264006E+00)
 number of electron      20.0000000 magnetization 
 augmentation part       -4.4895716 magnetization 

 Broyden mixing:
  rms(total) = 0.27594E+00    rms(broyden)= 0.27594E+00
  rms(prec ) = 0.28511E+00
  weight for this iteration     100.00

 eigenvalues of (default mixing * dielectric matrix)
  average eigenvalue GAMMA=   1.7883
  1.7883

 Free energy of the ion-electron system (eV)
  ---------------------------------------------------
  alpha Z        PSCENC =         9.48051625
  Ewald energy   TEWEN  =      1148.70303507
  -Hartree energ DENC   =     -1758.44452190
  -exchange      EXHF   =         0.00000000
  -V(xc)+E(xc)   XCENC  =      -238.12086289
  PAW double counting   =       923.51915694     -648.44447035
  entropy T*S    EENTRO =        -0.00000000
  eigenvalues    EBANDS =      -155.42570898
  atomic energy  EATOM  =       702.42789710
  Solvation  Ediel_sol  =         0.00000000
  ---------------------------------------------------
  free energy    TOTEN  =       -16.30495877 eV

  energy without entropy =      -16.30495877  energy(sigma->0) =      -16.30495877


--------------------------------------------------------------------------------------------------------




--------------------------------------- Iteration      1(   7)  ---------------------------------------


    POTLOK:  cpu time    0.0362: real time    0.0363
    SETDIJ:  cpu time    0.0031: real time    0.0031
     EDDAV:  cpu time    2.5405: real time    2.5455
       DOS:  cpu time    0.0031: real time    0.0031
    CHARGE:  cpu time    0.1737: real time    0.1740
    MIXING:  cpu time    0.0011: real time    0.0013
    --------------------------------------------
      LOOP:  cpu time    2.7578: real time    2.7633

 eigenvalue-minimisations  :  4118
 total energy-change (2. order) : 0.2716764E-01  (-0.3102531E-01)
 number of electron      20.0000000 magnetization 
 augmentation part       -4.4816171 magnetization 

 Broyden mixing:
  rms(total) = 0.10537E+00    rms(broyden)= 0.10537E+00
  rms(prec ) = 0.11075E+00
  weight for this iteration     100.00

 eigenvalues of (default mixing * dielectric matrix)
  average eigenvalue GAMMA=   1.7295
  1.3674  2.0915

 Free energy of the ion-electron system (eV)
  ---------------------------------------------------
  alpha Z        PSCENC =         9.48051625
  Ewald energy   TEWEN  =      1148.70303507
  -Hartree energ DENC   =     -1763.41593197
  -exchange      EXHF   =         0.00000000
  -V(xc)+E(xc)   XCENC  =      -237.79964768
  PAW double counting   =      1063.05884083     -788.12011165
  entropy T*S    EENTRO =        -0.00000000
  eigenvalues    EBANDS =      -150.61238909
  atomic energy  EATOM  =       702.42789710
  Solvation  Ediel_sol  =         0.00000000
  ---------------------------------------------------
  free energy    TOTEN  =       -16.27779113 eV

  energy without entropy =      -16.27779113  energy(sigma->0) =      -16.27779113


--------------------------------------------------------------------------------------------------------




--------------------------------------- Iteration      1(   8)  ---------------------------------------


    POTLOK:  cpu time    0.0362: real time    0.0363
    SETDIJ:  cpu time    0.0030: real time    0.0030
     EDDAV:  cpu time    2.6885: real time    2.6930
       DOS:  cpu time    0.0031: real time    0.0031
    CHARGE:  cpu time    0.1686: real time    0.1688
    MIXING:  cpu time    0.0012: real time    0.0012
    --------------------------------------------
      LOOP:  cpu time    2.9006: real time    2.9055

 eigenvalue-minimisations  :  4508
 total energy-change (2. order) : 0.9535950E-02  (-0.3746529E-02)
 number of electron      20.0000000 magnetization 
 augmentation part       -4.4858308 magnetization 

 Broyden mixing:
  rms(total) = 0.20278E-01    rms(broyden)= 0.20278E-01
  rms(prec ) = 0.27731E-01
  weight for this iteration     100.00

 eigenvalues of (default mixing * dielectric matrix)
  average eigenvalue GAMMA=   1.7003
  2.5213  1.2898  1.2898

 Free energy of the ion-electron system (eV)
  ---------------------------------------------------
  alpha Z        PSCENC =         9.48051625
  Ewald energy   TEWEN  =      1148.70303507
  -Hartree energ DENC   =     -1765.14079816
  -exchange      EXHF   =         0.00000000
  -V(xc)+E(xc)   XCENC  =      -237.71907618
  PAW double counting   =      1129.43620267     -854.53629975
  entropy T*S    EENTRO =        -0.00000000
  eigenvalues    EBANDS =      -148.91973219
  atomic energy  EATOM  =       702.42789710
  Solvation  Ediel_sol  =         0.00000000
  ---------------------------------------------------
  free energy    TOTEN  =       -16.26825518 eV

  energy without entropy =      -16.26825518  energy(sigma->0) =      -16.26825518


--------------------------------------------------------------------------------------------------------




--------------------------------------- Iteration      1(   9)  ---------------------------------------


    POTLOK:  cpu time    0.0364: real time    0.0365
    SETDIJ:  cpu time    0.0030: real time    0.0030
     EDDAV:  cpu time    2.5911: real time    2.5972
       DOS:  cpu time    0.0031: real time    0.0031
    CHARGE:  cpu time    0.1768: real time    0.1770
    MIXING:  cpu time    0.0012: real time    0.0012
    --------------------------------------------
      LOOP:  cpu time    2.8116: real time    2.8180

 eigenvalue-minimisations  :  4298
 total energy-change (2. order) : 0.3698900E-02  (-0.6445466E-03)
 number of electron      20.0000000 magnetization 
 augmentation part       -4.4839643 magnetization 

 Broyden mixing:
  rms(total) = 0.10028E-01    rms(broyden)= 0.10028E-01
  rms(prec ) = 0.15634E-01
  weight for this iteration     100.00

 eigenvalues of (default mixing * dielectric matrix)
  average eigenvalue GAMMA=   1.7068
  2.2239  2.2239  1.1897  1.1897

 Free energy of the ion-electron system (eV)
  ---------------------------------------------------
  alpha Z        PSCENC =         9.48051625
  Ewald energy   TEWEN  =      1148.70303507
  -Hartree energ DENC   =     -1767.09705408
  -exchange      EXHF   =         0.00000000
  -V(xc)+E(xc)   XCENC  =      -237.64673627
  PAW double counting   =      1147.18288965     -872.29458896
  entropy T*S    EENTRO =        -0.00000000
  eigenvalues    EBANDS =      -147.02051504
  atomic energy  EATOM  =       702.42789710
  Solvation  Ediel_sol  =         0.00000000
  ---------------------------------------------------
  free energy    TOTEN  =       -16.26455628 eV

  energy without entropy =      -16.26455628  energy(sigma->0) =      -16.26455628


--------------------------------------------------------------------------------------------------------




--------------------------------------- Iteration      1(  10)  ---------------------------------------


    POTLOK:  cpu time    0.0367: real time    0.0368
    SETDIJ:  cpu time    0.0032: real time    0.0036
     EDDAV:  cpu time    2.6209: real time    2.6275
       DOS:  cpu time    0.0031: real time    0.0031
    CHARGE:  cpu time    0.1749: real time    0.1756
    MIXING:  cpu time    0.0013: real time    0.0013
    --------------------------------------------
      LOOP:  cpu time    2.8401: real time    2.8479

 eigenvalue-minimisations  :  4346
 total energy-change (2. order) : 0.1294493E-02  (-0.1200826E-03)
 number of electron      20.0000000 magnetization 
 augmentation part       -4.4826689 magnetization 

 Broyden mixing:
  rms(total) = 0.50908E-02    rms(broyden)= 0.50908E-02
  rms(prec ) = 0.93713E-02
  weight for this iteration     100.00

 eigenvalues of (default mixing * dielectric matrix)
  average eigenvalue GAMMA=   1.8605
  3.3325  2.5948  1.2342  1.2342  0.9066

 Free energy of the ion-electron system (eV)
  ---------------------------------------------------
  alpha Z        PSCENC =         9.48051625
  Ewald energy   TEWEN  =      1148.70303507
  -Hartree energ DENC   =     -1768.37900241
  -exchange      EXHF   =         0.00000000
  -V(xc)+E(xc)   XCENC  =      -237.63477437
  PAW double counting   =      1136.97461383     -862.07647837
  entropy T*S    EENTRO =        -0.00000000
  eigenvalues    EBANDS =      -145.75906890
  atomic energy  EATOM  =       702.42789710
  Solvation  Ediel_sol  =         0.00000000
  ---------------------------------------------------
  free energy    TOTEN  =       -16.26326179 eV

  energy without entropy =      -16.26326179  energy(sigma->0) =      -16.26326179


--------------------------------------------------------------------------------------------------------




--------------------------------------- Iteration      1(  11)  ---------------------------------------


    POTLOK:  cpu time    0.0367: real time    0.0369
    SETDIJ:  cpu time    0.0031: real time    0.0031
     EDDAV:  cpu time    2.6007: real time    2.6065
       DOS:  cpu time    0.0031: real time    0.0031
    CHARGE:  cpu time    0.1680: real time    0.1682
    MIXING:  cpu time    0.0012: real time    0.0012
    --------------------------------------------
      LOOP:  cpu time    2.8128: real time    2.8190

 eigenvalue-minimisations  :  4304
 total energy-change (2. order) : 0.7383081E-03  (-0.1247005E-03)
 number of electron      20.0000000 magnetization 
 augmentation part       -4.4813016 magnetization 

 Broyden mixing:
  rms(total) = 0.32290E-02    rms(broyden)= 0.32290E-02
  rms(prec ) = 0.49817E-02
  weight for this iteration     100.00

 eigenvalues of (default mixing * dielectric matrix)
  average eigenvalue GAMMA=   1.8303
  3.3944  2.3528  1.9669  1.1905  1.1905  0.8865

 Free energy of the ion-electron system (eV)
  ---------------------------------------------------
  alpha Z        PSCENC =         9.48051625
  Ewald energy   TEWEN  =      1148.70303507
  -Hartree energ DENC   =     -1769.97190364
  -exchange      EXHF   =         0.00000000
  -V(xc)+E(xc)   XCENC  =      -237.60352511
  PAW double counting   =      1138.34333751     -863.44410184
  entropy T*S    EENTRO =        -0.00000000
  eigenvalues    EBANDS =      -144.19777882
  atomic energy  EATOM  =       702.42789710
  Solvation  Ediel_sol  =         0.00000000
  ---------------------------------------------------
  free energy    TOTEN  =       -16.26252348 eV

  energy without entropy =      -16.26252348  energy(sigma->0) =      -16.26252348


--------------------------------------------------------------------------------------------------------




--------------------------------------- Iteration      1(  12)  ---------------------------------------


    POTLOK:  cpu time    0.0368: real time    0.0369
    SETDIJ:  cpu time    0.0030: real time    0.0030
     EDDAV:  cpu time    2.2812: real time    2.2850
       DOS:  cpu time    0.0031: real time    0.0031
    CHARGE:  cpu time    0.1695: real time    0.1696
    MIXING:  cpu time    0.0013: real time    0.0013
    --------------------------------------------
      LOOP:  cpu time    2.4949: real time    2.4990

 eigenvalue-minimisations  :  3596
 total energy-change (2. order) :-0.8192937E-03  (-0.2763575E-04)
 number of electron      20.0000000 magnetization 
 augmentation part       -4.4806809 magnetization 

 Broyden mixing:
  rms(total) = 0.17587E-02    rms(broyden)= 0.17587E-02
  rms(prec ) = 0.27540E-02
  weight for this iteration     100.00

 eigenvalues of (default mixing * dielectric matrix)
  average eigenvalue GAMMA=   2.0656
  4.6131  3.0689  2.5025  1.2037  1.2037  1.0199  0.8475

 Free energy of the ion-electron system (eV)
  ---------------------------------------------------
  alpha Z        PSCENC =         9.48051625
  Ewald energy   TEWEN  =      1148.70303507
  -Hartree energ DENC   =     -1770.61420139
  -exchange      EXHF   =         0.00000000
  -V(xc)+E(xc)   XCENC  =      -237.59406062
  PAW double counting   =      1140.07267969     -865.17595218
  entropy T*S    EENTRO =        -0.00000000
  eigenvalues    EBANDS =      -143.56325670
  atomic energy  EATOM  =       702.42789710
  Solvation  Ediel_sol  =         0.00000000
  ---------------------------------------------------
  free energy    TOTEN  =       -16.26334278 eV

  energy without entropy =      -16.26334278  energy(sigma->0) =      -16.26334278


--------------------------------------------------------------------------------------------------------




--------------------------------------- Iteration      1(  13)  ---------------------------------------


    POTLOK:  cpu time    0.0370: real time    0.0372
    SETDIJ:  cpu time    0.0031: real time    0.0031
     EDDAV:  cpu time    2.3482: real time    2.3510
       DOS:  cpu time    0.0031: real time    0.0031
    CHARGE:  cpu time    0.1682: real time    0.1685
    MIXING:  cpu time    0.0015: real time    0.0015
    --------------------------------------------
      LOOP:  cpu time    2.5611: real time    2.5643

 eigenvalue-minimisations  :  3764
 total energy-change (2. order) :-0.4337199E-03  (-0.7722691E-05)
 number of electron      20.0000000 magnetization 
 augmentation part       -4.4804650 magnetization 

 Broyden mixing:
  rms(total) = 0.11097E-02    rms(broyden)= 0.11097E-02
  rms(prec ) = 0.14933E-02
  weight for this iteration     100.00

 eigenvalues of (default mixing * dielectric matrix)
  average eigenvalue GAMMA=   2.2400
  5.6574  3.3006  2.5009  2.1673  1.1607  1.1607  1.0615  0.9111

 Free energy of the ion-electron system (eV)
  ---------------------------------------------------
  alpha Z        PSCENC =         9.48051625
  Ewald energy   TEWEN  =      1148.70303507
  -Hartree energ DENC   =     -1771.02947242
  -exchange      EXHF   =         0.00000000
  -V(xc)+E(xc)   XCENC  =      -237.59252437
  PAW double counting   =      1138.98955182     -864.09171959
  entropy T*S    EENTRO =        -0.00000000
  eigenvalues    EBANDS =      -143.15106036
  atomic energy  EATOM  =       702.42789710
  Solvation  Ediel_sol  =         0.00000000
  ---------------------------------------------------
  free energy    TOTEN  =       -16.26377650 eV

  energy without entropy =      -16.26377650  energy(sigma->0) =      -16.26377650


--------------------------------------------------------------------------------------------------------




--------------------------------------- Iteration      1(  14)  ---------------------------------------


    POTLOK:  cpu time    0.0378: real time    0.0381
    SETDIJ:  cpu time    0.0030: real time    0.0030
     EDDAV:  cpu time    2.4039: real time    2.4072
       DOS:  cpu time    0.0031: real time    0.0031
    CHARGE:  cpu time    0.1680: real time    0.1682
    MIXING:  cpu time    0.0015: real time    0.0015
    --------------------------------------------
      LOOP:  cpu time    2.6173: real time    2.6210

 eigenvalue-minimisations  :  3896
 total energy-change (2. order) :-0.2690821E-03  (-0.4147012E-05)
 number of electron      20.0000000 magnetization 
 augmentation part       -4.4804368 magnetization 

 Broyden mixing:
  rms(total) = 0.40011E-03    rms(broyden)= 0.40011E-03
  rms(prec ) = 0.61772E-03
  weight for this iteration     100.00

 eigenvalues of (default mixing * dielectric matrix)
  average eigenvalue GAMMA=   2.2440
  6.7417  3.0772  2.5319  2.5319  1.1835  1.1835  1.0267  0.9597  0.9597

 Free energy of the ion-electron system (eV)
  ---------------------------------------------------
  alpha Z        PSCENC =         9.48051625
  Ewald energy   TEWEN  =      1148.70303507
  -Hartree energ DENC   =     -1771.23830305
  -exchange      EXHF   =         0.00000000
  -V(xc)+E(xc)   XCENC  =      -237.59245239
  PAW double counting   =      1139.21994537     -864.32157525
  entropy T*S    EENTRO =        -0.00000000
  eigenvalues    EBANDS =      -142.94310868
  atomic energy  EATOM  =       702.42789710
  Solvation  Ediel_sol  =         0.00000000
  ---------------------------------------------------
  free energy    TOTEN  =       -16.26404558 eV

  energy without entropy =      -16.26404558  energy(sigma->0) =      -16.26404558


--------------------------------------------------------------------------------------------------------




--------------------------------------- Iteration      1(  15)  ---------------------------------------


    POTLOK:  cpu time    0.0378: real time    0.0379
    SETDIJ:  cpu time    0.0031: real time    0.0031
     EDDAV:  cpu time    2.3727: real time    2.3760
       DOS:  cpu time    0.0031: real time    0.0031
    CHARGE:  cpu time    0.1695: real time    0.1696
    MIXING:  cpu time    0.0015: real time    0.0016
    --------------------------------------------
      LOOP:  cpu time    2.5876: real time    2.5913

 eigenvalue-minimisations  :  3820
 total energy-change (2. order) :-0.5570772E-04  (-0.1999676E-06)
 number of electron      20.0000000 magnetization 
 augmentation part       -4.4804530 magnetization 

 Broyden mixing:
  rms(total) = 0.31944E-03    rms(broyden)= 0.31944E-03
  rms(prec ) = 0.49574E-03
  weight for this iteration     100.00

 eigenvalues of (default mixing * dielectric matrix)
  average eigenvalue GAMMA=   2.3546
  6.5517  4.2675  2.6948  2.6948  1.9751  1.1430  1.1430  1.2018  0.9370  0.9370

 Free energy of the ion-electron system (eV)
  ---------------------------------------------------
  alpha Z        PSCENC =         9.48051625
  Ewald energy   TEWEN  =      1148.70303507
  -Hartree energ DENC   =     -1771.25240747
  -exchange      EXHF   =         0.00000000
  -V(xc)+E(xc)   XCENC  =      -237.59280285
  PAW double counting   =      1139.02285057     -864.12434238
  entropy T*S    EENTRO =        -0.00000000
  eigenvalues    EBANDS =      -142.92884758
  atomic energy  EATOM  =       702.42789710
  Solvation  Ediel_sol  =         0.00000000
  ---------------------------------------------------
  free energy    TOTEN  =       -16.26410129 eV

  energy without entropy =      -16.26410129  energy(sigma->0) =      -16.26410129


--------------------------------------------------------------------------------------------------------




--------------------------------------- Iteration      1(  16)  ---------------------------------------


    POTLOK:  cpu time    0.0370: real time    0.0371
    SETDIJ:  cpu time    0.0031: real time    0.0031
     EDDAV:  cpu time    2.2476: real time    2.2535
       DOS:  cpu time    0.0031: real time    0.0031
    CHARGE:  cpu time    0.1701: real time    0.1709
    MIXING:  cpu time    0.0015: real time    0.0015
    --------------------------------------------
      LOOP:  cpu time    2.4623: real time    2.4692

 eigenvalue-minimisations  :  3528
 total energy-change (2. order) :-0.4598157E-04  (-0.8383701E-06)
 number of electron      20.0000000 magnetization 
 augmentation part       -4.4804668 magnetization 

 Broyden mixing:
  rms(total) = 0.12170E-03    rms(broyden)= 0.12170E-03
  rms(prec ) = 0.22325E-03
  weight for this iteration     100.00

 eigenvalues of (default mixing * dielectric matrix)
  average eigenvalue GAMMA=   2.2801
  6.8012  4.4997  2.6502  2.6502  2.2498  1.1556  1.1556  1.1876  0.9359  0.9359
  0.8597

 Free energy of the ion-electron system (eV)
  ---------------------------------------------------
  alpha Z        PSCENC =         9.48051625
  Ewald energy   TEWEN  =      1148.70303507
  -Hartree energ DENC   =     -1771.30446531
  -exchange      EXHF   =         0.00000000
  -V(xc)+E(xc)   XCENC  =      -237.59287660
  PAW double counting   =      1138.89069016     -863.99219118
  entropy T*S    EENTRO =        -0.00000000
  eigenvalues    EBANDS =      -142.87675277
  atomic energy  EATOM  =       702.42789710
  Solvation  Ediel_sol  =         0.00000000
  ---------------------------------------------------
  free energy    TOTEN  =       -16.26414727 eV

  energy without entropy =      -16.26414727  energy(sigma->0) =      -16.26414727


--------------------------------------------------------------------------------------------------------




--------------------------------------- Iteration      1(  17)  ---------------------------------------


    POTLOK:  cpu time    0.0367: real time    0.0369
    SETDIJ:  cpu time    0.0031: real time    0.0036
     EDDAV:  cpu time    2.0814: real time    2.0851
       DOS:  cpu time    0.0031: real time    0.0031
    CHARGE:  cpu time    0.1697: real time    0.1699
    MIXING:  cpu time    0.0015: real time    0.0015
    --------------------------------------------
[...]
      3      -8.6626      2.00000
      4      -8.5167      2.00000
      5      -6.3839      2.00000
      6      -5.5164      2.00000
      7      -5.0687      2.00000
      8      -4.3597      2.00000
      9      -3.9648      2.00000
     10      -3.3822      2.00000
     11       0.5142      0.00000
     12       1.3210      0.00000
     13       1.5606      0.00000
     14       2.2201      0.00000

 k-point    95 :      -0.2667    0.4000    0.0000
  band No.  band energies     occupation 
      1     -14.5655      2.00000
      2     -14.3130      2.00000
      3      -8.8417      2.00000
      4      -8.6208      2.00000
      5      -6.0694      2.00000
      6      -5.1216      2.00000
      7      -4.8330      2.00000
      8      -4.1054      2.00000
      9      -3.8696      2.00000
     10      -3.0971      2.00000
     11       0.1136      0.00000
     12       1.0614      0.00000
     13       1.1549      0.00000
     14       1.5692      0.00000

 k-point    96 :      -0.2000    0.4000    0.0000
  band No.  band energies     occupation 
      1     -14.6343      2.00000
      2     -14.3353      2.00000
      3      -9.0049      2.00000
      4      -8.7229      2.00000
      5      -5.6349      2.00000
      6      -4.8385      2.00000
      7      -4.5624      2.00000
      8      -3.9731      2.00000
      9      -3.5051      2.00000
     10      -2.7241      2.00000
     11      -0.3560      0.00000
     12       0.5512      0.00000
     13       0.7013      0.00000
     14       1.2092      0.00000

 k-point    97 :      -0.1333    0.4000    0.0000
  band No.  band energies     occupation 
      1     -14.6894      2.00000
      2     -14.3576      2.00000
      3      -9.1315      2.00000
      4      -8.8069      2.00000
      5      -5.1210      2.00000
      6      -4.7784      2.00000
      7      -4.1506      2.00000
      8      -3.9290      2.00000
      9      -2.9460      2.00000
     10      -2.4984      2.00000
     11      -0.6308      0.00000
     12      -0.1730      0.00000
     13       0.4830      0.00000
     14       0.7768      0.00000

 k-point    98 :      -0.0667    0.4000    0.0000
  band No.  band energies     occupation 
      1     -14.7249      2.00000
      2     -14.3737      2.00000
      3      -9.2107      2.00000
      4      -8.8615      2.00000
      5      -4.7830      2.00000
      6      -4.5914      2.00000
      7      -3.9535      2.00000
      8      -3.7450      2.00000
      9      -2.6625      2.00000
     10      -2.3796      2.00000
     11      -0.7643      0.00000
     12      -0.3872      0.00000
     13       0.2237      0.00000
     14       0.3654      0.00000

 k-point    99 :       0.0000    0.4667    0.0000
  band No.  band energies     occupation 
      1     -14.5940      2.00000
      2     -14.4710      2.00000
      3      -9.2220      2.00000
      4      -9.0992      2.00000
      5      -4.5461      2.00000
      6      -4.3291      2.00000
      7      -3.8607      2.00000
      8      -3.6675      2.00000
      9      -2.5731      2.00000
     10      -2.2352      2.00000
     11      -0.9015      0.00000
     12      -0.4676      0.00000
     13      -0.0724      0.00000
     14       0.1247      0.00000

 k-point   100 :       0.0667    0.4667    0.0000
  band No.  band energies     occupation 
      1     -14.5839      2.00000
      2     -14.4632      2.00000
      3      -9.1943      2.00000
      4      -9.0743      2.00000
      5      -4.5598      2.00000
      6      -4.4390      2.00000
      7      -4.0124      2.00000
      8      -3.8758      2.00000
      9      -2.4910      2.00000
     10      -2.3905      2.00000
     11      -0.8058      0.00000
     12      -0.6962      0.00000
     13       0.2826      0.00000
     14       0.5859      0.00000

 k-point   101 :       0.1333    0.4667    0.0000
  band No.  band energies     occupation 
      1     -14.5550      2.00000
      2     -14.4410      2.00000
      3      -9.1126      2.00000
      4      -9.0011      2.00000
      5      -4.8453      2.00000
      6      -4.6667      2.00000
      7      -4.2469      2.00000
      8      -4.1318      2.00000
      9      -2.8533      2.00000
     10      -2.6486      2.00000
     11      -0.5560      0.00000
     12      -0.3235      0.00000
     13       0.7816      0.00000
     14       0.8788      0.00000

 k-point   102 :       0.2000    0.4667    0.0000
  band No.  band energies     occupation 
      1     -14.5109      2.00000
      2     -14.4082      2.00000
      3      -8.9805      2.00000
      4      -8.8839      2.00000
      5      -5.3558      2.00000
      6      -5.0350      2.00000
      7      -4.4405      2.00000
      8      -4.2086      2.00000
      9      -3.3642      2.00000
     10      -3.0683      2.00000
     11      -0.0352      0.00000
     12       0.3233      0.00000
     13       1.0042      0.00000
     14       1.2294      0.00000

 k-point   103 :       0.2667    0.4667    0.0000
  band No.  band energies     occupation 
      1     -14.4576      2.00000
      2     -14.3710      2.00000
      3      -8.8064      2.00000
      4      -8.7315      2.00000
      5      -5.8288      2.00000
      6      -5.4901      2.00000
      7      -4.6355      2.00000
      8      -4.3756      2.00000
      9      -3.7046      2.00000
     10      -3.4341      2.00000
     11       0.4762      0.00000
     12       0.8336      0.00000
     13       1.4032      0.00000
     14       1.6506      0.00000

 k-point   104 :       0.3333    0.4667    0.0000
  band No.  band energies     occupation 
      1     -14.4028      2.00000
      2     -14.3368      2.00000
      3      -8.6073      2.00000
      4      -8.5599      2.00000
      5      -6.2157      2.00000
      6      -5.9062      2.00000
      7      -4.9316      2.00000
      8      -4.6744      2.00000
      9      -3.8142      2.00000
     10      -3.6176      2.00000
     11       0.8233      0.00000
     12       1.0962      0.00000
     13       1.9529      0.00000
     14       2.2260      0.00000

 k-point   105 :       0.4000    0.4667    0.0000
  band No.  band energies     occupation 
      1     -14.3548      2.00000
      2     -14.3134      2.00000
      3      -8.4168      2.00000
      4      -8.3971      2.00000
      5      -6.4819      2.00000
      6      -6.2539      2.00000
      7      -5.1858      2.00000
      8      -4.9939      2.00000
      9      -3.8093      2.00000
     10      -3.6902      2.00000
     11       1.0601      0.00000
     12       1.2300      0.00000
     13       2.4386      0.00000
     14       2.6668      0.00000

 k-point   106 :       0.4667    0.4667    0.0000
  band No.  band energies     occupation 
      1     -14.3213      2.00000
      2     -14.3071      2.00000
      3      -8.2928      2.00000
      4      -8.2897      2.00000
      5      -6.5862      2.00000
      6      -6.4998      2.00000
      7      -5.2915      2.00000
      8      -5.2201      2.00000
      9      -3.7723      2.00000
     10      -3.7322      2.00000
     11       1.2136      0.00000
     12       1.2713      0.00000
     13       2.6793      0.00000
     14       2.7927      0.00000

 k-point   107 :      -0.4667    0.4667    0.0000
  band No.  band energies     occupation 
      1     -14.3213      2.00000
      2     -14.3071      2.00000
      3      -8.2928      2.00000
      4      -8.2897      2.00000
      5      -6.5862      2.00000
      6      -6.4998      2.00000
      7      -5.2915      2.00000
      8      -5.2201      2.00000
      9      -3.7723      2.00000
     10      -3.7322      2.00000
     11       1.2136      0.00000
     12       1.2713      0.00000
     13       2.6793      0.00000
     14       2.7927      0.00000

 k-point   108 :      -0.4000    0.4667    0.0000
  band No.  band energies     occupation 
      1     -14.3548      2.00000
      2     -14.3134      2.00000
      3      -8.4168      2.00000
      4      -8.3971      2.00000
      5      -6.4819      2.00000
      6      -6.2539      2.00000
      7      -5.1858      2.00000
      8      -4.9939      2.00000
      9      -3.8093      2.00000
     10      -3.6902      2.00000
     11       1.0601      0.00000
     12       1.2300      0.00000
     13       2.4386      0.00000
     14       2.6668      0.00000

 k-point   109 :      -0.3333    0.4667    0.0000
  band No.  band energies     occupation 
      1     -14.4028      2.00000
      2     -14.3368      2.00000
      3      -8.6073      2.00000
      4      -8.5599      2.00000
      5      -6.2157      2.00000
      6      -5.9062      2.00000
      7      -4.9316      2.00000
      8      -4.6744      2.00000
      9      -3.8142      2.00000
     10      -3.6176      2.00000
     11       0.8233      0.00000
     12       1.0962      0.00000
     13       1.9529      0.00000
     14       2.2260      0.00000

 k-point   110 :      -0.2667    0.4667    0.0000
  band No.  band energies     occupation 
      1     -14.4576      2.00000
      2     -14.3710      2.00000
      3      -8.8064      2.00000
      4      -8.7315      2.00000
      5      -5.8288      2.00000
      6      -5.4901      2.00000
      7      -4.6355      2.00000
      8      -4.3756      2.00000
      9      -3.7046      2.00000
     10      -3.4341      2.00000
     11       0.4762      0.00000
     12       0.8336      0.00000
     13       1.4032      0.00000
     14       1.6506      0.00000

 k-point   111 :      -0.2000    0.4667    0.0000
  band No.  band energies     occupation 
      1     -14.5109      2.00000
      2     -14.4082      2.00000
      3      -8.9805      2.00000
      4      -8.8839      2.00000
      5      -5.3558      2.00000
      6      -5.0350      2.00000
      7      -4.4405      2.00000
      8      -4.2086      2.00000
      9      -3.3642      2.00000
     10      -3.0683      2.00000
     11      -0.0352      0.00000
     12       0.3233      0.00000
     13       1.0042      0.00000
     14       1.2294      0.00000

 k-point   112 :      -0.1333    0.4667    0.0000
  band No.  band energies     occupation 
      1     -14.5550      2.00000
      2     -14.4410      2.00000
      3      -9.1126      2.00000
      4      -9.0011      2.00000
      5      -4.8453      2.00000
      6      -4.6667      2.00000
      7      -4.2469      2.00000
      8      -4.1318      2.00000
      9      -2.8533      2.00000
     10      -2.6486      2.00000
     11      -0.5560      0.00000
     12      -0.3235      0.00000
     13       0.7816      0.00000
     14       0.8788      0.00000

 k-point   113 :      -0.0667    0.4667    0.0000
  band No.  band energies     occupation 
      1     -14.5839      2.00000
      2     -14.4632      2.00000
      3      -9.1943      2.00000
      4      -9.0743      2.00000
      5      -4.5598      2.00000
      6      -4.4390      2.00000
      7      -4.0124      2.00000
      8      -3.8758      2.00000
      9      -2.4910      2.00000
     10      -2.3905      2.00000
     11      -0.8058      0.00000
     12      -0.6962      0.00000
     13       0.2826      0.00000
     14       0.5859      0.00000


--------------------------------------------------------------------------------------------------------


 soft charge-density along one line, spin component           1
         0         1         2         3         4         5         6         7         8         9
 total charge-density along one line
 
 pseudopotential strength for first ion, spin component:           1
 30.090 -23.438   0.000  -0.089   0.035   0.000  -0.141   0.055
-23.438  28.119  -0.000   0.051  -0.019  -0.000   0.082  -0.031
  0.000  -0.000   6.332  -0.000  -0.000   9.797  -0.000  -0.000
 -0.089   0.051  -0.000   6.330   0.002  -0.000   9.793   0.003
  0.035  -0.019  -0.000   0.002   6.332  -0.000   0.003   9.796
  0.000  -0.000   9.797  -0.000  -0.000  15.227  -0.000  -0.000
 -0.141   0.082  -0.000   9.793   0.003  -0.000  15.220   0.004
  0.055  -0.031  -0.000   0.003   9.796  -0.000   0.004  15.226
 -0.000   0.000   0.007   0.000   0.000   0.011   0.000   0.000
 -0.000   0.000  -0.020   0.000   0.000  -0.031   0.000   0.000
 -0.003   0.004  -0.000  -0.023  -0.004  -0.000  -0.035  -0.006
  0.003  -0.002   0.000   0.008  -0.020   0.000   0.013  -0.031
 -0.000   0.000  -0.000  -0.000   0.008  -0.000  -0.000   0.013
 total augmentation occupancy for first ion, spin component:           1
  2.025  -0.015  -0.000   0.238  -0.088   0.000  -0.042   0.016   0.000  -0.000   0.023   0.002   0.000
 -0.015   0.009   0.000  -0.073   0.027  -0.000   0.019  -0.006   0.000   0.000  -0.002   0.001  -0.001
 -0.000   0.000   1.503   0.000   0.000  -0.404  -0.000  -0.000   0.124  -0.043  -0.000  -0.000   0.000
  0.238  -0.073   0.000   1.843   0.002  -0.000  -0.486  -0.015   0.000  -0.000  -0.268  -0.019  -0.000
 -0.088   0.027   0.000   0.002   1.483  -0.000  -0.015  -0.392   0.000  -0.000  -0.079  -0.045  -0.007
  0.000  -0.000  -0.404  -0.000  -0.000   0.117   0.000   0.000  -0.033   0.012   0.000   0.000   0.000
 -0.042   0.019  -0.000  -0.486  -0.015   0.000   0.140   0.007  -0.000   0.000   0.074   0.005   0.000
  0.016  -0.006  -0.000  -0.015  -0.392   0.000   0.007   0.112  -0.000   0.000   0.021   0.012   0.002
  0.000   0.000   0.124   0.000   0.000  -0.033  -0.000  -0.000   0.076   0.000  -0.000   0.000   0.000
 -0.000   0.000  -0.043  -0.000  -0.000   0.012   0.000   0.000   0.000   0.021   0.000   0.000  -0.000
  0.023  -0.002  -0.000  -0.268  -0.079   0.000   0.074   0.021  -0.000   0.000   0.078   0.006   0.002
  0.002   0.001  -0.000  -0.019  -0.045   0.000   0.005   0.012   0.000   0.000   0.006   0.022   0.001
  0.000  -0.001   0.000  -0.000  -0.007   0.000   0.000   0.002   0.000  -0.000   0.002   0.001   0.017


------------------------ aborting loop because EDIFF is reached ----------------------------------------


    CHARGE:  cpu time    0.1675: real time    0.1678
    FORLOC:  cpu time    0.0017: real time    0.0017
    FORNL :  cpu time    0.3131: real time    0.3134
    STRESS:  cpu time    0.5938: real time    0.5946
    FORCOR:  cpu time    0.0398: real time    0.0398
    FORHAR:  cpu time    0.0099: real time    0.0099
    MIXING:  cpu time    0.0021: real time    0.0021
    OFIELD:  cpu time    0.0000: real time    0.0000

  FORCE on cell =-STRESS in cart. coord.  units (eV):
  Direction    XX          YY          ZZ          XY          YZ          ZX
  --------------------------------------------------------------------------------------
  Alpha Z     9.48052     9.48052     9.48052
  Ewald    1601.61715  1606.55494 -2059.07511     0.00000     0.00000     0.00008
  Hartree  1723.14449  1724.81259 -1676.26680     0.00000    -0.00000     0.00002
  E(xc)     -77.64502   -77.65479   -78.87425    -0.00000     0.00000    -0.00000
  Local   -3577.46899 -3583.46543  3480.56838    -0.00000    -0.00000    -0.00009
  n-local   162.43215   162.63674   167.21978     0.00000     0.00000     0.00001
  augment   -31.87541   -31.81178   -32.80816    -0.00000     0.00000    -0.00000
  Kinetic   190.25865   189.32233   189.75518    -0.00000    -0.00000    -0.00001
  Fock        0.00000     0.00000     0.00000     0.00000     0.00000     0.00000
  -------------------------------------------------------------------------------------
  Total      -0.05645    -0.12488    -0.00046     0.00000    -0.00000     0.00000
  in kB      -0.23982    -0.53051    -0.00195     0.00000    -0.00000     0.00002
  external pressure =       -0.26 kB  Pullay stress =        0.00 kB


 VOLUME and BASIS-vectors are now :
 -----------------------------------------------------------------------------
  energy-cutoff  :      600.00
  volume of cell :      377.16
      direct lattice vectors                 reciprocal lattice vectors
     4.382356765  0.000000000  0.000000000     0.228187720  0.000000000  0.000000000
     0.000000000  4.303209052  0.000000000     0.000000000  0.232384713  0.000000000
     0.000000000  0.000000000 20.000000000     0.000000000  0.000000000  0.050000000

  length of vectors
     4.382356765  4.303209052 20.000000000     0.228187720  0.232384713  0.050000000


 FORCES acting on ions
    electron-ion (+dipol)            ewald-force                    non-local-force                 convergence-correction
 -----------------------------------------------------------------------------------------------
   0.424E+01 0.905E-06 -.144E+03   -.574E+01 -.120E-05 0.148E+03   0.150E+01 0.277E-06 -.381E+01   0.170E-03 -.370E-08 0.600E-03
   0.424E+01 0.113E-05 0.144E+03   -.574E+01 -.143E-05 -.148E+03   0.150E+01 0.265E-06 0.381E+01   0.171E-03 0.207E-07 -.595E-03
   -.529E+01 -.131E-05 -.206E+03   0.574E+01 0.129E-05 0.208E+03   -.450E+00 -.144E-07 -.204E+01   -.243E-02 0.527E-07 0.189E-02
   -.529E+01 -.115E-05 0.206E+03   0.574E+01 0.134E-05 -.208E+03   -.450E+00 -.621E-07 0.204E+01   -.243E-02 -.579E-07 -.188E-02
 -----------------------------------------------------------------------------------------------
   -.210E+01 -.438E-06 -.196E-04   0.533E-14 -.462E-15 0.000E+00   0.210E+01 0.466E-06 0.412E-06   -.452E-02 0.118E-07 0.183E-04
 
 
 POSITION                                       TOTAL-FORCE (eV/Angst)
 -----------------------------------------------------------------------------------
      2.54880      3.22741     11.37370        -0.000154     -0.000000      0.000584
      0.35762      1.07580      8.62629        -0.000154     -0.000000     -0.000542
      0.14242      1.07580     11.34144         0.000155      0.000000     -0.000165
      2.33360      3.22741      8.65856         0.000153      0.000000      0.000123
 -----------------------------------------------------------------------------------
    total drift:                               -0.000240      0.000000     -0.000001


--------------------------------------------------------------------------------------------------------



  FREE ENERGIE OF THE ION-ELECTRON SYSTEM (eV)
  ---------------------------------------------------
  free  energy   TOTEN  =       -16.26424189 eV

  energy  without entropy=      -16.26424189  energy(sigma->0) =      -16.26424189
 
 d Force = 0.1384468E-05[ 0.481E-06, 0.229E-05]  d Energy = 0.1483938E-05-0.995E-07
 d Force =-0.6506243E-01[-0.651E-01,-0.650E-01]  d Ewald  =-0.6506243E-01 0.580E-10


--------------------------------------------------------------------------------------------------------


    POTLOK:  cpu time    0.0404: real time    0.0412


--------------------------------------------------------------------------------------------------------




--------------------------------------------------------------------------------------------------------


  
 reached required accuracy - stopping structural energy minimisation
 writing wavefunctions
     LOOP+:  cpu time    9.2572: real time    9.6961
    4ORBIT:  cpu time    0.0000: real time    0.0000

 total amount of memory used by VASP MPI-rank0    63318. kBytes
=======================================================================

   base      :      30000. kBytes
   nonl-proj :      12514. kBytes
   fftplans  :       2678. kBytes
   grid      :       4349. kBytes
   one-center:          8. kBytes
   wavefun   :      13769. kBytes
 
  
  
 General timing and accounting informations for this job:
 ========================================================
  
                  Total CPU time used (sec):      112.874
                            User time (sec):      112.264
                          System time (sec):        0.610
                         Elapsed time (sec):      120.743
  
                   Maximum memory used (kb):      229468.
                   Average memory used (kb):           0.
  
                          Minor page faults:        57428
                          Major page faults:          124
                 Voluntary context switches:         9041
