 vasp.5.4.4.18Apr17-6-g9f103f2a35 (build Sep 16 2021 13:51:27) complex          
  
 executed on             LinuxIFC date 2023.02.26  09:55:28
 running on   24 total cores
 distrk:  each k-point on   24 cores,    1 groups
 distr:  one band on NCORES_PER_BAND=  24 cores,    1 groups


--------------------------------------------------------------------------------------------------------


 INCAR:
 POTCAR:    PAW_PBE Sn 08Apr2002                  
 POTCAR:    PAW_PBE Se 06Sep2000                  

 ----------------------------------------------------------------------------- 
|                                                                             |
|           W    W    AA    RRRRR   N    N  II  N    N   GGGG   !!!           |
|           W    W   A  A   R    R  NN   N  II  NN   N  G    G  !!!           |
|           W    W  A    A  R    R  N N  N  II  N N  N  G       !!!           |
|           W WW W  AAAAAA  RRRRR   N  N N  II  N  N N  G  GGG   !            |
|           WW  WW  A    A  R   R   N   NN  II  N   NN  G    G                |
|           W    W  A    A  R    R  N    N  II  N    N   GGGG   !!!           |
|                                                                             |
|      For optimal performance we recommend to set                            |
|        NCORE= 4 - approx SQRT( number of cores)                             |
|      NCORE specifies how many cores store one orbital (NPAR=cpu/NCORE).     |
|      This setting can  greatly improve the performance of VASP for DFT.     |
|      The default,   NCORE=1            might be grossly inefficient         |
|      on modern multi-core architectures or massively parallel machines.     |
|      Do your own testing !!!!                                               |
|      Unfortunately you need to use the default for GW and RPA calculations. |
|      (for HF NCORE is supported but not extensively tested yet)             |
|                                                                             |
 ----------------------------------------------------------------------------- 

 POTCAR:    PAW_PBE Sn 08Apr2002                  
   VRHFIN =Sn: s2p2                                                             
   LEXCH  = PE                                                                  
   EATOM  =    94.0860 eV,    6.9151 Ry                                         
                                                                                
   TITEL  = PAW_PBE Sn 08Apr2002                                                
   LULTRA =        F    use ultrasoft PP ?                                      
   IUNSCR =        1    unscreen: 0-lin 1-nonlin 2-no                           
   RPACOR =    2.000    partial core radius                                     
   POMASS =  118.710; ZVAL   =    4.000    mass and valenz                      
   RCORE  =    3.000    outmost cutoff radius                                   
   RWIGS  =    2.960; RWIGS  =    1.566    wigner-seitz radius (au A)           
   ENMAX  =  103.236; ENMIN  =   77.427 eV                                      
   ICORE  =        3    local potential                                         
   LCOR   =        T    correct aug charges                                     
   LPAW   =        T    paw PP                                                  
   EAUG   =  263.585                                                            
   DEXC   =    0.000                                                            
   RMAX   =    3.078    core radius for proj-oper                               
   RAUG   =    1.300    factor for augmentation sphere                          
   RDEP   =    3.022    radius for radial grids                                 
   RDEPT  =    2.655    core radius for aug-charge                              
                                                                                
   Atomic configuration                                                         
   13 entries                                                                   
     n  l   j            E        occ.                                          
     1  0  0.50    -29007.2859   2.0000                                         
     2  0  0.50     -4378.8056   2.0000                                         
     2  1  1.50     -3930.4293   6.0000                                         
     3  0  0.50      -845.0264   2.0000                                         
     3  1  1.50      -698.5725   6.0000                                         
     3  2  2.50      -473.2839  10.0000                                         
     4  0  0.50      -133.9036   2.0000                                         
     4  1  1.50       -89.6752   6.0000                                         
     4  2  2.50       -25.8375  10.0000                                         
     5  0  0.50       -10.5484   2.0000                                         
     5  1  0.50        -3.6940   2.0000                                         
     5  2  1.50        -1.3606   0.0000                                         
     4  3  2.50        -4.0817   0.0000                                         
   Description                                                                  
     l       E           TYP  RCUT    TYP  RCUT                                 
     0    -10.5483727     23  3.000                                             
     0     27.2116520     23  3.000                                             
     1     -3.6939829     23  3.000                                             
     1      1.9821976     23  3.000                                             
     2     -1.3605826     23  3.000                                             
     3     -2.7211652     23  3.000                                             
  local pseudopotential read in
  partial core-charges read in
  partial kinetic energy density read in
  atomic valenz-charges read in
  non local Contribution for L=           0  read in
    real space projection operators read in
  non local Contribution for L=           0  read in
    real space projection operators read in
  non local Contribution for L=           1  read in
    real space projection operators read in
  non local Contribution for L=           1  read in
    real space projection operators read in
  non local Contribution for L=           2  read in
    real space projection operators read in
    PAW grid and wavefunctions read in
 
   number of l-projection  operators is LMAX  =           5
   number of lm-projection operators is LMMAX =          13
 
 POTCAR:    PAW_PBE Se 06Sep2000                  
   VRHFIN =Se: s2p4                                                             
   LEXCH  = PE                                                                  
   EATOM  =   257.1286 eV,   18.8984 Ry                                         
                                                                                
   TITEL  = PAW_PBE Se 06Sep2000                                                
   LULTRA =        F    use ultrasoft PP ?                                      
   IUNSCR =        1    unscreen: 0-lin 1-nonlin 2-no                           
   RPACOR =    1.900    partial core radius                                     
   POMASS =   78.960; ZVAL   =    6.000    mass and valenz                      
   RCORE  =    2.100    outmost cutoff radius                                   
   RWIGS  =    2.200; RWIGS  =    1.164    wigner-seitz radius (au A)           
   ENMAX  =  211.555; ENMIN  =  158.666 eV                                      
   ICORE  =        3    local potential                                         
   LCOR   =        T    correct aug charges                                     
   LPAW   =        T    paw PP                                                  
   EAUG   =  446.842                                                            
   DEXC   =    0.000                                                            
   RMAX   =    2.147    core radius for proj-oper                               
   RAUG   =    1.300    factor for augmentation sphere                          
   RDEP   =    2.177    radius for radial grids                                 
   RDEPT  =    1.928    core radius for aug-charge                              
                                                                                
   Atomic configuration                                                         
   10 entries                                                                   
     n  l   j            E        occ.                                          
     1  0  0.50    -12503.4787   2.0000                                         
     2  0  0.50     -1606.9547   2.0000                                         
     2  1  1.50     -1413.3140   6.0000                                         
     3  0  0.50      -213.4885   2.0000                                         
     3  1  1.50      -152.9538   6.0000                                         
     3  2  2.50       -53.1221  10.0000                                         
     4  0  0.50       -17.2865   2.0000                                         
     4  1  0.50        -6.5110   4.0000                                         
     4  2  2.50        -6.8029   0.0000                                         
     4  3  2.50        -6.8029   0.0000                                         
   Description                                                                  
     l       E           TYP  RCUT    TYP  RCUT                                 
     0    -17.2865377     23  2.100                                             
     0    -15.3094411     23  2.100                                             
     1     -6.5110275     23  2.100                                             
     1     -0.0695192     23  2.100                                             
     2     -6.8029130     23  2.100                                             
     3     -1.3605826      7  2.100                                             
  local pseudopotential read in
  partial core-charges read in
  partial kinetic energy density read in
  atomic valenz-charges read in
  non local Contribution for L=           0  read in
    real space projection operators read in
  non local Contribution for L=           0  read in
    real space projection operators read in
  non local Contribution for L=           1  read in
    real space projection operators read in
  non local Contribution for L=           1  read in
    real space projection operators read in
  non local Contribution for L=           2  read in
    real space projection operators read in
    PAW grid and wavefunctions read in
 
   number of l-projection  operators is LMAX  =           5
   number of lm-projection operators is LMMAX =          13
 
 WARNING: PSMAXN for non-local potential too small
          PSMAXN should be >   12.5490833729506       NTYP=           1
  PAW_PBE Sn 08Apr2002                  :
 energy of atom  1       EATOM=  -94.0860
 kinetic energy error for atom=    0.0000 (will be added to EATOM!!)
  PAW_PBE Se 06Sep2000                  :
 energy of atom  2       EATOM= -257.1286
 kinetic energy error for atom=    0.0006 (will be added to EATOM!!)
 
 
 POSCAR:  SnSe-Monolayer                         
  positions in direct lattice
  velocities in cartesian coordinates
 exchange correlation table for  LEXCH =        8
   RHO(1)=    0.500       N(1)  =     2000
   RHO(2)=  100.500       N(2)  =     4000
 


--------------------------------------------------------------------------------------------------------


 ion  position               nearest neighbor table
   1  0.581  0.750  0.569-   4 2.72   3 2.93   3 2.93   3 3.23   3 3.23
   2  0.081  0.250  0.431-   3 2.72   4 2.93   4 2.93   4 3.23   4 3.23
   3  0.033  0.250  0.567-   2 2.72   1 2.93   1 2.93   1 3.23   1 3.23
   4  0.533  0.750  0.433-   1 2.72   2 2.93   2 2.93   2 3.23   2 3.23
 
  LATTYP: Found a simple orthorhombic cell.
 ALAT       =     4.2924778572
 B/A-ratio  =     1.0250224552
 C/A-ratio  =     4.6593134934
  
  Lattice vectors:
  
 A1 = (   0.0000000000,  -4.2924778572,   0.0000000000)
 A2 = (  -4.3998861920,   0.0000000000,   0.0000000000)
 A3 = (   0.0000000000,   0.0000000000, -20.0000000000)


Analysis of symmetry for initial positions (statically):
=====================================================================
 Subroutine PRICEL returns:
 Original cell was already a primitive cell.
 

 Routine SETGRP: Setting up the symmetry group for a 
 simple orthorhombic supercell.


 Subroutine GETGRP returns: Found  4 space group operations
 (whereof  1 operations were pure point group operations)
 out of a pool of  8 trial point group operations.


The static configuration has the point symmetry C_1 .
 The point group associated with its full space group is C_2v.


Analysis of symmetry for dynamics (positions and initial velocities):
=====================================================================
 Subroutine PRICEL returns:
 Original cell was already a primitive cell.
 

 Routine SETGRP: Setting up the symmetry group for a 
 simple orthorhombic supercell.


 Subroutine GETGRP returns: Found  4 space group operations
 (whereof  1 operations were pure point group operations)
 out of a pool of  8 trial point group operations.


The dynamic configuration has the point symmetry C_1 .
 The point group associated with its full space group is C_2v.


 Subroutine INISYM returns: Found  4 space group operations
 (whereof  1 operations are pure point group operations),
 and found     1 'primitive' translations

 
 
 KPOINTS: Automatic                               

Automatic generation of k-mesh.
Space group operators:
 irot       det(A)        alpha          n_x          n_y          n_z        tau_x        tau_y        tau_z
    1     1.000000     0.000001     1.000000     0.000000     0.000000     0.000000     0.000000     0.000000
    2    -1.000000   179.999999     0.000000     0.000000     1.000000    -0.500000    -0.500000    -0.000000
    3     1.000000   180.000000     1.000000     0.000000     0.000000    -0.500000     0.000000    -0.000000
    4    -1.000000   179.999999     0.000000     1.000000     0.000000     0.000000    -0.500000     0.000000
 
 Subroutine IBZKPT returns following result:
 ===========================================
 
 Found     64 irreducible k-points:
 
 Following reciprocal coordinates:
            Coordinates               Weight
  0.000000  0.000000  0.000000      1.000000
  0.066667  0.000000  0.000000      2.000000
  0.133333  0.000000  0.000000      2.000000
  0.200000  0.000000  0.000000      2.000000
  0.266667  0.000000  0.000000      2.000000
  0.333333  0.000000  0.000000      2.000000
  0.400000  0.000000  0.000000      2.000000
  0.466667  0.000000  0.000000      2.000000
  0.000000  0.066667  0.000000      2.000000
  0.066667  0.066667  0.000000      4.000000
  0.133333  0.066667  0.000000      4.000000
  0.200000  0.066667  0.000000      4.000000
  0.266667  0.066667  0.000000      4.000000
  0.333333  0.066667  0.000000      4.000000
  0.400000  0.066667  0.000000      4.000000
  0.466667  0.066667  0.000000      4.000000
  0.000000  0.133333  0.000000      2.000000
  0.066667  0.133333  0.000000      4.000000
  0.133333  0.133333  0.000000      4.000000
  0.200000  0.133333  0.000000      4.000000
  0.266667  0.133333  0.000000      4.000000
  0.333333  0.133333  0.000000      4.000000
  0.400000  0.133333  0.000000      4.000000
  0.466667  0.133333  0.000000      4.000000
  0.000000  0.200000  0.000000      2.000000
  0.066667  0.200000  0.000000      4.000000
  0.133333  0.200000  0.000000      4.000000
  0.200000  0.200000  0.000000      4.000000
  0.266667  0.200000  0.000000      4.000000
  0.333333  0.200000  0.000000      4.000000
  0.400000  0.200000  0.000000      4.000000
  0.466667  0.200000  0.000000      4.000000
  0.000000  0.266667  0.000000      2.000000
  0.066667  0.266667  0.000000      4.000000
  0.133333  0.266667  0.000000      4.000000
  0.200000  0.266667  0.000000      4.000000
  0.266667  0.266667  0.000000      4.000000
  0.333333  0.266667  0.000000      4.000000
  0.400000  0.266667  0.000000      4.000000
  0.466667  0.266667  0.000000      4.000000
  0.000000  0.333333  0.000000      2.000000
  0.066667  0.333333  0.000000      4.000000
  0.133333  0.333333  0.000000      4.000000
  0.200000  0.333333  0.000000      4.000000
  0.266667  0.333333  0.000000      4.000000
  0.333333  0.333333  0.000000      4.000000
  0.400000  0.333333  0.000000      4.000000
  0.466667  0.333333  0.000000      4.000000
  0.000000  0.400000  0.000000      2.000000
  0.066667  0.400000  0.000000      4.000000
  0.133333  0.400000  0.000000      4.000000
  0.200000  0.400000  0.000000      4.000000
  0.266667  0.400000  0.000000      4.000000
  0.333333  0.400000  0.000000      4.000000
  0.400000  0.400000  0.000000      4.000000
  0.466667  0.400000  0.000000      4.000000
  0.000000  0.466667  0.000000      2.000000
  0.066667  0.466667  0.000000      4.000000
  0.133333  0.466667  0.000000      4.000000
  0.200000  0.466667  0.000000      4.000000
  0.266667  0.466667  0.000000      4.000000
  0.333333  0.466667  0.000000      4.000000
  0.400000  0.466667  0.000000      4.000000
  0.466667  0.466667  0.000000      4.000000
 
 Following cartesian coordinates:
            Coordinates               Weight
  0.000000  0.000000  0.000000      1.000000
  0.015152  0.000000  0.000000      2.000000
  0.030304  0.000000  0.000000      2.000000
  0.045456  0.000000  0.000000      2.000000
  0.060608  0.000000  0.000000      2.000000
  0.075760  0.000000  0.000000      2.000000
  0.090911  0.000000  0.000000      2.000000
  0.106063  0.000000  0.000000      2.000000
  0.000000  0.015531  0.000000      2.000000
  0.015152  0.015531  0.000000      4.000000
  0.030304  0.015531  0.000000      4.000000
  0.045456  0.015531  0.000000      4.000000
  0.060608  0.015531  0.000000      4.000000
  0.075760  0.015531  0.000000      4.000000
  0.090911  0.015531  0.000000      4.000000
  0.106063  0.015531  0.000000      4.000000
  0.000000  0.031062  0.000000      2.000000
  0.015152  0.031062  0.000000      4.000000
  0.030304  0.031062  0.000000      4.000000
  0.045456  0.031062  0.000000      4.000000
  0.060608  0.031062  0.000000      4.000000
  0.075760  0.031062  0.000000      4.000000
  0.090911  0.031062  0.000000      4.000000
  0.106063  0.031062  0.000000      4.000000
  0.000000  0.046593  0.000000      2.000000
  0.015152  0.046593  0.000000      4.000000
  0.030304  0.046593  0.000000      4.000000
  0.045456  0.046593  0.000000      4.000000
  0.060608  0.046593  0.000000      4.000000
  0.075760  0.046593  0.000000      4.000000
  0.090911  0.046593  0.000000      4.000000
  0.106063  0.046593  0.000000      4.000000
  0.000000  0.062124  0.000000      2.000000
  0.015152  0.062124  0.000000      4.000000
  0.030304  0.062124  0.000000      4.000000
  0.045456  0.062124  0.000000      4.000000
  0.060608  0.062124  0.000000      4.000000
  0.075760  0.062124  0.000000      4.000000
  0.090911  0.062124  0.000000      4.000000
  0.106063  0.062124  0.000000      4.000000
  0.000000  0.077655  0.000000      2.000000
  0.015152  0.077655  0.000000      4.000000
  0.030304  0.077655  0.000000      4.000000
  0.045456  0.077655  0.000000      4.000000
  0.060608  0.077655  0.000000      4.000000
  0.075760  0.077655  0.000000      4.000000
  0.090911  0.077655  0.000000      4.000000
  0.106063  0.077655  0.000000      4.000000
  0.000000  0.093186  0.000000      2.000000
  0.015152  0.093186  0.000000      4.000000
  0.030304  0.093186  0.000000      4.000000
  0.045456  0.093186  0.000000      4.000000
  0.060608  0.093186  0.000000      4.000000
  0.075760  0.093186  0.000000      4.000000
  0.090911  0.093186  0.000000      4.000000
  0.106063  0.093186  0.000000      4.000000
  0.000000  0.108717  0.000000      2.000000
  0.015152  0.108717  0.000000      4.000000
  0.030304  0.108717  0.000000      4.000000
  0.045456  0.108717  0.000000      4.000000
  0.060608  0.108717  0.000000      4.000000
  0.075760  0.108717  0.000000      4.000000
  0.090911  0.108717  0.000000      4.000000
  0.106063  0.108717  0.000000      4.000000
 


--------------------------------------------------------------------------------------------------------




 Dimension of arrays:
   k-points           NKPTS =     64   k-points in BZ     NKDIM =     64   number of bands    NBANDS=     14
   number of dos      NEDOS =    301   number of ions     NIONS =      4
   non local maximal  LDIM  =      5   non local SUM 2l+1 LMDIM =     13
   total plane-waves  NPLWV = 207360
   max r-space proj   IRMAX =      1   max aug-charges    IRDMAX=  53036
   dimension x,y,z NGX =    36 NGY =   36 NGZ =  160
   dimension x,y,z NGXF=    72 NGYF=   72 NGZF=  320
   support grid    NGXF=    72 NGYF=   72 NGZF=  320
   ions per type =               2   2
   NGX,Y,Z   is equivalent  to a cutoff of  13.60, 13.94, 13.30 a.u.
   NGXF,Y,Z  is equivalent  to a cutoff of  27.20, 27.89, 26.60 a.u.

 SYSTEM =  SnSe                                    
 POSCAR =   SnSe-Monolayer                         

 Startparameter for this run:
   NWRITE =      2    write-flag & timer
   PREC   = accura    normal or accurate (medium, high low for compatibility)
   ISTART =      0    job   : 0-new  1-cont  2-samecut
   ICHARG =      2    charge: 1-file 2-atom 10-const
   ISPIN  =      1    spin polarized calculation?
   LNONCOLLINEAR =      F non collinear calculations
   LSORBIT =      F    spin-orbit coupling
   INIWAV =      1    electr: 0-lowe 1-rand  2-diag
   LASPH  =      F    aspherical Exc in radial PAW
   METAGGA=      F    non-selfconsistent MetaGGA calc.

 Electronic Relaxation 1
   ENCUT  =  600.0 eV  44.10 Ry    6.64 a.u.   8.79  8.57 39.94*2*pi/ulx,y,z
   ENINI  =  600.0     initial cutoff
   ENAUG  =  446.8 eV  augmentation charge cutoff
   NELM   =     60;   NELMIN=  2; NELMDL= -5     # of ELM steps 
   EDIFF  = 0.1E-05   stopping-criterion for ELM
   LREAL  =      F    real-space projection
   NLSPLINE    = F    spline interpolate recip. space projectors
   LCOMPAT=      F    compatible to vasp.4.4
   GGA_COMPAT  = T    GGA compatible to vasp.4.4-vasp.4.6
   LMAXPAW     = -100 max onsite density
   LMAXMIX     =    2 max onsite mixed and CHGCAR
   VOSKOWN=      0    Vosko Wilk Nusair interpolation
   ROPT   =    0.00000   0.00000
 Ionic relaxation
   EDIFFG = -.1E-02   stopping-criterion for IOM
   NSW    =    100    number of steps for IOM
   NBLOCK =      1;   KBLOCK =    100    inner block; outer block 
   IBRION =      2    ionic relax: 0-MD 1-quasi-New 2-CG
   NFREE  =      1    steps in history (QN), initial steepest desc. (CG)
   ISIF   =      2    stress and relaxation
   IWAVPR =     11    prediction:  0-non 1-charg 2-wave 3-comb
   ISYM   =      2    0-nonsym 1-usesym 2-fastsym
   LCORR  =      T    Harris-Foulkes like correction to forces

   POTIM  = 0.5000    time-step for ionic-motion
   TEIN   =    0.0    initial temperature
   TEBEG  =    0.0;   TEEND  =   0.0 temperature during run
   SMASS  =  -3.00    Nose mass-parameter (am)
   estimated Nose-frequenzy (Omega)   =  0.10E-29 period in steps =****** mass=  -0.442E-27a.u.
   SCALEE = 1.0000    scale energy and forces
   NPACO  =    256;   APACO  = 16.0  distance and # of slots for P.C.
   PSTRESS=    0.0 pullay stress

  Mass of Ions in am
   POMASS = 118.71 78.96
  Ionic Valenz
   ZVAL   =   4.00  6.00
  Atomic Wigner-Seitz radii
   RWIGS  =  -1.00 -1.00
  virtual crystal weights 
   VCA    =   1.00  1.00
   NELECT =      20.0000    total number of electrons
   NUPDOWN=      -1.0000    fix difference up-down

 DOS related values:
   EMIN   =  10.00;   EMAX   =-10.00  energy-range for DOS
   EFERMI =   0.00
   ISMEAR =     0;   SIGMA  =   0.10  broadening in eV -4-tet -1-fermi 0-gaus

 Electronic relaxation 2 (details)
   IALGO  =     38    algorithm
   LDIAG  =      T    sub-space diagonalisation (order eigenvalues)
   LSUBROT=      F    optimize rotation matrix (better conditioning)
   TURBO    =      0    0=normal 1=particle mesh
   IRESTART =      0    0=no restart 2=restart with 2 vectors
   NREBOOT  =      0    no. of reboots
   NMIN     =      0    reboot dimension
   EREF     =   0.00    reference energy to select bands
   IMIX   =      4    mixing-type and parameters
     AMIX     =   0.40;   BMIX     =  1.00
     AMIX_MAG =   1.60;   BMIX_MAG =  1.00
     AMIN     =   0.10
     WC   =   100.;   INIMIX=   1;  MIXPRE=   1;  MAXMIX= -45

 Intra band minimization:
   WEIMIN = 0.0010     energy-eigenvalue tresh-hold
   EBREAK =  0.18E-07  absolut break condition
   DEPER  =   0.30     relativ break condition  

   TIME   =   0.40     timestep for ELM

  volume/ion in A,a.u.               =      94.43       637.26
  Fermi-wavevector in a.u.,A,eV,Ry     =   0.614740  1.161691  5.141718  0.377906
  Thomas-Fermi vector in A             =   1.671859
 
 Write flags
   LWAVE        =      T    write WAVECAR
   LDOWNSAMPLE  =      F    k-point downsampling of WAVECAR
   LCHARG       =      T    write CHGCAR
   LVTOT        =      F    write LOCPOT, total local potential
   LVHAR        =      F    write LOCPOT, Hartree potential only
   LELF         =      F    write electronic localiz. function (ELF)
   LORBIT       =      0    0 simple, 1 ext, 2 COOP (PROOUT), +10 PAW based schemes


 Dipole corrections
   LMONO  =      F    monopole corrections only (constant potential shift)
   LDIPOL =      F    correct potential (dipole corrections)
   IDIPOL =      0    1-x, 2-y, 3-z, 4-all directions 
   EPSILON=  1.0000000 bulk dielectric constant

 Exchange correlation treatment:
   GGA     =    PE    GGA type
   LEXCH   =     8    internal setting for exchange type
   VOSKOWN=      0    Vosko Wilk Nusair interpolation
   LHFCALC =     F    Hartree Fock is set to
   LHFONE  =     F    Hartree Fock one center treatment
   AEXX    =    0.0000 exact exchange contribution

 Linear response parameters
   LEPSILON=     F    determine dielectric tensor
   LRPA    =     F    only Hartree local field effects (RPA)
   LNABLA  =     F    use nabla operator in PAW spheres
   LVEL    =     F    velocity operator in full k-point grid
   LINTERFAST=   F  fast interpolation
   KINTER  =     0    interpolate to denser k-point grid
   CSHIFT  =0.1000    complex shift for real part using Kramers Kronig
   OMEGAMAX=  -1.0    maximum frequency
   DEG_THRESHOLD= 0.2000000E-02 threshold for treating states as degnerate
   RTIME   =   -0.100 relaxation time in fs
  (WPLASMAI=    0.000 imaginary part of plasma frequency in eV, 0.658/RTIME)
   DFIELD  = 0.0000000 0.0000000 0.0000000 field for delta impulse in time
 
 Orbital magnetization related:
   ORBITALMAG=     F  switch on orbital magnetization
   LCHIMAG   =     F  perturbation theory with respect to B field
   DQ        =  0.001000  dq finite difference perturbation B field
   LLRAUG    =     F  two centre corrections for induced B field



--------------------------------------------------------------------------------------------------------


 conjugate gradient relaxation of ions
 charge density and potential will be updated during run
 non-spin polarized calculation
 Variant of blocked Davidson
 Davidson routine will perform the subspace rotation
 perform sub-space diagonalisation
    after iterative eigenvector-optimisation
 modified Broyden-mixing scheme, WC =      100.0
 initial mixing is a Kerker type mixing with AMIX =  0.4000 and BMIX =      1.0000
 Hartree-type preconditioning will be used
 using additional bands            4
 reciprocal scheme for non local part
 use partial core corrections
 calculate Harris-corrections to forces 
   (improved forces if not selfconsistent)
 use gradient corrections 
 use of overlap-Matrix (Vanderbilt PP)
 Gauss-broadening in eV      SIGMA  =   0.10


--------------------------------------------------------------------------------------------------------


  energy-cutoff  :      600.00
  volume of cell :      377.73
      direct lattice vectors                 reciprocal lattice vectors
     4.399886192  0.000000000  0.000000000     0.227278606  0.000000000  0.000000000
     0.000000000  4.292477857  0.000000000     0.000000000  0.232965675  0.000000000
     0.000000000  0.000000000 20.000000000     0.000000000  0.000000000  0.050000000

  length of vectors
     4.399886192  4.292477857 20.000000000     0.227278606  0.232965675  0.050000000


 
 k-points in units of 2pi/SCALE and weight: Automatic                               
   0.00000000  0.00000000  0.00000000       0.004
   0.01515191  0.00000000  0.00000000       0.009
   0.03030381  0.00000000  0.00000000       0.009
   0.04545572  0.00000000  0.00000000       0.009
   0.06060763  0.00000000  0.00000000       0.009
   0.07575954  0.00000000  0.00000000       0.009
   0.09091144  0.00000000  0.00000000       0.009
   0.10606335  0.00000000  0.00000000       0.009
   0.00000000  0.01553104  0.00000000       0.009
   0.01515191  0.01553104  0.00000000       0.018
   0.03030381  0.01553104  0.00000000       0.018
   0.04545572  0.01553104  0.00000000       0.018
   0.06060763  0.01553104  0.00000000       0.018
   0.07575954  0.01553104  0.00000000       0.018
   0.09091144  0.01553104  0.00000000       0.018
   0.10606335  0.01553104  0.00000000       0.018
   0.00000000  0.03106209  0.00000000       0.009
   0.01515191  0.03106209  0.00000000       0.018
   0.03030381  0.03106209  0.00000000       0.018
   0.04545572  0.03106209  0.00000000       0.018
   0.06060763  0.03106209  0.00000000       0.018
   0.07575954  0.03106209  0.00000000       0.018
   0.09091144  0.03106209  0.00000000       0.018
   0.10606335  0.03106209  0.00000000       0.018
   0.00000000  0.04659313  0.00000000       0.009
   0.01515191  0.04659313  0.00000000       0.018
   0.03030381  0.04659313  0.00000000       0.018
   0.04545572  0.04659313  0.00000000       0.018
   0.06060763  0.04659313  0.00000000       0.018
   0.07575954  0.04659313  0.00000000       0.018
   0.09091144  0.04659313  0.00000000       0.018
   0.10606335  0.04659313  0.00000000       0.018
   0.00000000  0.06212418  0.00000000       0.009
   0.01515191  0.06212418  0.00000000       0.018
   0.03030381  0.06212418  0.00000000       0.018
   0.04545572  0.06212418  0.00000000       0.018
   0.06060763  0.06212418  0.00000000       0.018
   0.07575954  0.06212418  0.00000000       0.018
   0.09091144  0.06212418  0.00000000       0.018
   0.10606335  0.06212418  0.00000000       0.018
   0.00000000  0.07765522  0.00000000       0.009
   0.01515191  0.07765522  0.00000000       0.018
   0.03030381  0.07765522  0.00000000       0.018
   0.04545572  0.07765522  0.00000000       0.018
   0.06060763  0.07765522  0.00000000       0.018
   0.07575954  0.07765522  0.00000000       0.018
   0.09091144  0.07765522  0.00000000       0.018
   0.10606335  0.07765522  0.00000000       0.018
   0.00000000  0.09318627  0.00000000       0.009
   0.01515191  0.09318627  0.00000000       0.018
   0.03030381  0.09318627  0.00000000       0.018
   0.04545572  0.09318627  0.00000000       0.018
   0.06060763  0.09318627  0.00000000       0.018
   0.07575954  0.09318627  0.00000000       0.018
   0.09091144  0.09318627  0.00000000       0.018
   0.10606335  0.09318627  0.00000000       0.018
   0.00000000  0.10871731  0.00000000       0.009
   0.01515191  0.10871731  0.00000000       0.018
   0.03030381  0.10871731  0.00000000       0.018
   0.04545572  0.10871731  0.00000000       0.018
   0.06060763  0.10871731  0.00000000       0.018
   0.07575954  0.10871731  0.00000000       0.018
   0.09091144  0.10871731  0.00000000       0.018
   0.10606335  0.10871731  0.00000000       0.018
 
 k-points in reciprocal lattice and weights: Automatic                               
   0.00000000  0.00000000  0.00000000       0.004
   0.06666667  0.00000000  0.00000000       0.009
   0.13333333  0.00000000  0.00000000       0.009
   0.20000000  0.00000000  0.00000000       0.009
   0.26666667  0.00000000  0.00000000       0.009
   0.33333333  0.00000000  0.00000000       0.009
   0.40000000  0.00000000  0.00000000       0.009
   0.46666667  0.00000000  0.00000000       0.009
   0.00000000  0.06666667  0.00000000       0.009
   0.06666667  0.06666667  0.00000000       0.018
   0.13333333  0.06666667  0.00000000       0.018
   0.20000000  0.06666667  0.00000000       0.018
   0.26666667  0.06666667  0.00000000       0.018
   0.33333333  0.06666667  0.00000000       0.018
   0.40000000  0.06666667  0.00000000       0.018
   0.46666667  0.06666667  0.00000000       0.018
   0.00000000  0.13333333  0.00000000       0.009
   0.06666667  0.13333333  0.00000000       0.018
   0.13333333  0.13333333  0.00000000       0.018
   0.20000000  0.13333333  0.00000000       0.018
   0.26666667  0.13333333  0.00000000       0.018
   0.33333333  0.13333333  0.00000000       0.018
   0.40000000  0.13333333  0.00000000       0.018
   0.46666667  0.13333333  0.00000000       0.018
   0.00000000  0.20000000  0.00000000       0.009
   0.06666667  0.20000000  0.00000000       0.018
   0.13333333  0.20000000  0.00000000       0.018
   0.20000000  0.20000000  0.00000000       0.018
   0.26666667  0.20000000  0.00000000       0.018
   0.33333333  0.20000000  0.00000000       0.018
   0.40000000  0.20000000  0.00000000       0.018
   0.46666667  0.20000000  0.00000000       0.018
   0.00000000  0.26666667  0.00000000       0.009
   0.06666667  0.26666667  0.00000000       0.018
   0.13333333  0.26666667  0.00000000       0.018
   0.20000000  0.26666667  0.00000000       0.018
   0.26666667  0.26666667  0.00000000       0.018
   0.33333333  0.26666667  0.00000000       0.018
   0.40000000  0.26666667  0.00000000       0.018
   0.46666667  0.26666667  0.00000000       0.018
   0.00000000  0.33333333  0.00000000       0.009
   0.06666667  0.33333333  0.00000000       0.018
   0.13333333  0.33333333  0.00000000       0.018
   0.20000000  0.33333333  0.00000000       0.018
   0.26666667  0.33333333  0.00000000       0.018
   0.33333333  0.33333333  0.00000000       0.018
   0.40000000  0.33333333  0.00000000       0.018
   0.46666667  0.33333333  0.00000000       0.018
   0.00000000  0.40000000  0.00000000       0.009
   0.06666667  0.40000000  0.00000000       0.018
   0.13333333  0.40000000  0.00000000       0.018
   0.20000000  0.40000000  0.00000000       0.018
   0.26666667  0.40000000  0.00000000       0.018
   0.33333333  0.40000000  0.00000000       0.018
   0.40000000  0.40000000  0.00000000       0.018
   0.46666667  0.40000000  0.00000000       0.018
   0.00000000  0.46666667  0.00000000       0.009
   0.06666667  0.46666667  0.00000000       0.018
   0.13333333  0.46666667  0.00000000       0.018
   0.20000000  0.46666667  0.00000000       0.018
   0.26666667  0.46666667  0.00000000       0.018
   0.33333333  0.46666667  0.00000000       0.018
   0.40000000  0.46666667  0.00000000       0.018
   0.46666667  0.46666667  0.00000000       0.018
 
 position of ions in fractional coordinates (direct lattice) 
   0.58124336  0.75000000  0.56874314
   0.08124336  0.25000000  0.43125686
   0.03286064  0.25000000  0.56707387
   0.53286061  0.75000000  0.43292613
 
 position of ions in cartesian coordinates  (Angst):
   2.55740463  3.21935839 11.37486283
   0.35746153  1.07311946  8.62513717
   0.14458309  1.07311946 11.34147733
   2.34452606  3.21935839  8.65852267
 


--------------------------------------------------------------------------------------------------------


 k-point  1 :   0.0000 0.0000 0.0000  plane waves:   12671
 k-point  2 :   0.0667 0.0000 0.0000  plane waves:   12653
 k-point  3 :   0.1333 0.0000 0.0000  plane waves:   12637
 k-point  4 :   0.2000 0.0000 0.0000  plane waves:   12593
 k-point  5 :   0.2667 0.0000 0.0000  plane waves:   12572
 k-point  6 :   0.3333 0.0000 0.0000  plane waves:   12624
 k-point  7 :   0.4000 0.0000 0.0000  plane waves:   12644
 k-point  8 :   0.4667 0.0000 0.0000  plane waves:   12644
 k-point  9 :   0.0000 0.0667 0.0000  plane waves:   12621
 k-point 10 :   0.0667 0.0667 0.0000  plane waves:   12645
 k-point 11 :   0.1333 0.0667 0.0000  plane waves:   12624
 k-point 12 :   0.2000 0.0667 0.0000  plane waves:   12603
 k-point 13 :   0.2667 0.0667 0.0000  plane waves:   12603
 k-point 14 :   0.3333 0.0667 0.0000  plane waves:   12627
 k-point 15 :   0.4000 0.0667 0.0000  plane waves:   12626
 k-point 16 :   0.4667 0.0667 0.0000  plane waves:   12645
 k-point 17 :   0.0000 0.1333 0.0000  plane waves:   12623
 k-point 18 :   0.0667 0.1333 0.0000  plane waves:   12616
 k-point 19 :   0.1333 0.1333 0.0000  plane waves:   12611
 k-point 20 :   0.2000 0.1333 0.0000  plane waves:   12588
 k-point 21 :   0.2667 0.1333 0.0000  plane waves:   12603
 k-point 22 :   0.3333 0.1333 0.0000  plane waves:   12624
 k-point 23 :   0.4000 0.1333 0.0000  plane waves:   12630
 k-point 24 :   0.4667 0.1333 0.0000  plane waves:   12628
 k-point 25 :   0.0000 0.2000 0.0000  plane waves:   12625
 k-point 26 :   0.0667 0.2000 0.0000  plane waves:   12606
 k-point 27 :   0.1333 0.2000 0.0000  plane waves:   12600
 k-point 28 :   0.2000 0.2000 0.0000  plane waves:   12619
 k-point 29 :   0.2667 0.2000 0.0000  plane waves:   12612
 k-point 30 :   0.3333 0.2000 0.0000  plane waves:   12607
 k-point 31 :   0.4000 0.2000 0.0000  plane waves:   12632
 k-point 32 :   0.4667 0.2000 0.0000  plane waves:   12642
 k-point 33 :   0.0000 0.2667 0.0000  plane waves:   12593
 k-point 34 :   0.0667 0.2667 0.0000  plane waves:   12591
 k-point 35 :   0.1333 0.2667 0.0000  plane waves:   12595
 k-point 36 :   0.2000 0.2667 0.0000  plane waves:   12603
 k-point 37 :   0.2667 0.2667 0.0000  plane waves:   12608
 k-point 38 :   0.3333 0.2667 0.0000  plane waves:   12596
 k-point 39 :   0.4000 0.2667 0.0000  plane waves:   12621
 k-point 40 :   0.4667 0.2667 0.0000  plane waves:   12617
 k-point 41 :   0.0000 0.3333 0.0000  plane waves:   12579
 k-point 42 :   0.0667 0.3333 0.0000  plane waves:   12583
 k-point 43 :   0.1333 0.3333 0.0000  plane waves:   12591
 k-point 44 :   0.2000 0.3333 0.0000  plane waves:   12597
 k-point 45 :   0.2667 0.3333 0.0000  plane waves:   12597
 k-point 46 :   0.3333 0.3333 0.0000  plane waves:   12598
 k-point 47 :   0.4000 0.3333 0.0000  plane waves:   12601
 k-point 48 :   0.4667 0.3333 0.0000  plane waves:   12615
 k-point 49 :   0.0000 0.4000 0.0000  plane waves:   12553
 k-point 50 :   0.0667 0.4000 0.0000  plane waves:   12563
 k-point 51 :   0.1333 0.4000 0.0000  plane waves:   12584
 k-point 52 :   0.2000 0.4000 0.0000  plane waves:   12584
 k-point 53 :   0.2667 0.4000 0.0000  plane waves:   12609
 k-point 54 :   0.3333 0.4000 0.0000  plane waves:   12592
 k-point 55 :   0.4000 0.4000 0.0000  plane waves:   12584
 k-point 56 :   0.4667 0.4000 0.0000  plane waves:   12586
 k-point 57 :   0.0000 0.4667 0.0000  plane waves:   12590
 k-point 58 :   0.0667 0.4667 0.0000  plane waves:   12572
 k-point 59 :   0.1333 0.4667 0.0000  plane waves:   12572
 k-point 60 :   0.2000 0.4667 0.0000  plane waves:   12580
 k-point 61 :   0.2667 0.4667 0.0000  plane waves:   12568
 k-point 62 :   0.3333 0.4667 0.0000  plane waves:   12581
 k-point 63 :   0.4000 0.4667 0.0000  plane waves:   12585
 k-point 64 :   0.4667 0.4667 0.0000  plane waves:   12585

 maximum and minimum number of plane-waves per node :       559      498

 maximum number of plane-waves:     12671
 maximum index in each direction: 
   IXMAX=    8   IYMAX=    8   IZMAX=   39
   IXMIN=   -9   IYMIN=   -9   IZMIN=  -39


 parallel 3D FFT for wavefunctions:
    minimum data exchange during FFTs selected (reduces bandwidth)
 parallel 3D FFT for charge:
    minimum data exchange during FFTs selected (reduces bandwidth)


 total amount of memory used by VASP MPI-rank0    51935. kBytes
=======================================================================

   base      :      30000. kBytes
   nonl-proj :       7102. kBytes
   fftplans  :       2678. kBytes
   grid      :       4349. kBytes
   one-center:          8. kBytes
   wavefun   :       7798. kBytes
 
     INWAV:  cpu time    0.0000: real time    0.0000
 Broyden mixing: mesh for mixing (old mesh)
   NGX = 17   NGY = 17   NGZ = 79
  (NGX  = 72   NGY  = 72   NGZ  =320)
  gives a total of  22831 points

 initial charge density was supplied:
 charge density of overlapping atoms calculated
 number of electron      20.0000000 magnetization 
 keeping initial charge density in first step


--------------------------------------------------------------------------------------------------------


 Maximum index for augmentation-charges         2212 (set IRDMAX)


--------------------------------------------------------------------------------------------------------


 First call to EWALD:  gamma=   0.245
 Maximum number of real-space cells 4x 4x 1
 Maximum number of reciprocal cells 2x 2x 7

    FEWALD:  cpu time    0.0014: real time    0.0014


--------------------------------------- Iteration      1(   1)  ---------------------------------------


    POTLOK:  cpu time    0.0696: real time    0.4277
    SETDIJ:  cpu time    0.0104: real time    0.0106
     EDDAV:  cpu time    1.6276: real time    1.6342
       DOS:  cpu time    0.0033: real time    0.0033
    --------------------------------------------
      LOOP:  cpu time    1.7109: real time    2.0758

 eigenvalue-minimisations  :  1792
 total energy-change (2. order) : 0.1437620E+03  (-0.6281153E+03)
 number of electron      20.0000000 magnetization 
 augmentation part       20.0000000 magnetization 

 Free energy of the ion-electron system (eV)
  ---------------------------------------------------
  alpha Z        PSCENC =         9.46635214
  Ewald energy   TEWEN  =      1146.32141658
  -Hartree energ DENC   =     -1748.13379251
  -exchange      EXHF   =         0.00000000
  -V(xc)+E(xc)   XCENC  =      -238.61480441
  PAW double counting   =       799.43158084     -524.17639913
  entropy T*S    EENTRO =        -0.01105094
  eigenvalues    EBANDS =        -2.94921841
  atomic energy  EATOM  =       702.42789710
  Solvation  Ediel_sol  =         0.00000000
  ---------------------------------------------------
  free energy    TOTEN  =       143.76198126 eV

  energy without entropy =      143.77303220  energy(sigma->0) =      143.76750673


--------------------------------------------------------------------------------------------------------




--------------------------------------- Iteration      1(   2)  ---------------------------------------


     EDDAV:  cpu time    2.3020: real time    2.3118
       DOS:  cpu time    0.0036: real time    0.0036
    --------------------------------------------
      LOOP:  cpu time    2.3056: real time    2.3154

 eigenvalue-minimisations  :  2928
 total energy-change (2. order) :-0.1390237E+03  (-0.1348218E+03)
 number of electron      20.0000000 magnetization 
 augmentation part       20.0000000 magnetization 

 Free energy of the ion-electron system (eV)
  ---------------------------------------------------
  alpha Z        PSCENC =         9.46635214
  Ewald energy   TEWEN  =      1146.32141658
  -Hartree energ DENC   =     -1748.13379251
  -exchange      EXHF   =         0.00000000
  -V(xc)+E(xc)   XCENC  =      -238.61480441
  PAW double counting   =       799.43158084     -524.17639913
  entropy T*S    EENTRO =        -0.00313273
  eigenvalues    EBANDS =      -141.98087368
  atomic energy  EATOM  =       702.42789710
  Solvation  Ediel_sol  =         0.00000000
  ---------------------------------------------------
  free energy    TOTEN  =         4.73824420 eV

  energy without entropy =        4.74137693  energy(sigma->0) =        4.73981056


--------------------------------------------------------------------------------------------------------




--------------------------------------- Iteration      1(   3)  ---------------------------------------


     EDDAV:  cpu time    1.9291: real time    1.9370
       DOS:  cpu time    0.0023: real time    0.0023
    --------------------------------------------
      LOOP:  cpu time    1.9314: real time    1.9393

 eigenvalue-minimisations  :  2260
 total energy-change (2. order) :-0.2072699E+02  (-0.2048133E+02)
 number of electron      20.0000000 magnetization 
 augmentation part       20.0000000 magnetization 

 Free energy of the ion-electron system (eV)
  ---------------------------------------------------
  alpha Z        PSCENC =         9.46635214
  Ewald energy   TEWEN  =      1146.32141658
  -Hartree energ DENC   =     -1748.13379251
  -exchange      EXHF   =         0.00000000
  -V(xc)+E(xc)   XCENC  =      -238.61480441
  PAW double counting   =       799.43158084     -524.17639913
  entropy T*S    EENTRO =        -0.00000000
  eigenvalues    EBANDS =      -162.71099514
  atomic energy  EATOM  =       702.42789710
  Solvation  Ediel_sol  =         0.00000000
  ---------------------------------------------------
  free energy    TOTEN  =       -15.98874453 eV

  energy without entropy =      -15.98874453  energy(sigma->0) =      -15.98874453


--------------------------------------------------------------------------------------------------------




--------------------------------------- Iteration      1(   4)  ---------------------------------------


     EDDAV:  cpu time    2.0957: real time    2.1048
       DOS:  cpu time    0.0024: real time    0.0024
    --------------------------------------------
      LOOP:  cpu time    2.0981: real time    2.1072

 eigenvalue-minimisations  :  2620
 total energy-change (2. order) :-0.7945479E+00  (-0.7920068E+00)
 number of electron      20.0000000 magnetization 
 augmentation part       20.0000000 magnetization 

 Free energy of the ion-electron system (eV)
  ---------------------------------------------------
  alpha Z        PSCENC =         9.46635214
  Ewald energy   TEWEN  =      1146.32141658
  -Hartree energ DENC   =     -1748.13379251
  -exchange      EXHF   =         0.00000000
  -V(xc)+E(xc)   XCENC  =      -238.61480441
  PAW double counting   =       799.43158084     -524.17639913
  entropy T*S    EENTRO =        -0.00000000
  eigenvalues    EBANDS =      -163.50554302
  atomic energy  EATOM  =       702.42789710
  Solvation  Ediel_sol  =         0.00000000
  ---------------------------------------------------
  free energy    TOTEN  =       -16.78329241 eV

  energy without entropy =      -16.78329241  energy(sigma->0) =      -16.78329241


--------------------------------------------------------------------------------------------------------




--------------------------------------- Iteration      1(   5)  ---------------------------------------


     EDDAV:  cpu time    1.9120: real time    1.9201
       DOS:  cpu time    0.0024: real time    0.0024
    CHARGE:  cpu time    0.1661: real time    0.1666
    MIXING:  cpu time    0.0014: real time    0.0015
    --------------------------------------------
      LOOP:  cpu time    2.0819: real time    2.0905

 eigenvalue-minimisations  :  2336
 total energy-change (2. order) :-0.1690173E-01  (-0.1689079E-01)
 number of electron      20.0000000 magnetization 
 augmentation part       -4.5219968 magnetization 

 Broyden mixing:
  rms(total) = 0.44966E+00    rms(broyden)= 0.44966E+00
  rms(prec ) = 0.49081E+00
  weight for this iteration     100.00

 Free energy of the ion-electron system (eV)
  ---------------------------------------------------
  alpha Z        PSCENC =         9.46635214
  Ewald energy   TEWEN  =      1146.32141658
  -Hartree energ DENC   =     -1748.13379251
  -exchange      EXHF   =         0.00000000
  -V(xc)+E(xc)   XCENC  =      -238.61480441
  PAW double counting   =       799.43158084     -524.17639913
  entropy T*S    EENTRO =        -0.00000000
  eigenvalues    EBANDS =      -163.52244475
  atomic energy  EATOM  =       702.42789710
  Solvation  Ediel_sol  =         0.00000000
  ---------------------------------------------------
  free energy    TOTEN  =       -16.80019414 eV

  energy without entropy =      -16.80019414  energy(sigma->0) =      -16.80019414


--------------------------------------------------------------------------------------------------------




--------------------------------------- Iteration      1(   6)  ---------------------------------------


    POTLOK:  cpu time    0.0455: real time    0.0458
    SETDIJ:  cpu time    0.0038: real time    0.0059
     EDDAV:  cpu time    1.9079: real time    1.9161
       DOS:  cpu time    0.0025: real time    0.0025
    CHARGE:  cpu time    0.1597: real time    0.1606
    MIXING:  cpu time    0.0013: real time    0.0013
    --------------------------------------------
      LOOP:  cpu time    2.1207: real time    2.1321

 eigenvalue-minimisations  :  2296
 total energy-change (2. order) : 0.4957413E+00  (-0.1276279E+00)
 number of electron      20.0000000 magnetization 
 augmentation part       -4.4892213 magnetization 

 Broyden mixing:
  rms(total) = 0.27544E+00    rms(broyden)= 0.27544E+00
  rms(prec ) = 0.28461E+00
  weight for this iteration     100.00

 eigenvalues of (default mixing * dielectric matrix)
  average eigenvalue GAMMA=   1.7818
  1.7818

 Free energy of the ion-electron system (eV)
  ---------------------------------------------------
  alpha Z        PSCENC =         9.46635214
  Ewald energy   TEWEN  =      1146.32141658
  -Hartree energ DENC   =     -1756.03506891
  -exchange      EXHF   =         0.00000000
  -V(xc)+E(xc)   XCENC  =      -238.13039950
  PAW double counting   =       923.20088565     -648.12551257
  entropy T*S    EENTRO =        -0.00000000
  eigenvalues    EBANDS =      -155.43002334
  atomic energy  EATOM  =       702.42789710
  Solvation  Ediel_sol  =         0.00000000
  ---------------------------------------------------
  free energy    TOTEN  =       -16.30445285 eV

  energy without entropy =      -16.30445285  energy(sigma->0) =      -16.30445285


--------------------------------------------------------------------------------------------------------




--------------------------------------- Iteration      1(   7)  ---------------------------------------


    POTLOK:  cpu time    0.0454: real time    0.0457
    SETDIJ:  cpu time    0.0037: real time    0.0060
     EDDAV:  cpu time    1.9596: real time    1.9640
       DOS:  cpu time    0.0025: real time    0.0025
    CHARGE:  cpu time    0.1574: real time    0.1578
    MIXING:  cpu time    0.0013: real time    0.0013
    --------------------------------------------
      LOOP:  cpu time    2.1700: real time    2.1773

 eigenvalue-minimisations  :  2328
 total energy-change (2. order) : 0.2700155E-01  (-0.3072426E-01)
 number of electron      20.0000000 magnetization 
 augmentation part       -4.4813269 magnetization 

 Broyden mixing:
  rms(total) = 0.10564E+00    rms(broyden)= 0.10564E+00
  rms(prec ) = 0.11101E+00
  weight for this iteration     100.00

 eigenvalues of (default mixing * dielectric matrix)
  average eigenvalue GAMMA=   1.7299
  1.3643  2.0956

 Free energy of the ion-electron system (eV)
  ---------------------------------------------------
  alpha Z        PSCENC =         9.46635214
  Ewald energy   TEWEN  =      1146.32141658
  -Hartree energ DENC   =     -1760.97175583
  -exchange      EXHF   =         0.00000000
  -V(xc)+E(xc)   XCENC  =      -237.81084975
  PAW double counting   =      1061.88457615     -786.94385127
  entropy T*S    EENTRO =        -0.00000000
  eigenvalues    EBANDS =      -150.65123642
  atomic energy  EATOM  =       702.42789710
  Solvation  Ediel_sol  =         0.00000000
  ---------------------------------------------------
  free energy    TOTEN  =       -16.27745130 eV

  energy without entropy =      -16.27745130  energy(sigma->0) =      -16.27745130


--------------------------------------------------------------------------------------------------------




--------------------------------------- Iteration      1(   8)  ---------------------------------------


    POTLOK:  cpu time    0.0463: real time    0.0464
    SETDIJ:  cpu time    0.0037: real time    0.0037
     EDDAV:  cpu time    2.0521: real time    2.0567
       DOS:  cpu time    0.0024: real time    0.0024
    CHARGE:  cpu time    0.1577: real time    0.1580
    MIXING:  cpu time    0.0014: real time    0.0014
    --------------------------------------------
      LOOP:  cpu time    2.2637: real time    2.2687

 eigenvalue-minimisations  :  2552
 total energy-change (2. order) : 0.9489562E-02  (-0.3694630E-02)
 number of electron      20.0000000 magnetization 
 augmentation part       -4.4855019 magnetization 

 Broyden mixing:
  rms(total) = 0.20126E-01    rms(broyden)= 0.20126E-01
  rms(prec ) = 0.27576E-01
  weight for this iteration     100.00

 eigenvalues of (default mixing * dielectric matrix)
  average eigenvalue GAMMA=   1.6999
  2.5170  1.2914  1.2914

 Free energy of the ion-electron system (eV)
  ---------------------------------------------------
  alpha Z        PSCENC =         9.46635214
  Ewald energy   TEWEN  =      1146.32141658
  -Hartree energ DENC   =     -1762.71459491
  -exchange      EXHF   =         0.00000000
  -V(xc)+E(xc)   XCENC  =      -237.72899271
  PAW double counting   =      1128.64039873     -853.73871179
  entropy T*S    EENTRO =        -0.00000000
  eigenvalues    EBANDS =      -148.94172688
  atomic energy  EATOM  =       702.42789710
  Solvation  Ediel_sol  =         0.00000000
  ---------------------------------------------------
  free energy    TOTEN  =       -16.26796174 eV

  energy without entropy =      -16.26796174  energy(sigma->0) =      -16.26796174


--------------------------------------------------------------------------------------------------------




--------------------------------------- Iteration      1(   9)  ---------------------------------------


    POTLOK:  cpu time    0.0457: real time    0.0458
    SETDIJ:  cpu time    0.0037: real time    0.0037
     EDDAV:  cpu time    1.9705: real time    1.9751
       DOS:  cpu time    0.0025: real time    0.0025
    CHARGE:  cpu time    0.1567: real time    0.1570
    MIXING:  cpu time    0.0015: real time    0.0015
    --------------------------------------------
      LOOP:  cpu time    2.1807: real time    2.1857

 eigenvalue-minimisations  :  2428
 total energy-change (2. order) : 0.3666135E-02  (-0.6374987E-03)
 number of electron      20.0000000 magnetization 
 augmentation part       -4.4836629 magnetization 

 Broyden mixing:
  rms(total) = 0.99633E-02    rms(broyden)= 0.99633E-02
  rms(prec ) = 0.15576E-01
  weight for this iteration     100.00

 eigenvalues of (default mixing * dielectric matrix)
  average eigenvalue GAMMA=   1.7141
  2.2366  2.2366  1.1916  1.1916

 Free energy of the ion-electron system (eV)
  ---------------------------------------------------
  alpha Z        PSCENC =         9.46635214
  Ewald energy   TEWEN  =      1146.32141658
  -Hartree energ DENC   =     -1764.66291146
  -exchange      EXHF   =         0.00000000
  -V(xc)+E(xc)   XCENC  =      -237.65707551
  PAW double counting   =      1146.00418383     -871.11381369
  entropy T*S    EENTRO =        -0.00000000
  eigenvalues    EBANDS =      -147.05034459
  atomic energy  EATOM  =       702.42789710
  Solvation  Ediel_sol  =         0.00000000
  ---------------------------------------------------
  free energy    TOTEN  =       -16.26429560 eV

  energy without entropy =      -16.26429560  energy(sigma->0) =      -16.26429560


--------------------------------------------------------------------------------------------------------




--------------------------------------- Iteration      1(  10)  ---------------------------------------


    POTLOK:  cpu time    0.0464: real time    0.0466
    SETDIJ:  cpu time    0.0037: real time    0.0037
     EDDAV:  cpu time    1.9959: real time    2.0004
       DOS:  cpu time    0.0025: real time    0.0025
    CHARGE:  cpu time    0.1571: real time    0.1576
    MIXING:  cpu time    0.0015: real time    0.0015
    --------------------------------------------
      LOOP:  cpu time    2.2071: real time    2.2123

 eigenvalue-minimisations  :  2464
 total energy-change (2. order) : 0.1302874E-02  (-0.1214217E-03)
 number of electron      20.0000000 magnetization 
 augmentation part       -4.4823853 magnetization 

 Broyden mixing:
  rms(total) = 0.49904E-02    rms(broyden)= 0.49904E-02
  rms(prec ) = 0.92849E-02
  weight for this iteration     100.00

 eigenvalues of (default mixing * dielectric matrix)
  average eigenvalue GAMMA=   1.8580
  3.3189  2.5921  1.2351  1.2351  0.9087

 Free energy of the ion-electron system (eV)
  ---------------------------------------------------
  alpha Z        PSCENC =         9.46635214
  Ewald energy   TEWEN  =      1146.32141658
  -Hartree energ DENC   =     -1765.94824725
  -exchange      EXHF   =         0.00000000
  -V(xc)+E(xc)   XCENC  =      -237.64495694
  PAW double counting   =      1135.97238463     -861.07229002
  entropy T*S    EENTRO =        -0.00000000
  eigenvalues    EBANDS =      -145.78554896
  atomic energy  EATOM  =       702.42789710
  Solvation  Ediel_sol  =         0.00000000
  ---------------------------------------------------
  free energy    TOTEN  =       -16.26299273 eV

  energy without entropy =      -16.26299273  energy(sigma->0) =      -16.26299273


--------------------------------------------------------------------------------------------------------




--------------------------------------- Iteration      1(  11)  ---------------------------------------


    POTLOK:  cpu time    0.0462: real time    0.0463
    SETDIJ:  cpu time    0.0037: real time    0.0037
     EDDAV:  cpu time    1.9933: real time    1.9979
       DOS:  cpu time    0.0025: real time    0.0025
    CHARGE:  cpu time    0.1569: real time    0.1572
    MIXING:  cpu time    0.0015: real time    0.0015
    --------------------------------------------
      LOOP:  cpu time    2.2041: real time    2.2092

 eigenvalue-minimisations  :  2410
 total energy-change (2. order) : 0.7235136E-03  (-0.1228429E-03)
 number of electron      20.0000000 magnetization 
 augmentation part       -4.4810215 magnetization 

 Broyden mixing:
  rms(total) = 0.32055E-02    rms(broyden)= 0.32055E-02
  rms(prec ) = 0.49644E-02
  weight for this iteration     100.00

 eigenvalues of (default mixing * dielectric matrix)
  average eigenvalue GAMMA=   1.8330
  3.4028  2.3655  1.9598  1.1902  1.1902  0.8892

 Free energy of the ion-electron system (eV)
  ---------------------------------------------------
  alpha Z        PSCENC =         9.46635214
  Ewald energy   TEWEN  =      1146.32141658
  -Hartree energ DENC   =     -1767.52779811
  -exchange      EXHF   =         0.00000000
  -V(xc)+E(xc)   XCENC  =      -237.61391006
  PAW double counting   =      1137.34371877     -862.44256977
  entropy T*S    EENTRO =        -0.00000000
  eigenvalues    EBANDS =      -144.23737586
  atomic energy  EATOM  =       702.42789710
  Solvation  Ediel_sol  =         0.00000000
  ---------------------------------------------------
  free energy    TOTEN  =       -16.26226921 eV

  energy without entropy =      -16.26226921  energy(sigma->0) =      -16.26226921


--------------------------------------------------------------------------------------------------------




--------------------------------------- Iteration      1(  12)  ---------------------------------------


    POTLOK:  cpu time    0.0467: real time    0.0469
    SETDIJ:  cpu time    0.0037: real time    0.0080
     EDDAV:  cpu time    1.7703: real time    1.7740
       DOS:  cpu time    0.0025: real time    0.0025
    CHARGE:  cpu time    0.1601: real time    0.1604
    MIXING:  cpu time    0.0017: real time    0.0017
    --------------------------------------------
      LOOP:  cpu time    1.9850: real time    1.9934

 eigenvalue-minimisations  :  2056
 total energy-change (2. order) :-0.8204608E-03  (-0.2777535E-04)
 number of electron      20.0000000 magnetization 
 augmentation part       -4.4803853 magnetization 

 Broyden mixing:
  rms(total) = 0.17249E-02    rms(broyden)= 0.17249E-02
  rms(prec ) = 0.27213E-02
  weight for this iteration     100.00

 eigenvalues of (default mixing * dielectric matrix)
  average eigenvalue GAMMA=   2.0663
  4.6172  3.0670  2.4984  1.2033  1.2033  1.0261  0.8486

 Free energy of the ion-electron system (eV)
  ---------------------------------------------------
  alpha Z        PSCENC =         9.46635214
  Ewald energy   TEWEN  =      1146.32141658
  -Hartree energ DENC   =     -1768.17607996
  -exchange      EXHF   =         0.00000000
  -V(xc)+E(xc)   XCENC  =      -237.60452105
  PAW double counting   =      1138.90691126     -864.00813945
  entropy T*S    EENTRO =        -0.00000000
  eigenvalues    EBANDS =      -143.59692629
  atomic energy  EATOM  =       702.42789710
  Solvation  Ediel_sol  =         0.00000000
  ---------------------------------------------------
  free energy    TOTEN  =       -16.26308968 eV

  energy without entropy =      -16.26308968  energy(sigma->0) =      -16.26308968


--------------------------------------------------------------------------------------------------------




--------------------------------------- Iteration      1(  13)  ---------------------------------------


    POTLOK:  cpu time    0.0468: real time    0.0470
    SETDIJ:  cpu time    0.0037: real time    0.0038
     EDDAV:  cpu time    1.8110: real time    1.8149
       DOS:  cpu time    0.0025: real time    0.0025
    CHARGE:  cpu time    0.1572: real time    0.1575
    MIXING:  cpu time    0.0017: real time    0.0017
    --------------------------------------------
      LOOP:  cpu time    2.0229: real time    2.0273

 eigenvalue-minimisations  :  2086
 total energy-change (2. order) :-0.4284397E-03  (-0.7599961E-05)
 number of electron      20.0000000 magnetization 
 augmentation part       -4.4801790 magnetization 

 Broyden mixing:
  rms(total) = 0.11047E-02    rms(broyden)= 0.11047E-02
  rms(prec ) = 0.14876E-02
  weight for this iteration     100.00

 eigenvalues of (default mixing * dielectric matrix)
  average eigenvalue GAMMA=   2.2419
  5.6714  3.2934  2.4987  2.1730  1.1595  1.1595  1.0671  0.9127

 Free energy of the ion-electron system (eV)
  ---------------------------------------------------
  alpha Z        PSCENC =         9.46635214
  Ewald energy   TEWEN  =      1146.32141658
  -Hartree energ DENC   =     -1768.58502298
  -exchange      EXHF   =         0.00000000
  -V(xc)+E(xc)   XCENC  =      -237.60299239
  PAW double counting   =      1137.89093770     -862.99110821
  entropy T*S    EENTRO =        -0.00000000
  eigenvalues    EBANDS =      -143.19099805
  atomic energy  EATOM  =       702.42789710
  Solvation  Ediel_sol  =         0.00000000
  ---------------------------------------------------
  free energy    TOTEN  =       -16.26351812 eV

  energy without entropy =      -16.26351812  energy(sigma->0) =      -16.26351812


--------------------------------------------------------------------------------------------------------




--------------------------------------- Iteration      1(  14)  ---------------------------------------


    POTLOK:  cpu time    0.0474: real time    0.0475
    SETDIJ:  cpu time    0.0042: real time    0.0062
     EDDAV:  cpu time    1.8293: real time    1.8335
       DOS:  cpu time    0.0026: real time    0.0026
    CHARGE:  cpu time    0.1552: real time    0.1555
    MIXING:  cpu time    0.0018: real time    0.0018
    --------------------------------------------
      LOOP:  cpu time    2.0405: real time    2.0472

 eigenvalue-minimisations  :  2188
 total energy-change (2. order) :-0.2682042E-03  (-0.4080817E-05)
 number of electron      20.0000000 magnetization 
 augmentation part       -4.4801536 magnetization 

 Broyden mixing:
  rms(total) = 0.39788E-03    rms(broyden)= 0.39788E-03
  rms(prec ) = 0.61490E-03
  weight for this iteration     100.00

 eigenvalues of (default mixing * dielectric matrix)
  average eigenvalue GAMMA=   2.2474
  6.7477  3.0757  2.5377  2.5377  1.1853  1.1853  0.9696  0.9936  0.9936

 Free energy of the ion-electron system (eV)
  ---------------------------------------------------
  alpha Z        PSCENC =         9.46635214
  Ewald energy   TEWEN  =      1146.32141658
  -Hartree energ DENC   =     -1768.79276512
  -exchange      EXHF   =         0.00000000
  -V(xc)+E(xc)   XCENC  =      -237.60288930
  PAW double counting   =      1138.12931733     -863.22896382
  entropy T*S    EENTRO =        -0.00000000
  eigenvalues    EBANDS =      -142.98415123
  atomic energy  EATOM  =       702.42789710
  Solvation  Ediel_sol  =         0.00000000
  ---------------------------------------------------
  free energy    TOTEN  =       -16.26378632 eV

  energy without entropy =      -16.26378632  energy(sigma->0) =      -16.26378632


--------------------------------------------------------------------------------------------------------




--------------------------------------- Iteration      1(  15)  ---------------------------------------


    POTLOK:  cpu time    0.0481: real time    0.0482
    SETDIJ:  cpu time    0.0037: real time    0.0037
     EDDAV:  cpu time    1.8288: real time    1.8331
       DOS:  cpu time    0.0026: real time    0.0026
    CHARGE:  cpu time    0.1574: real time    0.1577
    MIXING:  cpu time    0.0019: real time    0.0019
    --------------------------------------------
      LOOP:  cpu time    2.0423: real time    2.0471

 eigenvalue-minimisations  :  2182
 total energy-change (2. order) :-0.5750622E-04  (-0.2017481E-06)
 number of electron      20.0000000 magnetization 
 augmentation part       -4.4801701 magnetization 

 Broyden mixing:
  rms(total) = 0.32419E-03    rms(broyden)= 0.32419E-03
  rms(prec ) = 0.49671E-03
  weight for this iteration     100.00

 eigenvalues of (default mixing * dielectric matrix)
  average eigenvalue GAMMA=   2.3609
  6.5569  4.2987  2.7021  2.7021  1.9822  1.1427  1.1427  1.2072  0.9371  0.9371

 Free energy of the ion-electron system (eV)
  ---------------------------------------------------
  alpha Z        PSCENC =         9.46635214
  Ewald energy   TEWEN  =      1146.32141658
  -Hartree energ DENC   =     -1768.80767480
  -exchange      EXHF   =         0.00000000
  -V(xc)+E(xc)   XCENC  =      -237.60328453
  PAW double counting   =      1137.91746005     -863.01695141
  entropy T*S    EENTRO =        -0.00000000
  eigenvalues    EBANDS =      -142.96905896
  atomic energy  EATOM  =       702.42789710
  Solvation  Ediel_sol  =         0.00000000
  ---------------------------------------------------
  free energy    TOTEN  =       -16.26384383 eV

  energy without entropy =      -16.26384383  energy(sigma->0) =      -16.26384383


--------------------------------------------------------------------------------------------------------




--------------------------------------- Iteration      1(  16)  ---------------------------------------


    POTLOK:  cpu time    0.0468: real time    0.0470
    SETDIJ:  cpu time    0.0037: real time    0.0038
     EDDAV:  cpu time    1.7025: real time    1.7064
       DOS:  cpu time    0.0025: real time    0.0025
    CHARGE:  cpu time    0.1574: real time    0.1577
    MIXING:  cpu time    0.0019: real time    0.0019
    --------------------------------------------
      LOOP:  cpu time    1.9149: real time    1.9193

 eigenvalue-minimisations  :  1986
 total energy-change (2. order) :-0.4448384E-04  (-0.8178180E-06)
 number of electron      20.0000000 magnetization 
 augmentation part       -4.4801822 magnetization 

 Broyden mixing:
  rms(total) = 0.12238E-03    rms(broyden)= 0.12238E-03
  rms(prec ) = 0.22249E-03
  weight for this iteration     100.00

 eigenvalues of (default mixing * dielectric matrix)
  average eigenvalue GAMMA=   2.2848
  6.8064  4.5197  2.6414  2.6414  2.2810  1.1555  1.1555  1.1882  0.9397  0.9397
  0.8643

 Free energy of the ion-electron system (eV)
  ---------------------------------------------------
  alpha Z        PSCENC =         9.46635214
  Ewald energy   TEWEN  =      1146.32141658
  -Hartree energ DENC   =     -1768.85950808
  -exchange      EXHF   =         0.00000000
  -V(xc)+E(xc)   XCENC  =      -237.60333494
  PAW double counting   =      1137.79751942     -862.89703461
  entropy T*S    EENTRO =        -0.00000000
  eigenvalues    EBANDS =      -142.91719592
  atomic energy  EATOM  =       702.42789710
  Solvation  Ediel_sol  =         0.00000000
  ---------------------------------------------------
  free energy    TOTEN  =       -16.26388831 eV

  energy without entropy =      -16.26388831  energy(sigma->0) =      -16.26388831


--------------------------------------------------------------------------------------------------------




--------------------------------------- Iteration      1(  17)  ---------------------------------------


    POTLOK:  cpu time    0.0464: real time    0.0465
    SETDIJ:  cpu time    0.0037: real time    0.0037
     EDDAV:  cpu time    1.6324: real time    1.6364
       DOS:  cpu time    0.0027: real time    0.0027
    CHARGE:  cpu time    0.1576: real time    0.1578
    MIXING:  cpu time    0.0018: real time    0.0019
    --------------------------------------------
      LOOP:  cpu time    1.8446: real time    1.8491

 eigenvalue-minimisations  :  1852
 total energy-change (2. order) :-0.2338436E-04  (-0.1213162E-06)
 number of electron      20.0000000 magnetization 
 augmentation part       -4.4801629 magnetization 

 Broyden mixing:
  rms(total) = 0.12697E-03    rms(broyden)= 0.12697E-03
  rms(prec ) = 0.18570E-03
  weight for this iteration     100.00

 eigenvalues of (default mixing * dielectric matrix)
  average eigenvalue GAMMA=   2.4036
  6.9505  5.2537  2.9531  2.9531  2.2851  2.0868  1.1535  1.1535  0.9255  0.9642
  1.0819  1.0819

 Free energy of the ion-electron system (eV)
  ---------------------------------------------------
  alpha Z        PSCENC =         9.46635214
  Ewald energy   TEWEN  =      1146.32141658
  -Hartree energ DENC   =     -1768.87515933
  -exchange      EXHF   =         0.00000000
  -V(xc)+E(xc)   XCENC  =      -237.60318301
  PAW double counting   =      1137.86050626     -862.96012830
  entropy T*S    EENTRO =        -0.00000000
  eigenvalues    EBANDS =      -142.90161312
  atomic energy  EATOM  =       702.42789710
  Solvation  Ediel_sol  =         0.00000000
  ---------------------------------------------------
  free energy    TOTEN  =       -16.26391169 eV

  energy without entropy =      -16.26391169  energy(sigma->0) =      -16.26391169


--------------------------------------------------------------------------------------------------------




--------------------------------------- Iteration      1(  18)  ---------------------------------------


    POTLOK:  cpu time    0.0461: real time    0.0463
    SETDIJ:  cpu time    0.0036: real time    0.0036
     EDDAV:  cpu time    1.7613: real time    1.7652
       DOS:  cpu time    0.0026: real time    0.0026
    CHARGE:  cpu time    0.1572: real time    0.1575
    MIXING:  cpu time    0.0023: real time    0.0023
    --------------------------------------------
      LOOP:  cpu time    1.9732: real time    1.9774

 eigenvalue-minimisations  :  2086
 total energy-change (2. order) :-0.3822889E-04  (-0.3974094E-06)
 number of electron      20.0000000 magnetization 
 augmentation part       -4.4801543 magnetization 

 Broyden mixing:
  rms(total) = 0.59483E-04    rms(broyden)= 0.59483E-04
  rms(prec ) = 0.73749E-04
  weight for this iteration     100.00

 eigenvalues of (default mixing * dielectric matrix)
  average eigenvalue GAMMA=   2.3498
  7.0967  5.4734  3.0258  2.8503  2.5015  2.0666  1.1613  1.1613  1.2587  0.9010
  1.0350  1.0350  0.9815

 Free energy of the ion-electron system (eV)
  ---------------------------------------------------
  alpha Z        PSCENC =         9.46635214
  Ewald energy   TEWEN  =      1146.32141658
  -Hartree energ DENC   =     -1768.89731837
  -exchange      EXHF   =         0.00000000
  -V(xc)+E(xc)   XCENC  =      -237.60319688
  PAW double counting   =      1137.84963153     -862.94921928
  entropy T*S    EENTRO =        -0.00000000
  eigenvalues    EBANDS =      -142.87951274
  atomic energy  EATOM  =       702.42789710
  Solvation  Ediel_sol  =         0.00000000
  ---------------------------------------------------
  free energy    TOTEN  =       -16.26394992 eV

  energy without entropy =      -16.26394992  energy(sigma->0) =      -16.26394992


--------------------------------------------------------------------------------------------------------




--------------------------------------- Iteration      1(  19)  ---------------------------------------


    POTLOK:  cpu time    0.0461: real time    0.0463
    SETDIJ:  cpu time    0.0037: real time    0.0037
     EDDAV:  cpu time    1.6574: real time    1.6614
       DOS:  cpu time    0.0023: real time    0.0023
    CHARGE:  cpu time    0.1517: real time    0.1521
    MIXING:  cpu time    0.0023: real time    0.0022
    --------------------------------------------
      LOOP:  cpu time    1.8635: real time    1.8681

 eigenvalue-minimisations  :  1916
 total energy-change (2. order) :-0.5305864E-05  (-0.1340736E-07)
 number of electron      20.0000000 magnetization 
 augmentation part       -4.4801605 magnetization 

 Broyden mixing:
  rms(total) = 0.35717E-04    rms(broyden)= 0.35717E-04
  rms(prec ) = 0.44237E-04
  weight for this iteration     100.00

 eigenvalues of (default mixing * dielectric matrix)
  average eigenvalue GAMMA=   2.5838
  7.5163  7.5163  3.8648  3.0530  2.4125  2.4125  1.9898  1.1561  1.1561  0.9255
  0.9533  1.0842  1.0842  1.0489

 Free energy of the ion-electron system (eV)
  ---------------------------------------------------
  alpha Z        PSCENC =         9.46635214
  Ewald energy   TEWEN  =      1146.32141658
  -Hartree energ DENC   =     -1768.89736737
  -exchange      EXHF   =         0.00000000
  -V(xc)+E(xc)   XCENC  =      -237.60321436
  PAW double counting   =      1137.88634479     -862.98595153
  entropy T*S    EENTRO =        -0.00000000
  eigenvalues    EBANDS =      -142.87943257
  atomic energy  EATOM  =       702.42789710
  Solvation  Ediel_sol  =         0.00000000
  ---------------------------------------------------
  free energy    TOTEN  =       -16.26395523 eV

  energy without entropy =      -16.26395523  energy(sigma->0) =      -16.26395523


--------------------------------------------------------------------------------------------------------




--------------------------------------- Iteration      1(  20)  ---------------------------------------


    POTLOK:  cpu time    0.0451: real time    0.0453
    SETDIJ:  cpu time    0.0036: real time    0.0036
     EDDAV:  cpu time    1.4239: real time    1.4271
       DOS:  cpu time    0.0024: real time    0.0024
    CHARGE:  cpu time    0.1537: real time    0.1540
    MIXING:  cpu time    0.0022: real time    0.0022
    --------------------------------------------
      LOOP:  cpu time    1.6309: real time    1.6346

 eigenvalue-minimisations  :  1544
 total energy-change (2. order) :-0.6458474E-05  (-0.3510501E-07)
 number of electron      20.0000000 magnetization 
 augmentation part       -4.4801623 magnetization 

 Broyden mixing:
  rms(total) = 0.17944E-04    rms(broyden)= 0.17944E-04
  rms(prec ) = 0.20117E-04
  weight for this iteration     100.00

 eigenvalues of (default mixing * dielectric matrix)
  average eigenvalue GAMMA=   2.5682
  7.8000  7.8000  4.0300  3.0062  2.3624  2.3624  2.1706  1.5956  1.1527  1.1527
  0.9138  1.0761  1.0761  1.0125  1.0125

 Free energy of the ion-electron system (eV)
  ---------------------------------------------------
  alpha Z        PSCENC =         9.46635214
  Ewald energy   TEWEN  =      1146.32141658
  -Hartree energ DENC   =     -1768.90122139
  -exchange      EXHF   =         0.00000000
  -V(xc)+E(xc)   XCENC  =      -237.60321706
  PAW double counting   =      1137.86936008     -862.96894038
  entropy T*S    EENTRO =        -0.00000000
  eigenvalues    EBANDS =      -142.87560875
  atomic energy  EATOM  =       702.42789710
  Solvation  Ediel_sol  =         0.00000000
  ---------------------------------------------------
  free energy    TOTEN  =       -16.26396169 eV

  energy without entropy =      -16.26396169  energy(sigma->0) =      -16.26396169


--------------------------------------------------------------------------------------------------------




--------------------------------------- Iteration      1(  21)  ---------------------------------------


    POTLOK:  cpu time    0.0458: real time    0.0459
    SETDIJ:  cpu time    0.0037: real time    0.0037
     EDDAV:  cpu time    1.5663: real time    1.5704
       DOS:  cpu time    0.0025: real time    0.0025
    --------------------------------------------
      LOOP:  cpu time    1.6182: real time    1.6225

 eigenvalue-minimisations  :  1790
 total energy-change (2. order) :-0.7246856E-06  (-0.3469010E-08)
 number of electron      20.0000000 magnetization 
 augmentation part       -4.4801623 magnetization 

 Free energy of the ion-electron system (eV)
  ---------------------------------------------------
  alpha Z        PSCENC =         9.46635214
  Ewald energy   TEWEN  =      1146.32141658
  -Hartree energ DENC   =     -1768.90261036
  -exchange      EXHF   =         0.00000000
  -V(xc)+E(xc)   XCENC  =      -237.60319811
  PAW double counting   =      1137.86562029     -862.96519935
  entropy T*S    EENTRO =        -0.00000000
  eigenvalues    EBANDS =      -142.87424069
  atomic energy  EATOM  =       702.42789710
  Solvation  Ediel_sol  =         0.00000000
  ---------------------------------------------------
  free energy    TOTEN  =       -16.26396241 eV

  energy without entropy =      -16.26396241  energy(sigma->0) =      -16.26396241


--------------------------------------------------------------------------------------------------------




 average (electrostatic) potential at core
  the test charge radii are     1.4072  1.0808
  (the norm of the test charge is              1.0000)
       1 -51.2766       2 -51.2766       3 -59.9520       4 -59.9520
 
 
 
 E-fermi :  -1.5076     XC(G=0):  -3.3331     alpha+bet : -2.6639


 k-point     1 :       0.0000    0.0000    0.0000
  band No.  band energies     occupation 
      1     -15.3077      2.00000
      2     -14.3214      2.00000
      3      -8.2775      2.00000
      4      -7.3032      2.00000
      5      -5.4196      2.00000
      6      -5.0896      2.00000
      7      -5.0128      2.00000
      8      -3.8524      2.00000
      9      -3.8294      2.00000
     10      -2.6286      2.00000
     11      -0.4764      0.00000
     12       1.3404      0.00000
     13       1.7906      0.00000
     14       1.9510      0.00000

 k-point     2 :       0.0667    0.0000    0.0000
  band No.  band energies     occupation 
      1     -15.2897      2.00000
      2     -14.3194      2.00000
      3      -8.3461      2.00000
      4      -7.3838      2.00000
      5      -5.4213      2.00000
      6      -5.0187      2.00000
      7      -4.9826      2.00000
      8      -3.8090      2.00000
      9      -3.7425      2.00000
     10      -2.6468      2.00000
     11      -0.4649      0.00000
     12       1.3894      0.00000
     13       1.6502      0.00000
     14       1.9012      0.00000

 k-point     3 :       0.1333    0.0000    0.0000
  band No.  band energies     occupation 
      1     -15.2369      2.00000
[...]
  band No.  band energies     occupation 
      1     -14.5969      2.00000
      2     -14.2929      2.00000
      3      -8.7475      2.00000
      4      -8.4931      2.00000
      5      -6.3673      2.00000
      6      -5.1892      2.00000
      7      -5.0124      2.00000
      8      -4.0750      2.00000
      9      -3.9904      2.00000
     10      -3.0785      2.00000
     11       0.1542      0.00000
     12       1.1168      0.00000
     13       1.4608      0.00000
     14       1.7323      0.00000

 k-point    47 :       0.4000    0.3333    0.0000
  band No.  band energies     occupation 
      1     -14.5051      2.00000
      2     -14.3138      2.00000
      3      -8.6574      2.00000
      4      -8.5104      2.00000
      5      -6.3929      2.00000
      6      -5.5858      2.00000
      7      -5.0004      2.00000
      8      -4.3447      2.00000
      9      -3.9498      2.00000
     10      -3.3753      2.00000
     11       0.5134      0.00000
     12       1.3180      0.00000
     13       1.5714      0.00000
     14       2.2791      0.00000

 k-point    48 :       0.4667    0.3333    0.0000
  band No.  band energies     occupation 
      1     -14.4225      2.00000
      2     -14.3571      2.00000
      3      -8.5922      2.00000
      4      -8.5448      2.00000
      5      -6.2483      2.00000
      6      -5.9633      2.00000
      7      -4.8658      2.00000
      8      -4.6311      2.00000
      9      -3.8053      2.00000
     10      -3.6115      2.00000
     11       0.8266      0.00000
     12       1.0982      0.00000
     13       1.9828      0.00000
     14       2.2747      0.00000

 k-point    49 :       0.0000    0.4000    0.0000
  band No.  band energies     occupation 
      1     -14.7386      2.00000
      2     -14.3813      2.00000
      3      -9.2331      2.00000
      4      -8.8740      2.00000
      5      -4.7906      2.00000
      6      -4.2676      2.00000
      7      -4.0710      2.00000
      8      -3.5860      2.00000
      9      -2.8606      2.00000
     10      -2.1371      2.00000
     11      -1.0262      0.00000
     12      -0.0725      0.00000
     13       0.0140      0.00000
     14       0.3349      0.00000

 k-point    50 :       0.0667    0.4000    0.0000
  band No.  band energies     occupation 
      1     -14.7265      2.00000
      2     -14.3757      2.00000
      3      -9.2066      2.00000
      4      -8.8556      2.00000
      5      -4.7859      2.00000
      6      -4.6132      2.00000
      7      -3.9622      2.00000
      8      -3.7682      2.00000
      9      -2.6860      2.00000
     10      -2.4111      2.00000
     11      -0.7828      0.00000
     12      -0.4011      0.00000
     13       0.2117      0.00000
     14       0.3671      0.00000

 k-point    51 :       0.1333    0.4000    0.0000
  band No.  band energies     occupation 
      1     -14.6917      2.00000
      2     -14.3603      2.00000
      3      -9.1289      2.00000
      4      -8.8025      2.00000
      5      -5.1372      2.00000
      6      -4.7838      2.00000
      7      -4.1657      2.00000
      8      -3.9344      2.00000
      9      -2.9661      2.00000
     10      -2.5226      2.00000
     11      -0.6431      0.00000
     12      -0.1977      0.00000
     13       0.4827      0.00000
     14       0.7642      0.00000

 k-point    52 :       0.2000    0.4000    0.0000
  band No.  band energies     occupation 
      1     -14.6375      2.00000
      2     -14.3390      2.00000
      3      -9.0049      2.00000
      4      -8.7211      2.00000
      5      -5.6442      2.00000
      6      -4.8472      2.00000
      7      -4.5717      2.00000
      8      -3.9793      2.00000
      9      -3.5126      2.00000
     10      -2.7368      2.00000
     11      -0.3735      0.00000
     12       0.5221      0.00000
     13       0.6964      0.00000
     14       1.2037      0.00000

 k-point    53 :       0.2667    0.4000    0.0000
  band No.  band energies     occupation 
      1     -14.5698      2.00000
      2     -14.3178      2.00000
      3      -8.8454      2.00000
      4      -8.6224      2.00000
      5      -6.0717      2.00000
      6      -5.1252      2.00000
      7      -4.8455      2.00000
      8      -4.1138      2.00000
      9      -3.8655      2.00000
     10      -3.0988      2.00000
     11       0.0966      0.00000
     12       1.0487      0.00000
     13       1.1370      0.00000
     14       1.5501      0.00000

 k-point    54 :       0.3333    0.4000    0.0000
  band No.  band energies     occupation 
      1     -14.4962      2.00000
      2     -14.3040      2.00000
      3      -8.6708      2.00000
      4      -8.5224      2.00000
      5      -6.3797      2.00000
      6      -5.5161      2.00000
      7      -5.0768      2.00000
      8      -4.3674      2.00000
      9      -3.9578      2.00000
     10      -3.3783      2.00000
     11       0.5002      0.00000
     12       1.3113      0.00000
     13       1.5420      0.00000
     14       2.1861      0.00000

 k-point    55 :       0.4000    0.4000    0.0000
  band No.  band energies     occupation 
      1     -14.4255      2.00000
      2     -14.3048      2.00000
      3      -8.5153      2.00000
      4      -8.4405      2.00000
      5      -6.5301      2.00000
      6      -5.9243      2.00000
      7      -5.1965      2.00000
      8      -4.6868      2.00000
      9      -3.9076      2.00000
     10      -3.5552      2.00000
     11       0.8100      0.00000
     12       1.3114      0.00000
     13       2.0491      0.00000
     14       2.6676      0.00000

 k-point    56 :       0.4667    0.4000    0.0000
  band No.  band energies     occupation 
      1     -14.3663      2.00000
      2     -14.3251      2.00000
      3      -8.4186      2.00000
      4      -8.3982      2.00000
      5      -6.4930      2.00000
      6      -6.2743      2.00000
      7      -5.1563      2.00000
      8      -4.9728      2.00000
      9      -3.8064      2.00000
     10      -3.6879      2.00000
     11       1.0509      0.00000
     12       1.2210      0.00000
     13       2.4293      0.00000
     14       2.6552      0.00000

 k-point    57 :       0.0000    0.4667    0.0000
  band No.  band energies     occupation 
      1     -14.5952      2.00000
      2     -14.4723      2.00000
      3      -9.2166      2.00000
      4      -9.0932      2.00000
      5      -4.5495      2.00000
      6      -4.3370      2.00000
      7      -3.8862      2.00000
      8      -3.6955      2.00000
      9      -2.6009      2.00000
     10      -2.2711      2.00000
     11      -0.9200      0.00000
     12      -0.4912      0.00000
     13      -0.0798      0.00000
     14       0.1173      0.00000

 k-point    58 :       0.0667    0.4667    0.0000
  band No.  band energies     occupation 
      1     -14.5854      2.00000
      2     -14.4647      2.00000
      3      -9.1895      2.00000
      4      -9.0689      2.00000
      5      -4.5648      2.00000
      6      -4.4538      2.00000
      7      -4.0259      2.00000
      8      -3.8981      2.00000
      9      -2.5212      2.00000
     10      -2.4226      2.00000
     11      -0.8241      0.00000
     12      -0.7117      0.00000
     13       0.2695      0.00000
     14       0.5731      0.00000

 k-point    59 :       0.1333    0.4667    0.0000
  band No.  band energies     occupation 
      1     -14.5570      2.00000
      2     -14.4431      2.00000
      3      -9.1091      2.00000
      4      -8.9971      2.00000
      5      -4.8620      2.00000
      6      -4.6779      2.00000
      7      -4.2572      2.00000
      8      -4.1367      2.00000
      9      -2.8737      2.00000
     10      -2.6711      2.00000
     11      -0.5754      0.00000
     12      -0.3485      0.00000
     13       0.7815      0.00000
     14       0.8678      0.00000

 k-point    60 :       0.2000    0.4667    0.0000
  band No.  band energies     occupation 
      1     -14.5139      2.00000
      2     -14.4113      2.00000
      3      -8.9796      2.00000
      4      -8.8824      2.00000
      5      -5.3662      2.00000
      6      -5.0454      2.00000
      7      -4.4486      2.00000
      8      -4.2155      2.00000
      9      -3.3717      2.00000
     10      -3.0777      2.00000
     11      -0.0585      0.00000
     12       0.2965      0.00000
     13       0.9970      0.00000
     14       1.2204      0.00000

 k-point    61 :       0.2667    0.4667    0.0000
  band No.  band energies     occupation 
      1     -14.4617      2.00000
      2     -14.3752      2.00000
      3      -8.8092      2.00000
      4      -8.7336      2.00000
      5      -5.8322      2.00000
      6      -5.4939      2.00000
      7      -4.6474      2.00000
      8      -4.3858      2.00000
      9      -3.7013      2.00000
     10      -3.4328      2.00000
     11       0.4584      0.00000
     12       0.8169      0.00000
     13       1.3825      0.00000
     14       1.6233      0.00000

 k-point    62 :       0.3333    0.4667    0.0000
  band No.  band energies     occupation 
      1     -14.4080      2.00000
      2     -14.3422      2.00000
      3      -8.6150      2.00000
      4      -8.5667      2.00000
      5      -6.2119      2.00000
      6      -5.9033      2.00000
      7      -4.9408      2.00000
      8      -4.6831      2.00000
      9      -3.8082      2.00000
     10      -3.6125      2.00000
     11       0.8101      0.00000
     12       1.0847      0.00000
     13       1.9232      0.00000
     14       2.1881      0.00000

 k-point    63 :       0.4000    0.4667    0.0000
  band No.  band energies     occupation 
      1     -14.3610      2.00000
      2     -14.3197      2.00000
      3      -8.4304      2.00000
      4      -8.4095      2.00000
      5      -6.4713      2.00000
      6      -6.2445      2.00000
      7      -5.1903      2.00000
      8      -4.9984      2.00000
      9      -3.8041      2.00000
     10      -3.6853      2.00000
     11       1.0455      0.00000
     12       1.2162      0.00000
     13       2.4108      0.00000
     14       2.6344      0.00000

 k-point    64 :       0.4667    0.4667    0.0000
  band No.  band energies     occupation 
      1     -14.3280      2.00000
      2     -14.3139      2.00000
      3      -8.3108      2.00000
      4      -8.3070      2.00000
      5      -6.5710      2.00000
      6      -6.4854      2.00000
      7      -5.2932      2.00000
      8      -5.2218      2.00000
      9      -3.7680      2.00000
     10      -3.7279      2.00000
     11       1.1965      0.00000
     12       1.2544      0.00000
     13       2.6703      0.00000
     14       2.7915      0.00000


--------------------------------------------------------------------------------------------------------


 soft charge-density along one line, spin component           1
         0         1         2         3         4         5         6         7         8         9
 total charge-density along one line
 
 pseudopotential strength for first ion, spin component:           1
 30.092 -23.440   0.000  -0.089   0.037   0.000  -0.141   0.058
-23.440  28.120  -0.000   0.051  -0.020  -0.000   0.082  -0.033
  0.000  -0.000   6.333  -0.000  -0.000   9.798  -0.000  -0.000
 -0.089   0.051  -0.000   6.330   0.002  -0.000   9.793   0.003
  0.037  -0.020  -0.000   0.002   6.332  -0.000   0.003   9.797
  0.000  -0.000   9.798  -0.000  -0.000  15.228  -0.000  -0.000
 -0.141   0.082  -0.000   9.793   0.003  -0.000  15.221   0.004
  0.058  -0.033  -0.000   0.003   9.797  -0.000   0.004  15.227
 -0.000   0.000   0.008   0.000   0.000   0.012   0.000   0.000
 -0.000   0.000  -0.020   0.000   0.000  -0.031   0.000   0.000
 -0.003   0.004  -0.000  -0.023  -0.004  -0.000  -0.035  -0.007
  0.003  -0.002   0.000   0.009  -0.020   0.000   0.014  -0.031
 -0.000   0.000  -0.000  -0.000   0.009  -0.000  -0.000   0.014
 total augmentation occupancy for first ion, spin component:           1
  2.024  -0.015   0.000   0.238  -0.093   0.000  -0.043   0.017   0.000   0.000   0.022   0.002  -0.000
 -0.015   0.009   0.000  -0.073   0.029   0.000   0.019  -0.007  -0.000   0.000  -0.002   0.001  -0.000
  0.000   0.000   1.506   0.000   0.000  -0.405  -0.000   0.000   0.130  -0.043   0.000  -0.000  -0.000
  0.238  -0.073   0.000   1.841   0.001   0.000  -0.485  -0.015  -0.000   0.000  -0.267  -0.020  -0.001
 -0.093   0.029  -0.000   0.001   1.488   0.000  -0.016  -0.393   0.000   0.000  -0.084  -0.046  -0.007
  0.000   0.000  -0.405   0.000   0.000   0.117  -0.000  -0.000  -0.035   0.012   0.000   0.000  -0.000
 -0.043   0.019   0.000  -0.485  -0.016   0.000   0.140   0.008  -0.000  -0.000   0.074   0.005   0.000
  0.017  -0.007   0.000  -0.015  -0.393   0.000   0.008   0.113   0.000  -0.000   0.022   0.013   0.002
 -0.000  -0.000   0.130   0.000   0.000  -0.035   0.000   0.000   0.075   0.000   0.000   0.000   0.000
 -0.000   0.000  -0.043   0.000  -0.000   0.012   0.000   0.000   0.000   0.021  -0.000   0.000   0.000
  0.022  -0.002  -0.000  -0.267  -0.084   0.000   0.074   0.022   0.000  -0.000   0.077   0.006   0.002
  0.002   0.001   0.000  -0.020  -0.046  -0.000   0.005   0.013   0.000   0.000   0.006   0.022   0.001
 -0.000  -0.000   0.000  -0.001  -0.007   0.000   0.000   0.002   0.000  -0.000   0.002   0.001   0.017


------------------------ aborting loop because EDIFF is reached ----------------------------------------


    CHARGE:  cpu time    0.1389: real time    0.1391
    FORLOC:  cpu time    0.0019: real time    0.0019
    FORNL :  cpu time    0.1973: real time    0.1975
    STRESS:  cpu time    0.3721: real time    0.3726
    FORCOR:  cpu time    0.0419: real time    0.0419
    FORHAR:  cpu time    0.0107: real time    0.0107
    MIXING:  cpu time    0.0009: real time    0.0009
    OFIELD:  cpu time    0.0000: real time    0.0000

  FORCE on cell =-STRESS in cart. coord.  units (eV):
  Direction    XX          YY          ZZ          XY          YZ          ZX
  --------------------------------------------------------------------------------------
  Alpha Z     9.46635     9.46635     9.46635
  Ewald    1599.37452  1604.33008 -2056.53219     0.00000     0.00000     0.00000
  Hartree  1720.86530  1722.76084 -1673.96889    -0.00000    -0.00000     0.00000
  E(xc)     -77.64808   -77.66399   -78.86728    -0.00000    -0.00000     0.00000
  Local   -3572.94979 -3579.17092  3475.70589    -0.00000    -0.00000     0.00000
  n-local   162.47099   162.67712   167.18907    -0.37277     0.00000     0.00000
  augment   -31.87574   -31.81426   -32.80294     0.00000     0.00000     0.00000
  Kinetic   190.18871   189.33065   189.80614     5.46848    -0.00000    -0.00000
  Fock        0.00000     0.00000     0.00000     0.00000     0.00000     0.00000
  -------------------------------------------------------------------------------------
  Total      -0.10772    -0.08412    -0.00385     0.00000     0.00000     0.00000
  in kB      -0.45691    -0.35682    -0.01631     0.00000     0.00000     0.00000
  external pressure =       -0.28 kB  Pullay stress =        0.00 kB


 VOLUME and BASIS-vectors are now :
 -----------------------------------------------------------------------------
  energy-cutoff  :      600.00
  volume of cell :      377.73
      direct lattice vectors                 reciprocal lattice vectors
     4.399886192  0.000000000  0.000000000     0.227278606  0.000000000  0.000000000
     0.000000000  4.292477857  0.000000000     0.000000000  0.232965675  0.000000000
     0.000000000  0.000000000 20.000000000     0.000000000  0.000000000  0.050000000

  length of vectors
     4.399886192  4.292477857 20.000000000     0.227278606  0.232965675  0.050000000


 FORCES acting on ions
    electron-ion (+dipol)            ewald-force                    non-local-force                 convergence-correction
 -----------------------------------------------------------------------------------------------
   0.454E+01 -.221E-12 -.144E+03   -.612E+01 0.924E-15 0.148E+03   0.158E+01 -.278E-16 -.382E+01   0.293E-04 0.349E-13 0.674E-03
   0.454E+01 -.679E-13 0.144E+03   -.612E+01 0.957E-16 -.148E+03   0.158E+01 -.278E-16 0.382E+01   0.293E-04 -.214E-13 -.674E-03
   -.564E+01 0.169E-12 -.205E+03   0.612E+01 0.179E-15 0.207E+03   -.477E+00 0.278E-16 -.204E+01   0.297E-03 -.695E-13 0.284E-02
   -.564E+01 -.297E-12 0.205E+03   0.612E+01 0.456E-15 -.207E+03   -.477E+00 0.278E-16 0.204E+01   0.297E-03 0.833E-13 -.284E-02
 -----------------------------------------------------------------------------------------------
   -.221E+01 -.417E-12 -.928E-06   0.711E-14 0.165E-14 0.284E-13   0.221E+01 0.000E+00 0.000E+00   0.652E-03 0.272E-13 0.117E-09
 
 
 POSITION                                       TOTAL-FORCE (eV/Angst)
 -----------------------------------------------------------------------------------
      2.56471      3.21936     11.37556         0.000519     -0.000000     -0.000773
      0.36476      1.07312      8.62444         0.000519     -0.000000      0.000773
      0.13728      1.07312     11.33934        -0.000519      0.000000     -0.000482
      2.33723      3.21936      8.66066        -0.000519      0.000000      0.000482
 -----------------------------------------------------------------------------------
    total drift:                               -0.000095     -0.000000     -0.000001


--------------------------------------------------------------------------------------------------------



  FREE ENERGIE OF THE ION-ELECTRON SYSTEM (eV)
  ---------------------------------------------------
  free  energy   TOTEN  =       -16.26418454 eV

  energy  without entropy=      -16.26418454  energy(sigma->0) =      -16.26418454
 
 d Force = 0.1164780E-05[ 0.503E-06, 0.183E-05]  d Energy = 0.1558747E-05-0.394E-06
 d Force =-0.1774206E+00[-0.177E+00,-0.177E+00]  d Ewald  =-0.1774206E+00 0.126E-08


--------------------------------------------------------------------------------------------------------


    POTLOK:  cpu time    0.0428: real time    0.0428


--------------------------------------------------------------------------------------------------------


 Conjugate gradient step on ions:
 trial-energy change:   -0.000002  1 .order   -0.000001   -0.000002   -0.000001
  (g-gl).g = 0.109E-05      g.g   = 0.953E-06  gl.gl    = 0.895E-06
 g(Force)  = 0.953E-06   g(Stress)= 0.000E+00 ortho     =-0.133E-06
 gamma     =   1.21475
 trial     =   2.30741
 opt step  =   3.18515  (harmonic =   3.18515) maximal distance =0.00066401
 next E    =   -16.264184   (d E  =  -0.00000)


--------------------------------------------------------------------------------------------------------


  
 reached required accuracy - stopping structural energy minimisation
 writing wavefunctions
     LOOP+:  cpu time    6.4332: real time    6.6879
    4ORBIT:  cpu time    0.0000: real time    0.0000

 total amount of memory used by VASP MPI-rank0    51935. kBytes
=======================================================================

   base      :      30000. kBytes
   nonl-proj :       7102. kBytes
   fftplans  :       2678. kBytes
   grid      :       4349. kBytes
   one-center:          8. kBytes
   wavefun   :       7798. kBytes
 
  
  
 General timing and accounting informations for this job:
 ========================================================
  
                  Total CPU time used (sec):      135.594
                            User time (sec):      134.553
                          System time (sec):        1.041
                         Elapsed time (sec):      145.514
  
                   Maximum memory used (kb):      204248.
                   Average memory used (kb):           0.
  
                          Minor page faults:       119784
                          Major page faults:         1863
                 Voluntary context switches:         9888
