 vasp.5.4.4.18Apr17-6-g9f103f2a35 (build Sep 16 2021 13:51:27) complex          
  
 executed on             LinuxIFC date 2023.03.16  12:59:53
 running on   24 total cores
 distrk:  each k-point on   24 cores,    1 groups
 distr:  one band on NCORES_PER_BAND=  24 cores,    1 groups


--------------------------------------------------------------------------------------------------------


 INCAR:
 POTCAR:    PAW_PBE Sn 08Apr2002                  
 POTCAR:    PAW_PBE Se 06Sep2000                  

 ----------------------------------------------------------------------------- 
|                                                                             |
|           W    W    AA    RRRRR   N    N  II  N    N   GGGG   !!!           |
|           W    W   A  A   R    R  NN   N  II  NN   N  G    G  !!!           |
|           W    W  A    A  R    R  N N  N  II  N N  N  G       !!!           |
|           W WW W  AAAAAA  RRRRR   N  N N  II  N  N N  G  GGG   !            |
|           WW  WW  A    A  R   R   N   NN  II  N   NN  G    G                |
|           W    W  A    A  R    R  N    N  II  N    N   GGGG   !!!           |
|                                                                             |
|      For optimal performance we recommend to set                            |
|        NCORE= 4 - approx SQRT( number of cores)                             |
|      NCORE specifies how many cores store one orbital (NPAR=cpu/NCORE).     |
|      This setting can  greatly improve the performance of VASP for DFT.     |
|      The default,   NCORE=1            might be grossly inefficient         |
|      on modern multi-core architectures or massively parallel machines.     |
|      Do your own testing !!!!                                               |
|      Unfortunately you need to use the default for GW and RPA calculations. |
|      (for HF NCORE is supported but not extensively tested yet)             |
|                                                                             |
 ----------------------------------------------------------------------------- 

 POTCAR:    PAW_PBE Sn 08Apr2002                  
   VRHFIN =Sn: s2p2                                                             
   LEXCH  = PE                                                                  
   EATOM  =    94.0860 eV,    6.9151 Ry                                         
                                                                                
   TITEL  = PAW_PBE Sn 08Apr2002                                                
   LULTRA =        F    use ultrasoft PP ?                                      
   IUNSCR =        1    unscreen: 0-lin 1-nonlin 2-no                           
   RPACOR =    2.000    partial core radius                                     
   POMASS =  118.710; ZVAL   =    4.000    mass and valenz                      
   RCORE  =    3.000    outmost cutoff radius                                   
   RWIGS  =    2.960; RWIGS  =    1.566    wigner-seitz radius (au A)           
   ENMAX  =  103.236; ENMIN  =   77.427 eV                                      
   ICORE  =        3    local potential                                         
   LCOR   =        T    correct aug charges                                     
   LPAW   =        T    paw PP                                                  
   EAUG   =  263.585                                                            
   DEXC   =    0.000                                                            
   RMAX   =    3.078    core radius for proj-oper                               
   RAUG   =    1.300    factor for augmentation sphere                          
   RDEP   =    3.022    radius for radial grids                                 
   RDEPT  =    2.655    core radius for aug-charge                              
                                                                                
   Atomic configuration                                                         
   13 entries                                                                   
     n  l   j            E        occ.                                          
     1  0  0.50    -29007.2859   2.0000                                         
     2  0  0.50     -4378.8056   2.0000                                         
     2  1  1.50     -3930.4293   6.0000                                         
     3  0  0.50      -845.0264   2.0000                                         
     3  1  1.50      -698.5725   6.0000                                         
     3  2  2.50      -473.2839  10.0000                                         
     4  0  0.50      -133.9036   2.0000                                         
     4  1  1.50       -89.6752   6.0000                                         
     4  2  2.50       -25.8375  10.0000                                         
     5  0  0.50       -10.5484   2.0000                                         
     5  1  0.50        -3.6940   2.0000                                         
     5  2  1.50        -1.3606   0.0000                                         
     4  3  2.50        -4.0817   0.0000                                         
   Description                                                                  
     l       E           TYP  RCUT    TYP  RCUT                                 
     0    -10.5483727     23  3.000                                             
     0     27.2116520     23  3.000                                             
     1     -3.6939829     23  3.000                                             
     1      1.9821976     23  3.000                                             
     2     -1.3605826     23  3.000                                             
     3     -2.7211652     23  3.000                                             
  local pseudopotential read in
  partial core-charges read in
  partial kinetic energy density read in
  atomic valenz-charges read in
  non local Contribution for L=           0  read in
    real space projection operators read in
  non local Contribution for L=           0  read in
    real space projection operators read in
  non local Contribution for L=           1  read in
    real space projection operators read in
  non local Contribution for L=           1  read in
    real space projection operators read in
  non local Contribution for L=           2  read in
    real space projection operators read in
    PAW grid and wavefunctions read in
 
   number of l-projection  operators is LMAX  =           5
   number of lm-projection operators is LMMAX =          13
 
 POTCAR:    PAW_PBE Se 06Sep2000                  
   VRHFIN =Se: s2p4                                                             
   LEXCH  = PE                                                                  
   EATOM  =   257.1286 eV,   18.8984 Ry                                         
                                                                                
   TITEL  = PAW_PBE Se 06Sep2000                                                
   LULTRA =        F    use ultrasoft PP ?                                      
   IUNSCR =        1    unscreen: 0-lin 1-nonlin 2-no                           
   RPACOR =    1.900    partial core radius                                     
   POMASS =   78.960; ZVAL   =    6.000    mass and valenz                      
   RCORE  =    2.100    outmost cutoff radius                                   
   RWIGS  =    2.200; RWIGS  =    1.164    wigner-seitz radius (au A)           
   ENMAX  =  211.555; ENMIN  =  158.666 eV                                      
   ICORE  =        3    local potential                                         
   LCOR   =        T    correct aug charges                                     
   LPAW   =        T    paw PP                                                  
   EAUG   =  446.842                                                            
   DEXC   =    0.000                                                            
   RMAX   =    2.147    core radius for proj-oper                               
   RAUG   =    1.300    factor for augmentation sphere                          
   RDEP   =    2.177    radius for radial grids                                 
   RDEPT  =    1.928    core radius for aug-charge                              
                                                                                
   Atomic configuration                                                         
   10 entries                                                                   
     n  l   j            E        occ.                                          
     1  0  0.50    -12503.4787   2.0000                                         
     2  0  0.50     -1606.9547   2.0000                                         
     2  1  1.50     -1413.3140   6.0000                                         
     3  0  0.50      -213.4885   2.0000                                         
     3  1  1.50      -152.9538   6.0000                                         
     3  2  2.50       -53.1221  10.0000                                         
     4  0  0.50       -17.2865   2.0000                                         
     4  1  0.50        -6.5110   4.0000                                         
     4  2  2.50        -6.8029   0.0000                                         
     4  3  2.50        -6.8029   0.0000                                         
   Description                                                                  
     l       E           TYP  RCUT    TYP  RCUT                                 
     0    -17.2865377     23  2.100                                             
     0    -15.3094411     23  2.100                                             
     1     -6.5110275     23  2.100                                             
     1     -0.0695192     23  2.100                                             
     2     -6.8029130     23  2.100                                             
     3     -1.3605826      7  2.100                                             
  local pseudopotential read in
  partial core-charges read in
  partial kinetic energy density read in
  atomic valenz-charges read in
  non local Contribution for L=           0  read in
    real space projection operators read in
  non local Contribution for L=           0  read in
    real space projection operators read in
  non local Contribution for L=           1  read in
    real space projection operators read in
  non local Contribution for L=           1  read in
    real space projection operators read in
  non local Contribution for L=           2  read in
    real space projection operators read in
    PAW grid and wavefunctions read in
 
   number of l-projection  operators is LMAX  =           5
   number of lm-projection operators is LMMAX =          13
 
 WARNING: PSMAXN for non-local potential too small
          PSMAXN should be >   12.5490833729506       NTYP=           1
  PAW_PBE Sn 08Apr2002                  :
 energy of atom  1       EATOM=  -94.0860
 kinetic energy error for atom=    0.0000 (will be added to EATOM!!)
  PAW_PBE Se 06Sep2000                  :
 energy of atom  2       EATOM= -257.1286
 kinetic energy error for atom=    0.0006 (will be added to EATOM!!)
 
 
 POSCAR:  POSCAR with strain of 0.005            
  positions in direct lattice
  No initial velocities read in
 exchange correlation table for  LEXCH =        8
   RHO(1)=    0.500       N(1)  =     2000
   RHO(2)=  100.500       N(2)  =     4000
 


--------------------------------------------------------------------------------------------------------


 ion  position               nearest neighbor table
   1  0.581  0.750  0.569-   4 2.74   3 2.91   3 2.93   3 3.21   3 3.23
   2  0.081  0.250  0.431-   3 2.74   4 2.91   4 2.93   4 3.21   4 3.23
   3  0.033  0.250  0.567-   2 2.74   1 2.91   1 2.93   1 3.21   1 3.23
   4  0.533  0.750  0.433-   1 2.74   2 2.91   2 2.93   2 3.21   2 3.23
 

IMPORTANT INFORMATION: All symmetrisations will be switched off!
NOSYMM: (Re-)initialisation of all symmetry stuff for point group C_1.

 
 
 KPOINTS: KMesh Grid                              

Automatic generation of k-mesh.
Space group operators:
 irot       det(A)        alpha          n_x          n_y          n_z        tau_x        tau_y        tau_z
    1     1.000000     0.000001     1.000000     0.000000     0.000000     0.000000     0.000000     0.000000
 
 Subroutine IBZKPT returns following result:
 ===========================================
 
 Found    113 irreducible k-points:
 
 Following reciprocal coordinates:
            Coordinates               Weight
  0.000000  0.000000  0.000000      1.000000
  0.066667 -0.000000  0.000000      2.000000
  0.133333  0.000000  0.000000      2.000000
  0.200000  0.000000  0.000000      2.000000
  0.266667 -0.000000 -0.000000      2.000000
  0.333333  0.000000  0.000000      2.000000
  0.400000  0.000000  0.000000      2.000000
  0.466667 -0.000000  0.000000      2.000000
  0.000000  0.066667  0.000000      2.000000
  0.066667  0.066667  0.000000      2.000000
  0.133333  0.066667  0.000000      2.000000
  0.200000  0.066667  0.000000      2.000000
  0.266667  0.066667  0.000000      2.000000
  0.333333  0.066667 -0.000000      2.000000
  0.400000  0.066667  0.000000      2.000000
  0.466667  0.066667 -0.000000      2.000000
 -0.466667  0.066667  0.000000      2.000000
 -0.400000  0.066667 -0.000000      2.000000
 -0.333333  0.066667 -0.000000      2.000000
 -0.266667  0.066667 -0.000000      2.000000
 -0.200000  0.066667 -0.000000      2.000000
 -0.133333  0.066667  0.000000      2.000000
 -0.066667  0.066667  0.000000      2.000000
  0.000000  0.133333  0.000000      2.000000
  0.066667  0.133333  0.000000      2.000000
  0.133333  0.133333  0.000000      2.000000
  0.200000  0.133333  0.000000      2.000000
  0.266667  0.133333  0.000000      2.000000
  0.333333  0.133333  0.000000      2.000000
  0.400000  0.133333  0.000000      2.000000
  0.466667  0.133333  0.000000      2.000000
 -0.466667  0.133333  0.000000      2.000000
 -0.400000  0.133333 -0.000000      2.000000
 -0.333333  0.133333  0.000000      2.000000
 -0.266667  0.133333  0.000000      2.000000
 -0.200000  0.133333  0.000000      2.000000
 -0.133333  0.133333  0.000000      2.000000
 -0.066667  0.133333  0.000000      2.000000
  0.000000  0.200000  0.000000      2.000000
  0.066667  0.200000  0.000000      2.000000
  0.133333  0.200000  0.000000      2.000000
  0.200000  0.200000  0.000000      2.000000
  0.266667  0.200000  0.000000      2.000000
  0.333333  0.200000  0.000000      2.000000
  0.400000  0.200000  0.000000      2.000000
  0.466667  0.200000  0.000000      2.000000
 -0.466667  0.200000  0.000000      2.000000
 -0.400000  0.200000  0.000000      2.000000
 -0.333333  0.200000  0.000000      2.000000
 -0.266667  0.200000  0.000000      2.000000
 -0.200000  0.200000  0.000000      2.000000
 -0.133333  0.200000  0.000000      2.000000
 -0.066667  0.200000  0.000000      2.000000
  0.000000  0.266667  0.000000      2.000000
  0.066667  0.266667  0.000000      2.000000
  0.133333  0.266667  0.000000      2.000000
  0.200000  0.266667  0.000000      2.000000
  0.266667  0.266667  0.000000      2.000000
  0.333333  0.266667  0.000000      2.000000
  0.400000  0.266667 -0.000000      2.000000
  0.466667  0.266667  0.000000      2.000000
 -0.466667  0.266667  0.000000      2.000000
 -0.400000  0.266667  0.000000      2.000000
 -0.333333  0.266667  0.000000      2.000000
 -0.266667  0.266667  0.000000      2.000000
 -0.200000  0.266667  0.000000      2.000000
 -0.133333  0.266667  0.000000      2.000000
 -0.066667  0.266667  0.000000      2.000000
 -0.000000  0.333333  0.000000      2.000000
  0.066667  0.333333  0.000000      2.000000
  0.133333  0.333333  0.000000      2.000000
  0.200000  0.333333  0.000000      2.000000
  0.266667  0.333333  0.000000      2.000000
  0.333333  0.333333  0.000000      2.000000
  0.400000  0.333333  0.000000      2.000000
  0.466667  0.333333  0.000000      2.000000
 -0.466667  0.333333  0.000000      2.000000
 -0.400000  0.333333  0.000000      2.000000
 -0.333333  0.333333  0.000000      2.000000
 -0.266667  0.333333  0.000000      2.000000
 -0.200000  0.333333  0.000000      2.000000
 -0.133333  0.333333  0.000000      2.000000
 -0.066667  0.333333  0.000000      2.000000
  0.000000  0.400000  0.000000      2.000000
  0.066667  0.400000  0.000000      2.000000
  0.133333  0.400000  0.000000      2.000000
  0.200000  0.400000 -0.000000      2.000000
  0.266667  0.400000  0.000000      2.000000
  0.333333  0.400000  0.000000      2.000000
  0.400000  0.400000  0.000000      2.000000
  0.466667  0.400000  0.000000      2.000000
 -0.466667  0.400000  0.000000      2.000000
 -0.400000  0.400000  0.000000      2.000000
 -0.333333  0.400000  0.000000      2.000000
 -0.266667  0.400000  0.000000      2.000000
 -0.200000  0.400000  0.000000      2.000000
 -0.133333  0.400000  0.000000      2.000000
 -0.066667  0.400000  0.000000      2.000000
  0.000000  0.466667  0.000000      2.000000
  0.066667  0.466667  0.000000      2.000000
  0.133333  0.466667  0.000000      2.000000
  0.200000  0.466667  0.000000      2.000000
  0.266667  0.466667 -0.000000      2.000000
  0.333333  0.466667 -0.000000      2.000000
  0.400000  0.466667  0.000000      2.000000
  0.466667  0.466667  0.000000      2.000000
 -0.466667  0.466667  0.000000      2.000000
 -0.400000  0.466667  0.000000      2.000000
 -0.333333  0.466667  0.000000      2.000000
 -0.266667  0.466667  0.000000      2.000000
 -0.200000  0.466667  0.000000      2.000000
 -0.133333  0.466667  0.000000      2.000000
 -0.066667  0.466667  0.000000      2.000000
 
 Following cartesian coordinates:
            Coordinates               Weight
  0.000000  0.000000  0.000000      1.000000
  0.015213 -0.000038 -0.000038      2.000000
  0.030425 -0.000076 -0.000075      2.000000
  0.045638 -0.000114 -0.000113      2.000000
  0.060851 -0.000152 -0.000151      2.000000
  0.076064 -0.000190 -0.000189      2.000000
  0.091276 -0.000228 -0.000226      2.000000
  0.106489 -0.000266 -0.000264      2.000000
 -0.000039  0.015531 -0.000039      2.000000
  0.015174  0.015493 -0.000076      2.000000
  0.030387  0.015455 -0.000114      2.000000
  0.045599  0.015417 -0.000152      2.000000
  0.060812  0.015379 -0.000190      2.000000
  0.076025  0.015342 -0.000227      2.000000
  0.091237  0.015304 -0.000265      2.000000
  0.106450  0.015266 -0.000303      2.000000
 -0.106528  0.015797  0.000226      2.000000
 -0.091315  0.015759  0.000188      2.000000
 -0.076102  0.015721  0.000150      2.000000
 -0.060890  0.015683  0.000112      2.000000
 -0.045677  0.015645  0.000075      2.000000
 -0.030464  0.015607  0.000037      2.000000
 -0.015251  0.015569 -0.000001      2.000000
 -0.000077  0.031062 -0.000077      2.000000
  0.015135  0.031025 -0.000115      2.000000
  0.030348  0.030987 -0.000153      2.000000
  0.045561  0.030949 -0.000190      2.000000
  0.060773  0.030911 -0.000228      2.000000
  0.075986  0.030873 -0.000266      2.000000
  0.091199  0.030835 -0.000304      2.000000
  0.106411  0.030797 -0.000341      2.000000
 -0.106566  0.031328  0.000187      2.000000
 -0.091354  0.031290  0.000149      2.000000
 -0.076141  0.031252  0.000112      2.000000
 -0.060928  0.031214  0.000074      2.000000
 -0.045716  0.031176  0.000036      2.000000
 -0.030503  0.031138 -0.000002      2.000000
 -0.015290  0.031100 -0.000039      2.000000
 -0.000116  0.046594 -0.000116      2.000000
  0.015097  0.046556 -0.000153      2.000000
  0.030309  0.046518 -0.000191      2.000000
  0.045522  0.046480 -0.000229      2.000000
  0.060735  0.046442 -0.000267      2.000000
  0.075947  0.046404 -0.000304      2.000000
  0.091160  0.046366 -0.000342      2.000000
  0.106373  0.046328 -0.000380      2.000000
 -0.106605  0.046859  0.000149      2.000000
 -0.091392  0.046821  0.000111      2.000000
 -0.076180  0.046783  0.000073      2.000000
 -0.060967  0.046745  0.000035      2.000000
 -0.045754  0.046708 -0.000002      2.000000
 -0.030542  0.046670 -0.000040      2.000000
 -0.015329  0.046632 -0.000078      2.000000
 -0.000155  0.062125 -0.000154      2.000000
  0.015058  0.062087 -0.000192      2.000000
  0.030270  0.062049 -0.000230      2.000000
  0.045483  0.062011 -0.000267      2.000000
  0.060696  0.061973 -0.000305      2.000000
  0.075909  0.061935 -0.000343      2.000000
  0.091121  0.061897 -0.000381      2.000000
  0.106334  0.061859 -0.000418      2.000000
 -0.106644  0.062391  0.000110      2.000000
 -0.091431  0.062353  0.000072      2.000000
 -0.076218  0.062315  0.000035      2.000000
 -0.061006  0.062277 -0.000003      2.000000
 -0.045793  0.062239 -0.000041      2.000000
 -0.030580  0.062201 -0.000079      2.000000
 -0.015368  0.062163 -0.000116      2.000000
 -0.000194  0.077656 -0.000193      2.000000
  0.015019  0.077618 -0.000230      2.000000
  0.030232  0.077580 -0.000268      2.000000
  0.045444  0.077542 -0.000306      2.000000
  0.060657  0.077504 -0.000344      2.000000
  0.075870  0.077467 -0.000381      2.000000
  0.091083  0.077429 -0.000419      2.000000
  0.106295  0.077391 -0.000457      2.000000
 -0.106683  0.077922  0.000072      2.000000
 -0.091470  0.077884  0.000034      2.000000
 -0.076257  0.077846 -0.000004      2.000000
 -0.061044  0.077808 -0.000042      2.000000
 -0.045832  0.077770 -0.000079      2.000000
 -0.030619  0.077732 -0.000117      2.000000
 -0.015406  0.077694 -0.000155      2.000000
 -0.000232  0.093187 -0.000231      2.000000
  0.014980  0.093149 -0.000269      2.000000
  0.030193  0.093112 -0.000307      2.000000
  0.045406  0.093074 -0.000344      2.000000
  0.060618  0.093036 -0.000382      2.000000
  0.075831  0.092998 -0.000420      2.000000
  0.091044  0.092960 -0.000458      2.000000
  0.106257  0.092922 -0.000495      2.000000
 -0.106721  0.093453  0.000033      2.000000
 -0.091509  0.093415 -0.000005      2.000000
 -0.076296  0.093377 -0.000042      2.000000
 -0.061083  0.093339 -0.000080      2.000000
 -0.045871  0.093301 -0.000118      2.000000
 -0.030658  0.093263 -0.000156      2.000000
 -0.015445  0.093225 -0.000193      2.000000
 -0.000271  0.108719 -0.000270      2.000000
  0.014942  0.108681 -0.000308      2.000000
  0.030154  0.108643 -0.000345      2.000000
  0.045367  0.108605 -0.000383      2.000000
  0.060580  0.108567 -0.000421      2.000000
  0.075792  0.108529 -0.000459      2.000000
  0.091005  0.108491 -0.000496      2.000000
  0.106218  0.108453 -0.000534      2.000000
 -0.106760  0.108984 -0.000006      2.000000
 -0.091547  0.108946 -0.000043      2.000000
 -0.076335  0.108908 -0.000081      2.000000
 -0.061122  0.108870 -0.000119      2.000000
 -0.045909  0.108832 -0.000157      2.000000
 -0.030697  0.108795 -0.000194      2.000000
 -0.015484  0.108757 -0.000232      2.000000
 


--------------------------------------------------------------------------------------------------------




 Dimension of arrays:
   k-points           NKPTS =    113   k-points in BZ     NKDIM =    113   number of bands    NBANDS=     14
   number of dos      NEDOS =    301   number of ions     NIONS =      4
   non local maximal  LDIM  =      5   non local SUM 2l+1 LMDIM =     13
   total plane-waves  NPLWV = 209952
   max r-space proj   IRMAX =      1   max aug-charges    IRDMAX=  53644
   dimension x,y,z NGX =    36 NGY =   36 NGZ =  162
   dimension x,y,z NGXF=    72 NGYF=   72 NGZF=  324
   support grid    NGXF=    72 NGYF=   72 NGZF=  324
   ions per type =               2   2
   NGX,Y,Z   is equivalent  to a cutoff of  13.66, 13.94, 13.40 a.u.
   NGXF,Y,Z  is equivalent  to a cutoff of  27.31, 27.89, 26.80 a.u.

 SYSTEM =  SnSe                                    
 POSCAR =   POSCAR with strain of 0.005            

 Startparameter for this run:
   NWRITE =      2    write-flag & timer
   PREC   = accura    normal or accurate (medium, high low for compatibility)
   ISTART =      0    job   : 0-new  1-cont  2-samecut
   ICHARG =      2    charge: 1-file 2-atom 10-const
   ISPIN  =      1    spin polarized calculation?
   LNONCOLLINEAR =      F non collinear calculations
   LSORBIT =      F    spin-orbit coupling
   INIWAV =      1    electr: 0-lowe 1-rand  2-diag
   LASPH  =      F    aspherical Exc in radial PAW
   METAGGA=      F    non-selfconsistent MetaGGA calc.

 Electronic Relaxation 1
   ENCUT  =  600.0 eV  44.10 Ry    6.64 a.u.   8.75  8.57 40.14*2*pi/ulx,y,z
   ENINI  =  600.0     initial cutoff
   ENAUG  =  446.8 eV  augmentation charge cutoff
   NELM   =     60;   NELMIN=  2; NELMDL= -5     # of ELM steps 
   EDIFF  = 0.1E-05   stopping-criterion for ELM
   LREAL  =      F    real-space projection
   NLSPLINE    = F    spline interpolate recip. space projectors
   LCOMPAT=      F    compatible to vasp.4.4
   GGA_COMPAT  = T    GGA compatible to vasp.4.4-vasp.4.6
   LMAXPAW     = -100 max onsite density
   LMAXMIX     =    2 max onsite mixed and CHGCAR
   VOSKOWN=      0    Vosko Wilk Nusair interpolation
   ROPT   =    0.00000   0.00000
 Ionic relaxation
   EDIFFG = -.1E-02   stopping-criterion for IOM
   NSW    =    100    number of steps for IOM
   NBLOCK =      1;   KBLOCK =    100    inner block; outer block 
   IBRION =      2    ionic relax: 0-MD 1-quasi-New 2-CG
   NFREE  =      1    steps in history (QN), initial steepest desc. (CG)
   ISIF   =      2    stress and relaxation
   IWAVPR =     11    prediction:  0-non 1-charg 2-wave 3-comb
   ISYM   =      0    0-nonsym 1-usesym 2-fastsym
   LCORR  =      T    Harris-Foulkes like correction to forces

   POTIM  = 0.5000    time-step for ionic-motion
   TEIN   =    0.0    initial temperature
   TEBEG  =    0.0;   TEEND  =   0.0 temperature during run
   SMASS  =  -3.00    Nose mass-parameter (am)
   estimated Nose-frequenzy (Omega)   =  0.10E-29 period in steps =****** mass=  -0.439E-27a.u.
   SCALEE = 1.0000    scale energy and forces
   NPACO  =    256;   APACO  = 16.0  distance and # of slots for P.C.
   PSTRESS=    0.0 pullay stress

  Mass of Ions in am
   POMASS = 118.71 78.96
  Ionic Valenz
   ZVAL   =   4.00  6.00
  Atomic Wigner-Seitz radii
   RWIGS  =  -1.00 -1.00
  virtual crystal weights 
   VCA    =   1.00  1.00
   NELECT =      20.0000    total number of electrons
   NUPDOWN=      -1.0000    fix difference up-down

 DOS related values:
   EMIN   =  10.00;   EMAX   =-10.00  energy-range for DOS
   EFERMI =   0.00
   ISMEAR =     0;   SIGMA  =   0.10  broadening in eV -4-tet -1-fermi 0-gaus

 Electronic relaxation 2 (details)
   IALGO  =     38    algorithm
   LDIAG  =      T    sub-space diagonalisation (order eigenvalues)
   LSUBROT=      F    optimize rotation matrix (better conditioning)
   TURBO    =      0    0=normal 1=particle mesh
   IRESTART =      0    0=no restart 2=restart with 2 vectors
   NREBOOT  =      0    no. of reboots
   NMIN     =      0    reboot dimension
   EREF     =   0.00    reference energy to select bands
   IMIX   =      4    mixing-type and parameters
     AMIX     =   0.40;   BMIX     =  1.00
     AMIX_MAG =   1.60;   BMIX_MAG =  1.00
     AMIN     =   0.10
     WC   =   100.;   INIMIX=   1;  MIXPRE=   1;  MAXMIX= -45

 Intra band minimization:
   WEIMIN = 0.0010     energy-eigenvalue tresh-hold
   EBREAK =  0.18E-07  absolut break condition
   DEPER  =   0.30     relativ break condition  

   TIME   =   0.40     timestep for ELM

  volume/ion in A,a.u.               =      94.52       637.88
  Fermi-wavevector in a.u.,A,eV,Ry     =   0.614540  1.161312  5.138370  0.377660
  Thomas-Fermi vector in A             =   1.671587
 
 Write flags
   LWAVE        =      T    write WAVECAR
   LDOWNSAMPLE  =      F    k-point downsampling of WAVECAR
   LCHARG       =      T    write CHGCAR
   LVTOT        =      F    write LOCPOT, total local potential
   LVHAR        =      F    write LOCPOT, Hartree potential only
   LELF         =      F    write electronic localiz. function (ELF)
   LORBIT       =      0    0 simple, 1 ext, 2 COOP (PROOUT), +10 PAW based schemes


 Dipole corrections
   LMONO  =      F    monopole corrections only (constant potential shift)
   LDIPOL =      F    correct potential (dipole corrections)
   IDIPOL =      0    1-x, 2-y, 3-z, 4-all directions 
   EPSILON=  1.0000000 bulk dielectric constant

 Exchange correlation treatment:
   GGA     =    PE    GGA type
   LEXCH   =     8    internal setting for exchange type
   VOSKOWN=      0    Vosko Wilk Nusair interpolation
   LHFCALC =     F    Hartree Fock is set to
   LHFONE  =     F    Hartree Fock one center treatment
   AEXX    =    0.0000 exact exchange contribution

 Linear response parameters
   LEPSILON=     F    determine dielectric tensor
   LRPA    =     F    only Hartree local field effects (RPA)
   LNABLA  =     F    use nabla operator in PAW spheres
   LVEL    =     F    velocity operator in full k-point grid
   LINTERFAST=   F  fast interpolation
   KINTER  =     0    interpolate to denser k-point grid
   CSHIFT  =0.1000    complex shift for real part using Kramers Kronig
   OMEGAMAX=  -1.0    maximum frequency
   DEG_THRESHOLD= 0.2000000E-02 threshold for treating states as degnerate
   RTIME   =   -0.100 relaxation time in fs
  (WPLASMAI=    0.000 imaginary part of plasma frequency in eV, 0.658/RTIME)
   DFIELD  = 0.0000000 0.0000000 0.0000000 field for delta impulse in time
 
 Orbital magnetization related:
   ORBITALMAG=     F  switch on orbital magnetization
   LCHIMAG   =     F  perturbation theory with respect to B field
   DQ        =  0.001000  dq finite difference perturbation B field
   LLRAUG    =     F  two centre corrections for induced B field



--------------------------------------------------------------------------------------------------------


 conjugate gradient relaxation of ions
 charge density and potential will be updated during run
 non-spin polarized calculation
 Variant of blocked Davidson
 Davidson routine will perform the subspace rotation
 perform sub-space diagonalisation
    after iterative eigenvector-optimisation
 modified Broyden-mixing scheme, WC =      100.0
 initial mixing is a Kerker type mixing with AMIX =  0.4000 and BMIX =      1.0000
 Hartree-type preconditioning will be used
 using additional bands            4
 reciprocal scheme for non local part
 use partial core corrections
 calculate Harris-corrections to forces 
   (improved forces if not selfconsistent)
 use gradient corrections 
 use of overlap-Matrix (Vanderbilt PP)
 Gauss-broadening in eV      SIGMA  =   0.10


--------------------------------------------------------------------------------------------------------


  energy-cutoff  :      600.00
  volume of cell :      378.10
      direct lattice vectors                 reciprocal lattice vectors
     4.382356765  0.010955892  0.010955892     0.228190559 -0.000569061 -0.000566223
     0.010731195  4.292477857  0.010731195    -0.000580976  0.232968572 -0.000578079
     0.050000000  0.050000000 20.100000000    -0.000124069 -0.000124069  0.049751861

  length of vectors
     4.382384155  4.292504685 20.100124378     0.228191971  0.232970014  0.049752170


 
 k-points in units of 2pi/SCALE and weight: KMesh Grid                              
   0.00000000  0.00000000  0.00000000       0.004
   0.01521270 -0.00003794 -0.00003775       0.009
   0.03042541 -0.00007587 -0.00007550       0.009
   0.04563811 -0.00011381 -0.00011324       0.009
   0.06085082 -0.00015175 -0.00015099       0.009
   0.07606352 -0.00018969 -0.00018874       0.009
   0.09127622 -0.00022762 -0.00022649       0.009
   0.10648893 -0.00026556 -0.00026424       0.009
  -0.00003873  0.01553124 -0.00003854       0.009
   0.01517397  0.01549330 -0.00007629       0.009
   0.03038668  0.01545536 -0.00011403       0.009
   0.04559938  0.01541743 -0.00015178       0.009
   0.06081208  0.01537949 -0.00018953       0.009
   0.07602479  0.01534155 -0.00022728       0.009
   0.09123749  0.01530361 -0.00026503       0.009
   0.10645020  0.01526568 -0.00030278       0.009
  -0.10652766  0.01579680  0.00022570       0.009
  -0.09131496  0.01575886  0.00018795       0.009
  -0.07610225  0.01572093  0.00015020       0.009
  -0.06088955  0.01568299  0.00011245       0.009
  -0.04567684  0.01564505  0.00007471       0.009
  -0.03046414  0.01560711  0.00003696       0.009
  -0.01525144  0.01556918 -0.00000079       0.009
  -0.00007746  0.03106248 -0.00007708       0.009
   0.01513524  0.03102454 -0.00011483       0.009
   0.03034794  0.03098660 -0.00015257       0.009
   0.04556065  0.03094866 -0.00019032       0.009
   0.06077335  0.03091073 -0.00022807       0.009
   0.07598606  0.03087279 -0.00026582       0.009
   0.09119876  0.03083485 -0.00030357       0.009
   0.10641146  0.03079691 -0.00034131       0.009
  -0.10656639  0.03132804  0.00018716       0.009
  -0.09135369  0.03129010  0.00014941       0.009
  -0.07614098  0.03125216  0.00011166       0.009
  -0.06092828  0.03121423  0.00007392       0.009
  -0.04571558  0.03117629  0.00003617       0.009
  -0.03050287  0.03113835 -0.00000158       0.009
  -0.01529017  0.03110041 -0.00003933       0.009
  -0.00011620  0.04659371 -0.00011562       0.009
   0.01509651  0.04655578 -0.00015336       0.009
   0.03030921  0.04651784 -0.00019111       0.009
   0.04552192  0.04647990 -0.00022886       0.009
   0.06073462  0.04644196 -0.00026661       0.009
   0.07594732  0.04640403 -0.00030436       0.009
   0.09116003  0.04636609 -0.00034210       0.009
   0.10637273  0.04632815 -0.00037985       0.009
  -0.10660512  0.04685928  0.00014862       0.009
  -0.09139242  0.04682134  0.00011087       0.009
  -0.07617971  0.04678340  0.00007313       0.009
  -0.06096701  0.04674546  0.00003538       0.009
  -0.04575431  0.04670753 -0.00000237       0.009
  -0.03054160  0.04666959 -0.00004012       0.009
  -0.01532890  0.04663165 -0.00007787       0.009
  -0.00015493  0.06212495 -0.00015415       0.009
   0.01505778  0.06208702 -0.00019190       0.009
   0.03027048  0.06204908 -0.00022965       0.009
   0.04548318  0.06201114 -0.00026740       0.009
   0.06069589  0.06197320 -0.00030515       0.009
   0.07590859  0.06193527 -0.00034290       0.009
   0.09112130  0.06189733 -0.00038064       0.009
   0.10633400  0.06185939 -0.00041839       0.009
  -0.10664385  0.06239051  0.00011008       0.009
  -0.09143115  0.06235258  0.00007233       0.009
  -0.07621845  0.06231464  0.00003459       0.009
  -0.06100574  0.06227670 -0.00000316       0.009
  -0.04579304  0.06223876 -0.00004091       0.009
  -0.03058033  0.06220083 -0.00007866       0.009
  -0.01536763  0.06216289 -0.00011641       0.009
  -0.00019366  0.07765619 -0.00019269       0.009
   0.01501905  0.07761825 -0.00023044       0.009
   0.03023175  0.07758032 -0.00026819       0.009
   0.04544445  0.07754238 -0.00030594       0.009
   0.06065716  0.07750444 -0.00034369       0.009
   0.07586986  0.07746650 -0.00038143       0.009
   0.09108256  0.07742857 -0.00041918       0.009
   0.10629527  0.07739063 -0.00045693       0.009
  -0.10668259  0.07792175  0.00007154       0.009
  -0.09146988  0.07788382  0.00003380       0.009
  -0.07625718  0.07784588 -0.00000395       0.009
  -0.06104447  0.07780794 -0.00004170       0.009
  -0.04583177  0.07777000 -0.00007945       0.009
  -0.03061907  0.07773207 -0.00011720       0.009
  -0.01540636  0.07769413 -0.00015494       0.009
  -0.00023239  0.09318743 -0.00023123       0.009
   0.01498031  0.09314949 -0.00026898       0.009
   0.03019302  0.09311155 -0.00030673       0.009
   0.04540572  0.09307362 -0.00034448       0.009
   0.06061843  0.09303568 -0.00038222       0.009
   0.07583113  0.09299774 -0.00041997       0.009
   0.09104383  0.09295980 -0.00045772       0.009
   0.10625654  0.09292187 -0.00049547       0.009
  -0.10672132  0.09345299  0.00003301       0.009
  -0.09150861  0.09341505 -0.00000474       0.009
  -0.07629591  0.09337712 -0.00004249       0.009
  -0.06108321  0.09333918 -0.00008024       0.009
  -0.04587050  0.09330124 -0.00011799       0.009
  -0.03065780  0.09326330 -0.00015574       0.009
  -0.01544509  0.09322537 -0.00019348       0.009
  -0.00027112  0.10871867 -0.00026977       0.009
   0.01494158  0.10868073 -0.00030752       0.009
   0.03015429  0.10864279 -0.00034527       0.009
   0.04536699  0.10860485 -0.00038301       0.009
   0.06057969  0.10856692 -0.00042076       0.009
   0.07579240  0.10852898 -0.00045851       0.009
   0.09100510  0.10849104 -0.00049626       0.009
   0.10621781  0.10845311 -0.00053401       0.009
  -0.10676005  0.10898423 -0.00000553       0.009
  -0.09154735  0.10894629 -0.00004328       0.009
  -0.07633464  0.10890835 -0.00008103       0.009
  -0.06112194  0.10887042 -0.00011878       0.009
  -0.04590923  0.10883248 -0.00015653       0.009
  -0.03069653  0.10879454 -0.00019427       0.009
  -0.01548383  0.10875660 -0.00023202       0.009
 
 k-points in reciprocal lattice and weights: KMesh Grid                              
   0.00000000  0.00000000  0.00000000       0.004
   0.06666667 -0.00000000  0.00000000       0.009
   0.13333333  0.00000000  0.00000000       0.009
   0.20000000  0.00000000  0.00000000       0.009
   0.26666667 -0.00000000 -0.00000000       0.009
   0.33333333  0.00000000  0.00000000       0.009
   0.40000000  0.00000000  0.00000000       0.009
   0.46666667 -0.00000000  0.00000000       0.009
   0.00000000  0.06666667  0.00000000       0.009
   0.06666667  0.06666667  0.00000000       0.009
   0.13333333  0.06666667  0.00000000       0.009
   0.20000000  0.06666667  0.00000000       0.009
   0.26666667  0.06666667  0.00000000       0.009
   0.33333333  0.06666667 -0.00000000       0.009
   0.40000000  0.06666667  0.00000000       0.009
   0.46666667  0.06666667 -0.00000000       0.009
  -0.46666667  0.06666667  0.00000000       0.009
  -0.40000000  0.06666667 -0.00000000       0.009
  -0.33333333  0.06666667 -0.00000000       0.009
  -0.26666667  0.06666667 -0.00000000       0.009
  -0.20000000  0.06666667 -0.00000000       0.009
  -0.13333333  0.06666667  0.00000000       0.009
  -0.06666667  0.06666667  0.00000000       0.009
   0.00000000  0.13333333  0.00000000       0.009
   0.06666667  0.13333333  0.00000000       0.009
   0.13333333  0.13333333  0.00000000       0.009
   0.20000000  0.13333333  0.00000000       0.009
   0.26666667  0.13333333  0.00000000       0.009
   0.33333333  0.13333333  0.00000000       0.009
   0.40000000  0.13333333  0.00000000       0.009
   0.46666667  0.13333333  0.00000000       0.009
  -0.46666667  0.13333333  0.00000000       0.009
  -0.40000000  0.13333333 -0.00000000       0.009
  -0.33333333  0.13333333  0.00000000       0.009
  -0.26666667  0.13333333  0.00000000       0.009
  -0.20000000  0.13333333  0.00000000       0.009
  -0.13333333  0.13333333  0.00000000       0.009
  -0.06666667  0.13333333  0.00000000       0.009
   0.00000000  0.20000000  0.00000000       0.009
   0.06666667  0.20000000  0.00000000       0.009
   0.13333333  0.20000000  0.00000000       0.009
   0.20000000  0.20000000  0.00000000       0.009
   0.26666667  0.20000000  0.00000000       0.009
   0.33333333  0.20000000  0.00000000       0.009
   0.40000000  0.20000000  0.00000000       0.009
   0.46666667  0.20000000  0.00000000       0.009
  -0.46666667  0.20000000  0.00000000       0.009
  -0.40000000  0.20000000  0.00000000       0.009
  -0.33333333  0.20000000  0.00000000       0.009
  -0.26666667  0.20000000  0.00000000       0.009
  -0.20000000  0.20000000  0.00000000       0.009
  -0.13333333  0.20000000  0.00000000       0.009
  -0.06666667  0.20000000  0.00000000       0.009
   0.00000000  0.26666667  0.00000000       0.009
   0.06666667  0.26666667  0.00000000       0.009
   0.13333333  0.26666667  0.00000000       0.009
   0.20000000  0.26666667  0.00000000       0.009
   0.26666667  0.26666667  0.00000000       0.009
   0.33333333  0.26666667  0.00000000       0.009
   0.40000000  0.26666667 -0.00000000       0.009
   0.46666667  0.26666667  0.00000000       0.009
  -0.46666667  0.26666667  0.00000000       0.009
  -0.40000000  0.26666667  0.00000000       0.009
  -0.33333333  0.26666667  0.00000000       0.009
  -0.26666667  0.26666667  0.00000000       0.009
  -0.20000000  0.26666667  0.00000000       0.009
  -0.13333333  0.26666667  0.00000000       0.009
  -0.06666667  0.26666667  0.00000000       0.009
  -0.00000000  0.33333333  0.00000000       0.009
   0.06666667  0.33333333  0.00000000       0.009
   0.13333333  0.33333333  0.00000000       0.009
   0.20000000  0.33333333  0.00000000       0.009
   0.26666667  0.33333333  0.00000000       0.009
   0.33333333  0.33333333  0.00000000       0.009
   0.40000000  0.33333333  0.00000000       0.009
   0.46666667  0.33333333  0.00000000       0.009
  -0.46666667  0.33333333  0.00000000       0.009
  -0.40000000  0.33333333  0.00000000       0.009
  -0.33333333  0.33333333  0.00000000       0.009
  -0.26666667  0.33333333  0.00000000       0.009
  -0.20000000  0.33333333  0.00000000       0.009
  -0.13333333  0.33333333  0.00000000       0.009
  -0.06666667  0.33333333  0.00000000       0.009
   0.00000000  0.40000000  0.00000000       0.009
   0.06666667  0.40000000  0.00000000       0.009
   0.13333333  0.40000000  0.00000000       0.009
   0.20000000  0.40000000 -0.00000000       0.009
   0.26666667  0.40000000  0.00000000       0.009
   0.33333333  0.40000000  0.00000000       0.009
   0.40000000  0.40000000  0.00000000       0.009
   0.46666667  0.40000000  0.00000000       0.009
  -0.46666667  0.40000000  0.00000000       0.009
  -0.40000000  0.40000000  0.00000000       0.009
  -0.33333333  0.40000000  0.00000000       0.009
  -0.26666667  0.40000000  0.00000000       0.009
  -0.20000000  0.40000000  0.00000000       0.009
  -0.13333333  0.40000000  0.00000000       0.009
  -0.06666667  0.40000000  0.00000000       0.009
   0.00000000  0.46666667  0.00000000       0.009
   0.06666667  0.46666667  0.00000000       0.009
   0.13333333  0.46666667  0.00000000       0.009
   0.20000000  0.46666667  0.00000000       0.009
   0.26666667  0.46666667 -0.00000000       0.009
   0.33333333  0.46666667 -0.00000000       0.009
   0.40000000  0.46666667  0.00000000       0.009
   0.46666667  0.46666667  0.00000000       0.009
  -0.46666667  0.46666667  0.00000000       0.009
  -0.40000000  0.46666667  0.00000000       0.009
  -0.33333333  0.46666667  0.00000000       0.009
  -0.26666667  0.46666667  0.00000000       0.009
  -0.20000000  0.46666667  0.00000000       0.009
  -0.13333333  0.46666667  0.00000000       0.009
  -0.06666667  0.46666667  0.00000000       0.009
 
 position of ions in fractional coordinates (direct lattice) 
   0.58124336  0.75000000  0.56874314
   0.08124336  0.25000000  0.43125686
   0.03286064  0.25000000  0.56707387
   0.53286061  0.75000000  0.43292613
 
 position of ions in cartesian coordinates  (Angst):
   2.58370132  3.25416359 11.44615358
   0.38028302  1.09557240  8.67183575
   0.17504355  1.10183318 11.40122753
   2.36488002  3.24684266  8.71570164
 


--------------------------------------------------------------------------------------------------------


 k-point  1 :   0.0000 0.0000 0.0000  plane waves:   12667
 k-point  2 :   0.0667-0.0000 0.0000  plane waves:   12658
 k-point  3 :   0.1333 0.0000 0.0000  plane waves:   12643
 k-point  4 :   0.2000 0.0000 0.0000  plane waves:   12609
 k-point  5 :   0.2667-0.0000-0.0000  plane waves:   12610
 k-point  6 :   0.3333 0.0000 0.0000  plane waves:   12636
 k-point  7 :   0.4000 0.0000 0.0000  plane waves:   12656
 k-point  8 :   0.4667-0.0000 0.0000  plane waves:   12644
 k-point  9 :   0.0000 0.0667 0.0000  plane waves:   12643
 k-point 10 :   0.0667 0.0667 0.0000  plane waves:   12634
 k-point 11 :   0.1333 0.0667 0.0000  plane waves:   12625
 k-point 12 :   0.2000 0.0667 0.0000  plane waves:   12620
 k-point 13 :   0.2667 0.0667 0.0000  plane waves:   12615
 k-point 14 :   0.3333 0.0667-0.0000  plane waves:   12637
 k-point 15 :   0.4000 0.0667 0.0000  plane waves:   12656
 k-point 16 :   0.4667 0.0667-0.0000  plane waves:   12649
 k-point 17 :  -0.4667 0.0667 0.0000  plane waves:   12646
 k-point 18 :  -0.4000 0.0667-0.0000  plane waves:   12653
 k-point 19 :  -0.3333 0.0667-0.0000  plane waves:   12649
 k-point 20 :  -0.2667 0.0667-0.0000  plane waves:   12616
 k-point 21 :  -0.2000 0.0667-0.0000  plane waves:   12614
 k-point 22 :  -0.1333 0.0667 0.0000  plane waves:   12648
 k-point 23 :  -0.0667 0.0667 0.0000  plane waves:   12645
 k-point 24 :   0.0000 0.1333 0.0000  plane waves:   12633
 k-point 25 :   0.0667 0.1333 0.0000  plane waves:   12633
 k-point 26 :   0.1333 0.1333 0.0000  plane waves:   12622
 k-point 27 :   0.2000 0.1333 0.0000  plane waves:   12601
 k-point 28 :   0.2667 0.1333 0.0000  plane waves:   12605
 k-point 29 :   0.3333 0.1333 0.0000  plane waves:   12631
 k-point 30 :   0.4000 0.1333 0.0000  plane waves:   12652
 k-point 31 :   0.4667 0.1333 0.0000  plane waves:   12654
 k-point 32 :  -0.4667 0.1333 0.0000  plane waves:   12644
 k-point 33 :  -0.4000 0.1333-0.0000  plane waves:   12651
 k-point 34 :  -0.3333 0.1333 0.0000  plane waves:   12649
 k-point 35 :  -0.2667 0.1333 0.0000  plane waves:   12618
 k-point 36 :  -0.2000 0.1333 0.0000  plane waves:   12616
 k-point 37 :  -0.1333 0.1333 0.0000  plane waves:   12625
 k-point 38 :  -0.0667 0.1333 0.0000  plane waves:   12635
 k-point 39 :   0.0000 0.2000 0.0000  plane waves:   12639
 k-point 40 :   0.0667 0.2000 0.0000  plane waves:   12622
 k-point 41 :   0.1333 0.2000 0.0000  plane waves:   12613
 k-point 42 :   0.2000 0.2000 0.0000  plane waves:   12612
 k-point 43 :   0.2667 0.2000 0.0000  plane waves:   12599
 k-point 44 :   0.3333 0.2000 0.0000  plane waves:   12619
 k-point 45 :   0.4000 0.2000 0.0000  plane waves:   12638
 k-point 46 :   0.4667 0.2000 0.0000  plane waves:   12639
 k-point 47 :  -0.4667 0.2000 0.0000  plane waves:   12643
 k-point 48 :  -0.4000 0.2000 0.0000  plane waves:   12631
 k-point 49 :  -0.3333 0.2000 0.0000  plane waves:   12614
 k-point 50 :  -0.2667 0.2000 0.0000  plane waves:   12623
 k-point 51 :  -0.2000 0.2000 0.0000  plane waves:   12623
 k-point 52 :  -0.1333 0.2000 0.0000  plane waves:   12619
 k-point 53 :  -0.0667 0.2000 0.0000  plane waves:   12634
 k-point 54 :   0.0000 0.2667 0.0000  plane waves:   12626
 k-point 55 :   0.0667 0.2667 0.0000  plane waves:   12614
 k-point 56 :   0.1333 0.2667 0.0000  plane waves:   12610
 k-point 57 :   0.2000 0.2667 0.0000  plane waves:   12617
 k-point 58 :   0.2667 0.2667 0.0000  plane waves:   12613
 k-point 59 :   0.3333 0.2667 0.0000  plane waves:   12614
 k-point 60 :   0.4000 0.2667-0.0000  plane waves:   12615
 k-point 61 :   0.4667 0.2667 0.0000  plane waves:   12619
 k-point 62 :  -0.4667 0.2667 0.0000  plane waves:   12632
 k-point 63 :  -0.4000 0.2667 0.0000  plane waves:   12631
 k-point 64 :  -0.3333 0.2667 0.0000  plane waves:   12620
 k-point 65 :  -0.2667 0.2667 0.0000  plane waves:   12617
 k-point 66 :  -0.2000 0.2667 0.0000  plane waves:   12622
 k-point 67 :  -0.1333 0.2667 0.0000  plane waves:   12622
 k-point 68 :  -0.0667 0.2667 0.0000  plane waves:   12610
 k-point 69 :  -0.0000 0.3333 0.0000  plane waves:   12604
 k-point 70 :   0.0667 0.3333 0.0000  plane waves:   12604
 k-point 71 :   0.1333 0.3333 0.0000  plane waves:   12598
 k-point 72 :   0.2000 0.3333 0.0000  plane waves:   12618
 k-point 73 :   0.2667 0.3333 0.0000  plane waves:   12607
 k-point 74 :   0.3333 0.3333 0.0000  plane waves:   12614
 k-point 75 :   0.4000 0.3333 0.0000  plane waves:   12611
 k-point 76 :   0.4667 0.3333 0.0000  plane waves:   12610
 k-point 77 :  -0.4667 0.3333 0.0000  plane waves:   12612
 k-point 78 :  -0.4000 0.3333 0.0000  plane waves:   12618
 k-point 79 :  -0.3333 0.3333 0.0000  plane waves:   12622
 k-point 80 :  -0.2667 0.3333 0.0000  plane waves:   12623
 k-point 81 :  -0.2000 0.3333 0.0000  plane waves:   12620
 k-point 82 :  -0.1333 0.3333 0.0000  plane waves:   12606
 k-point 83 :  -0.0667 0.3333 0.0000  plane waves:   12594
 k-point 84 :   0.0000 0.4000 0.0000  plane waves:   12593
 k-point 85 :   0.0667 0.4000 0.0000  plane waves:   12597
 k-point 86 :   0.1333 0.4000 0.0000  plane waves:   12609
 k-point 87 :   0.2000 0.4000-0.0000  plane waves:   12592
 k-point 88 :   0.2667 0.4000 0.0000  plane waves:   12610
 k-point 89 :   0.3333 0.4000 0.0000  plane waves:   12596
 k-point 90 :   0.4000 0.4000 0.0000  plane waves:   12598
 k-point 91 :   0.4667 0.4000 0.0000  plane waves:   12600
 k-point 92 :  -0.4667 0.4000 0.0000  plane waves:   12593
 k-point 93 :  -0.4000 0.4000 0.0000  plane waves:   12585
 k-point 94 :  -0.3333 0.4000 0.0000  plane waves:   12605
 k-point 95 :  -0.2667 0.4000 0.0000  plane waves:   12622
 k-point 96 :  -0.2000 0.4000 0.0000  plane waves:   12603
 k-point 97 :  -0.1333 0.4000 0.0000  plane waves:   12595
 k-point 98 :  -0.0667 0.4000 0.0000  plane waves:   12594
 k-point 99 :   0.0000 0.4667 0.0000  plane waves:   12584
 k-point ** :   0.0667 0.4667 0.0000  plane waves:   12603
 k-point ** :   0.1333 0.4667 0.0000  plane waves:   12604
 k-point ** :   0.2000 0.4667 0.0000  plane waves:   12610
 k-point ** :   0.2667 0.4667-0.0000  plane waves:   12586
 k-point ** :   0.3333 0.4667-0.0000  plane waves:   12598
 k-point ** :   0.4000 0.4667 0.0000  plane waves:   12590
 k-point ** :   0.4667 0.4667 0.0000  plane waves:   12598
 k-point ** :  -0.4667 0.4667 0.0000  plane waves:   12586
 k-point ** :  -0.4000 0.4667 0.0000  plane waves:   12583
 k-point ** :  -0.3333 0.4667 0.0000  plane waves:   12577
 k-point ** :  -0.2667 0.4667 0.0000  plane waves:   12595
 k-point ** :  -0.2000 0.4667 0.0000  plane waves:   12599
 k-point ** :  -0.1333 0.4667 0.0000  plane waves:   12594
 k-point ** :  -0.0667 0.4667 0.0000  plane waves:   12595

 maximum and minimum number of plane-waves per node :       546      504

 maximum number of plane-waves:     12667
 maximum index in each direction: 
   IXMAX=    9   IYMAX=    8   IZMAX=   40
   IXMIN=   -9   IYMIN=   -9   IZMIN=  -40


 parallel 3D FFT for wavefunctions:
    minimum data exchange during FFTs selected (reduces bandwidth)
 parallel 3D FFT for charge:
    minimum data exchange during FFTs selected (reduces bandwidth)


 total amount of memory used by VASP MPI-rank0    64143. kBytes
=======================================================================

   base      :      30000. kBytes
   nonl-proj :      12868. kBytes
   fftplans  :       2714. kBytes
   grid      :       4404. kBytes
   one-center:          8. kBytes
   wavefun   :      14149. kBytes
 
     INWAV:  cpu time    0.0000: real time    0.0000
 Broyden mixing: mesh for mixing (old mesh)
   NGX = 17   NGY = 17   NGZ = 81
  (NGX  = 72   NGY  = 72   NGZ  =324)
  gives a total of  23409 points

 initial charge density was supplied:
 charge density of overlapping atoms calculated
 number of electron      20.0000000 magnetization 
 keeping initial charge density in first step


--------------------------------------------------------------------------------------------------------


 Maximum index for augmentation-charges         2243 (set IRDMAX)


--------------------------------------------------------------------------------------------------------


 First call to EWALD:  gamma=   0.245
 Maximum number of real-space cells 4x 4x 1
 Maximum number of reciprocal cells 2x 2x 7

    FEWALD:  cpu time    0.0016: real time    0.0030


--------------------------------------- Iteration      1(   1)  ---------------------------------------


    POTLOK:  cpu time    0.0638: real time    0.1981
    SETDIJ:  cpu time    0.0047: real time    0.0050
     EDDAV:  cpu time    2.5250: real time    2.5373
       DOS:  cpu time    0.0054: real time    0.0055
    --------------------------------------------
      LOOP:  cpu time    2.5989: real time    2.7459

 eigenvalue-minimisations  :  3164
 total energy-change (2. order) : 0.1440483E+03  (-0.6232653E+03)
 number of electron      20.0000000 magnetization 
 augmentation part       20.0000000 magnetization 

 Free energy of the ion-electron system (eV)
  ---------------------------------------------------
  alpha Z        PSCENC =         9.45710932
  Ewald energy   TEWEN  =      1163.00422654
  -Hartree energ DENC   =     -1764.77832147
  -exchange      EXHF   =         0.00000000
  -V(xc)+E(xc)   XCENC  =      -238.60901526
  PAW double counting   =       799.43158084     -524.17639913
  entropy T*S    EENTRO =        -0.01525533
  eigenvalues    EBANDS =        -2.69348855
  atomic energy  EATOM  =       702.42789710
  Solvation  Ediel_sol  =         0.00000000
  ---------------------------------------------------
  free energy    TOTEN  =       144.04833406 eV

  energy without entropy =      144.06358939  energy(sigma->0) =      144.05596172


--------------------------------------------------------------------------------------------------------




--------------------------------------- Iteration      1(   2)  ---------------------------------------


     EDDAV:  cpu time    3.6557: real time    3.6674
       DOS:  cpu time    0.0056: real time    0.0057
    --------------------------------------------
      LOOP:  cpu time    3.6613: real time    3.6730

 eigenvalue-minimisations  :  5258
 total energy-change (2. order) :-0.1393986E+03  (-0.1351827E+03)
 number of electron      20.0000000 magnetization 
 augmentation part       20.0000000 magnetization 

 Free energy of the ion-electron system (eV)
  ---------------------------------------------------
  alpha Z        PSCENC =         9.45710932
  Ewald energy   TEWEN  =      1163.00422654
  -Hartree energ DENC   =     -1764.77832147
  -exchange      EXHF   =         0.00000000
  -V(xc)+E(xc)   XCENC  =      -238.60901526
  PAW double counting   =       799.43158084     -524.17639913
  entropy T*S    EENTRO =        -0.00159348
  eigenvalues    EBANDS =      -142.10572753
  atomic energy  EATOM  =       702.42789710
  Solvation  Ediel_sol  =         0.00000000
  ---------------------------------------------------
  free energy    TOTEN  =         4.64975693 eV

  energy without entropy =        4.65135041  energy(sigma->0) =        4.65055367


--------------------------------------------------------------------------------------------------------




--------------------------------------- Iteration      1(   3)  ---------------------------------------


     EDDAV:  cpu time    6.4352: real time    6.4487
       DOS:  cpu time    0.0036: real time    0.0036
    --------------------------------------------
      LOOP:  cpu time    6.4388: real time    6.4523

 eigenvalue-minimisations  :  3998
 total energy-change (2. order) :-0.2063912E+02  (-0.2049306E+02)
 number of electron      20.0000000 magnetization 
 augmentation part       20.0000000 magnetization 

 Free energy of the ion-electron system (eV)
  ---------------------------------------------------
  alpha Z        PSCENC =         9.45710932
  Ewald energy   TEWEN  =      1163.00422654
  -Hartree energ DENC   =     -1764.77832147
  -exchange      EXHF   =         0.00000000
  -V(xc)+E(xc)   XCENC  =      -238.60901526
  PAW double counting   =       799.43158084     -524.17639913
  entropy T*S    EENTRO =        -0.00000000
  eigenvalues    EBANDS =      -162.74643641
  atomic energy  EATOM  =       702.42789710
  Solvation  Ediel_sol  =         0.00000000
  ---------------------------------------------------
  free energy    TOTEN  =       -15.98935847 eV

  energy without entropy =      -15.98935847  energy(sigma->0) =      -15.98935847


--------------------------------------------------------------------------------------------------------




--------------------------------------- Iteration      1(   4)  ---------------------------------------


     EDDAV:  cpu time    6.4557: real time    6.4713
       DOS:  cpu time    0.0037: real time    0.0037
    --------------------------------------------
      LOOP:  cpu time    6.4594: real time    6.4750

 eigenvalue-minimisations  :  4584
 total energy-change (2. order) :-0.7948383E+00  (-0.7927799E+00)
 number of electron      20.0000000 magnetization 
 augmentation part       20.0000000 magnetization 

 Free energy of the ion-electron system (eV)
  ---------------------------------------------------
  alpha Z        PSCENC =         9.45710932
  Ewald energy   TEWEN  =      1163.00422654
  -Hartree energ DENC   =     -1764.77832147
  -exchange      EXHF   =         0.00000000
  -V(xc)+E(xc)   XCENC  =      -238.60901526
  PAW double counting   =       799.43158084     -524.17639913
  entropy T*S    EENTRO =        -0.00000000
  eigenvalues    EBANDS =      -163.54127471
  atomic energy  EATOM  =       702.42789710
  Solvation  Ediel_sol  =         0.00000000
  ---------------------------------------------------
  free energy    TOTEN  =       -16.78419677 eV

  energy without entropy =      -16.78419677  energy(sigma->0) =      -16.78419677


--------------------------------------------------------------------------------------------------------




--------------------------------------- Iteration      1(   5)  ---------------------------------------


     EDDAV:  cpu time    2.9419: real time    2.9518
       DOS:  cpu time    0.0037: real time    0.0037
    CHARGE:  cpu time    0.2090: real time    0.2103
    MIXING:  cpu time    0.0049: real time    0.0050
    --------------------------------------------
      LOOP:  cpu time    3.1595: real time    3.1708

 eigenvalue-minimisations  :  4106
 total energy-change (2. order) :-0.1667369E-01  (-0.1665976E-01)
 number of electron      19.9999999 magnetization 
 augmentation part       -4.5221102 magnetization 

 Broyden mixing:
  rms(total) = 0.44872E+00    rms(broyden)= 0.44872E+00
  rms(prec ) = 0.48967E+00
  weight for this iteration     100.00

 Free energy of the ion-electron system (eV)
  ---------------------------------------------------
  alpha Z        PSCENC =         9.45710932
  Ewald energy   TEWEN  =      1163.00422654
  -Hartree energ DENC   =     -1764.77832147
  -exchange      EXHF   =         0.00000000
  -V(xc)+E(xc)   XCENC  =      -238.60901526
  PAW double counting   =       799.43158084     -524.17639913
  entropy T*S    EENTRO =        -0.00000000
  eigenvalues    EBANDS =      -163.55794840
  atomic energy  EATOM  =       702.42789710
  Solvation  Ediel_sol  =         0.00000000
  ---------------------------------------------------
  free energy    TOTEN  =       -16.80087046 eV

  energy without entropy =      -16.80087046  energy(sigma->0) =      -16.80087046


--------------------------------------------------------------------------------------------------------




--------------------------------------- Iteration      1(   6)  ---------------------------------------


    POTLOK:  cpu time    0.0382: real time    0.0383
    SETDIJ:  cpu time    0.0033: real time    0.0043
     EDDAV:  cpu time   14.8437: real time   14.8674
       DOS:  cpu time    0.0038: real time    0.0038
    CHARGE:  cpu time    0.2127: real time    0.2137
    MIXING:  cpu time    0.0012: real time    0.0012
    --------------------------------------------
      LOOP:  cpu time   15.1029: real time   15.1287

 eigenvalue-minimisations  :  3934
 total energy-change (2. order) : 0.4971007E+00  (-0.1280053E+00)
 number of electron      19.9999999 magnetization 
 augmentation part       -4.4891641 magnetization 

 Broyden mixing:
  rms(total) = 0.27459E+00    rms(broyden)= 0.27459E+00
  rms(prec ) = 0.28375E+00
  weight for this iteration     100.00

 eigenvalues of (default mixing * dielectric matrix)
  average eigenvalue GAMMA=   1.7792
  1.7792

 Free energy of the ion-electron system (eV)
  ---------------------------------------------------
  alpha Z        PSCENC =         9.45710932
  Ewald energy   TEWEN  =      1163.00422654
  -Hartree energ DENC   =     -1772.71643918
  -exchange      EXHF   =         0.00000000
  -V(xc)+E(xc)   XCENC  =      -238.12579277
  PAW double counting   =       922.93684288     -647.86013582
  entropy T*S    EENTRO =        -0.00000000
  eigenvalues    EBANDS =      -155.42747778
  atomic energy  EATOM  =       702.42789710
  Solvation  Ediel_sol  =         0.00000000
  ---------------------------------------------------
  free energy    TOTEN  =       -16.30376972 eV

  energy without entropy =      -16.30376972  energy(sigma->0) =      -16.30376972


--------------------------------------------------------------------------------------------------------




--------------------------------------- Iteration      1(   7)  ---------------------------------------


    POTLOK:  cpu time    0.0383: real time    0.0384
    SETDIJ:  cpu time    0.0034: real time    0.0039
     EDDAV:  cpu time    5.2981: real time    5.3098
       DOS:  cpu time    0.0038: real time    0.0038
    CHARGE:  cpu time    0.2095: real time    0.2099
    MIXING:  cpu time    0.0011: real time    0.0012
    --------------------------------------------
      LOOP:  cpu time    5.5542: real time    5.5671

 eigenvalue-minimisations  :  4024
 total energy-change (2. order) : 0.2720760E-01  (-0.3101479E-01)
 number of electron      19.9999999 magnetization 
 augmentation part       -4.4814748 magnetization 

 Broyden mixing:
  rms(total) = 0.10555E+00    rms(broyden)= 0.10555E+00
  rms(prec ) = 0.11094E+00
  weight for this iteration     100.00

 eigenvalues of (default mixing * dielectric matrix)
  average eigenvalue GAMMA=   1.7306
  1.3672  2.0940

 Free energy of the ion-electron system (eV)
  ---------------------------------------------------
  alpha Z        PSCENC =         9.45710932
  Ewald energy   TEWEN  =      1163.00422654
  -Hartree energ DENC   =     -1777.69612189
  -exchange      EXHF   =         0.00000000
  -V(xc)+E(xc)   XCENC  =      -237.80773878
  PAW double counting   =      1061.14839623     -786.20494750
  entropy T*S    EENTRO =        -0.00000000
  eigenvalues    EBANDS =      -150.60538313
  atomic energy  EATOM  =       702.42789710
  Solvation  Ediel_sol  =         0.00000000
  ---------------------------------------------------
  free energy    TOTEN  =       -16.27656212 eV

  energy without entropy =      -16.27656212  energy(sigma->0) =      -16.27656212


--------------------------------------------------------------------------------------------------------




--------------------------------------- Iteration      1(   8)  ---------------------------------------


    POTLOK:  cpu time    0.0382: real time    0.0383
    SETDIJ:  cpu time    0.0032: real time    0.0032
     EDDAV:  cpu time    6.8442: real time    6.8591
       DOS:  cpu time    0.0038: real time    0.0038
    CHARGE:  cpu time    0.2105: real time    0.2110
    MIXING:  cpu time    0.0012: real time    0.0012
    --------------------------------------------
      LOOP:  cpu time    7.1011: real time    7.1166

 eigenvalue-minimisations  :  4524
 total energy-change (2. order) : 0.9630252E-02  (-0.3741486E-02)
 number of electron      19.9999999 magnetization 
 augmentation part       -4.4856667 magnetization 

 Broyden mixing:
  rms(total) = 0.20173E-01    rms(broyden)= 0.20173E-01
  rms(prec ) = 0.27677E-01
  weight for this iteration     100.00

 eigenvalues of (default mixing * dielectric matrix)
  average eigenvalue GAMMA=   1.6981
  2.5159  1.2892  1.2892

 Free energy of the ion-electron system (eV)
  ---------------------------------------------------
  alpha Z        PSCENC =         9.45710932
  Ewald energy   TEWEN  =      1163.00422654
  -Hartree energ DENC   =     -1779.46419691
  -exchange      EXHF   =         0.00000000
  -V(xc)+E(xc)   XCENC  =      -237.72666306
  PAW double counting   =      1127.65266555     -852.74783989
  entropy T*S    EENTRO =        -0.00000000
  eigenvalues    EBANDS =      -148.87013050
  atomic energy  EATOM  =       702.42789710
  Solvation  Ediel_sol  =         0.00000000
  ---------------------------------------------------
  free energy    TOTEN  =       -16.26693186 eV

  energy without entropy =      -16.26693186  energy(sigma->0) =      -16.26693186


--------------------------------------------------------------------------------------------------------




--------------------------------------- Iteration      1(   9)  ---------------------------------------


    POTLOK:  cpu time    0.0379: real time    0.0381
    SETDIJ:  cpu time    0.0032: real time    0.0032
     EDDAV:  cpu time    3.0200: real time    3.0293
       DOS:  cpu time    0.0038: real time    0.0038
    CHARGE:  cpu time    0.2076: real time    0.2080
    MIXING:  cpu time    0.0012: real time    0.0012
    --------------------------------------------
      LOOP:  cpu time    3.2738: real time    3.2836

 eigenvalue-minimisations  :  4310
 total energy-change (2. order) : 0.3744387E-02  (-0.6471981E-03)
 number of electron      19.9999999 magnetization 
 augmentation part       -4.4837957 magnetization 

 Broyden mixing:
  rms(total) = 0.10019E-01    rms(broyden)= 0.10019E-01
  rms(prec ) = 0.15676E-01
  weight for this iteration     100.00

 eigenvalues of (default mixing * dielectric matrix)
  average eigenvalue GAMMA=   1.7008
  2.2136  2.2136  1.1881  1.1881

 Free energy of the ion-electron system (eV)
  ---------------------------------------------------
  alpha Z        PSCENC =         9.45710932
  Ewald energy   TEWEN  =      1163.00422654
  -Hartree energ DENC   =     -1781.42751088
  -exchange      EXHF   =         0.00000000
  -V(xc)+E(xc)   XCENC  =      -237.65488360
  PAW double counting   =      1145.00723090     -870.11359233
  entropy T*S    EENTRO =        -0.00000000
  eigenvalues    EBANDS =      -146.96366454
  atomic energy  EATOM  =       702.42789710
  Solvation  Ediel_sol  =         0.00000000
  ---------------------------------------------------
  free energy    TOTEN  =       -16.26318748 eV

  energy without entropy =      -16.26318748  energy(sigma->0) =      -16.26318748


--------------------------------------------------------------------------------------------------------




--------------------------------------- Iteration      1(  10)  ---------------------------------------


    POTLOK:  cpu time    0.0382: real time    0.0384
    SETDIJ:  cpu time    0.0032: real time    0.0032
     EDDAV:  cpu time    3.0597: real time    3.0694
       DOS:  cpu time    0.0038: real time    0.0038
    CHARGE:  cpu time    0.2077: real time    0.2082
    MIXING:  cpu time    0.0012: real time    0.0012
    --------------------------------------------
      LOOP:  cpu time    3.3138: real time    3.3241

 eigenvalue-minimisations  :  4364
 total energy-change (2. order) : 0.1301368E-02  (-0.1181858E-03)
 number of electron      19.9999999 magnetization 
 augmentation part       -4.4825118 magnetization 

 Broyden mixing:
  rms(total) = 0.49519E-02    rms(broyden)= 0.49519E-02
  rms(prec ) = 0.93904E-02
  weight for this iteration     100.00

 eigenvalues of (default mixing * dielectric matrix)
  average eigenvalue GAMMA=   1.8589
  3.3281  2.5927  1.2327  1.2327  0.9083

 Free energy of the ion-electron system (eV)
  ---------------------------------------------------
  alpha Z        PSCENC =         9.45710932
  Ewald energy   TEWEN  =      1163.00422654
  -Hartree energ DENC   =     -1782.70214295
  -exchange      EXHF   =         0.00000000
  -V(xc)+E(xc)   XCENC  =      -237.64265242
  PAW double counting   =      1135.25137613     -860.34830190
  entropy T*S    EENTRO =        -0.00000000
  eigenvalues    EBANDS =      -145.70939792
  atomic energy  EATOM  =       702.42789710
  Solvation  Ediel_sol  =         0.00000000
  ---------------------------------------------------
  free energy    TOTEN  =       -16.26188611 eV

  energy without entropy =      -16.26188611  energy(sigma->0) =      -16.26188611


--------------------------------------------------------------------------------------------------------




--------------------------------------- Iteration      1(  11)  ---------------------------------------


    POTLOK:  cpu time    0.0384: real time    0.0386
    SETDIJ:  cpu time    0.0032: real time    0.0032
     EDDAV:  cpu time    3.4439: real time    3.4538
       DOS:  cpu time    0.0039: real time    0.0040
    CHARGE:  cpu time    0.2090: real time    0.2094
    MIXING:  cpu time    0.0013: real time    0.0013
    --------------------------------------------
      LOOP:  cpu time    3.6997: real time    3.7102

 eigenvalue-minimisations  :  4286
 total energy-change (2. order) : 0.7644901E-03  (-0.1307907E-03)
 number of electron      19.9999999 magnetization 
 augmentation part       -4.4811102 magnetization 

 Broyden mixing:
  rms(total) = 0.32529E-02    rms(broyden)= 0.32529E-02
  rms(prec ) = 0.50127E-02
  weight for this iteration     100.00

 eigenvalues of (default mixing * dielectric matrix)
  average eigenvalue GAMMA=   1.8311
  3.3960  2.3497  1.9746  1.1902  1.1902  0.8858

 Free energy of the ion-electron system (eV)
  ---------------------------------------------------
  alpha Z        PSCENC =         9.45710932
  Ewald energy   TEWEN  =      1163.00422654
  -Hartree energ DENC   =     -1784.33536381
  -exchange      EXHF   =         0.00000000
  -V(xc)+E(xc)   XCENC  =      -237.61122901
  PAW double counting   =      1136.32902396     -861.42452464
  entropy T*S    EENTRO =        -0.00000000
  eigenvalues    EBANDS =      -144.10826108
  atomic energy  EATOM  =       702.42789710
  Solvation  Ediel_sol  =         0.00000000
  ---------------------------------------------------
  free energy    TOTEN  =       -16.26112162 eV

  energy without entropy =      -16.26112162  energy(sigma->0) =      -16.26112162


--------------------------------------------------------------------------------------------------------




--------------------------------------- Iteration      1(  12)  ---------------------------------------


    POTLOK:  cpu time    0.0385: real time    0.0387
    SETDIJ:  cpu time    0.0032: real time    0.0032
     EDDAV:  cpu time    2.6767: real time    2.6858
       DOS:  cpu time    0.0038: real time    0.0038
    CHARGE:  cpu time    0.2074: real time    0.2078
    MIXING:  cpu time    0.0014: real time    0.0014
    --------------------------------------------
      LOOP:  cpu time    2.9310: real time    2.9407

 eigenvalue-minimisations  :  3614
 total energy-change (2. order) :-0.8412667E-03  (-0.2834798E-04)
 number of electron      19.9999999 magnetization 
 augmentation part       -4.4804809 magnetization 

 Broyden mixing:
  rms(total) = 0.17756E-02    rms(broyden)= 0.17756E-02
  rms(prec ) = 0.27673E-02
  weight for this iteration     100.00

 eigenvalues of (default mixing * dielectric matrix)
  average eigenvalue GAMMA=   2.0677
  4.6262  3.0760  2.4994  1.2013  1.2013  1.0223  0.8477

 Free energy of the ion-electron system (eV)
  ---------------------------------------------------
  alpha Z        PSCENC =         9.45710932
  Ewald energy   TEWEN  =      1163.00422654
  -Hartree energ DENC   =     -1784.98753490
  -exchange      EXHF   =         0.00000000
  -V(xc)+E(xc)   XCENC  =      -237.60170456
  PAW double counting   =      1138.01220670     -863.11019263
  entropy T*S    EENTRO =        -0.00000000
  eigenvalues    EBANDS =      -143.46397045
  atomic energy  EATOM  =       702.42789710
  Solvation  Ediel_sol  =         0.00000000
  ---------------------------------------------------
  free energy    TOTEN  =       -16.26196289 eV

  energy without entropy =      -16.26196289  energy(sigma->0) =      -16.26196289


--------------------------------------------------------------------------------------------------------




--------------------------------------- Iteration      1(  13)  ---------------------------------------


    POTLOK:  cpu time    0.0387: real time    0.0389
    SETDIJ:  cpu time    0.0032: real time    0.0032
     EDDAV:  cpu time    2.7438: real time    2.7529
       DOS:  cpu time    0.0039: real time    0.0039
    CHARGE:  cpu time    0.8155: real time    0.8165
    MIXING:  cpu time    0.0015: real time    0.0015
    --------------------------------------------
      LOOP:  cpu time    3.6065: real time    3.6168

 eigenvalue-minimisations  :  3734
 total energy-change (2. order) :-0.4397272E-03  (-0.7923959E-05)
 number of electron      19.9999999 magnetization 
 augmentation part       -4.4802672 magnetization 

 Broyden mixing:
  rms(total) = 0.11085E-02    rms(broyden)= 0.11085E-02
  rms(prec ) = 0.14880E-02
  weight for this iteration     100.00

 eigenvalues of (default mixing * dielectric matrix)
  average eigenvalue GAMMA=   2.2487
  5.6931  3.3036  2.5050  2.1949  1.1599  1.1599  1.0625  0.9103

 Free energy of the ion-electron system (eV)
  ---------------------------------------------------
  alpha Z        PSCENC =         9.45710932
  Ewald energy   TEWEN  =      1163.00422654
  -Hartree energ DENC   =     -1785.40426395
  -exchange      EXHF   =         0.00000000
  -V(xc)+E(xc)   XCENC  =      -237.60019543
  PAW double counting   =      1136.91165501     -862.00853687
  entropy T*S    EENTRO =        -0.00000000
  eigenvalues    EBANDS =      -143.05029434
  atomic energy  EATOM  =       702.42789710
  Solvation  Ediel_sol  =         0.00000000
  ---------------------------------------------------
  free energy    TOTEN  =       -16.26240261 eV

  energy without entropy =      -16.26240261  energy(sigma->0) =      -16.26240261


--------------------------------------------------------------------------------------------------------




--------------------------------------- Iteration      1(  14)  ---------------------------------------


    POTLOK:  cpu time    0.0402: real time    0.0403
    SETDIJ:  cpu time    0.0032: real time    0.0032
     EDDAV:  cpu time    2.8837: real time    2.8928
       DOS:  cpu time    0.0038: real time    0.0038
    CHARGE:  cpu time    0.2084: real time    0.2101
    MIXING:  cpu time    0.0015: real time    0.0015
    --------------------------------------------
      LOOP:  cpu time    3.1407: real time    3.1518

 eigenvalue-minimisations  :  3950
 total energy-change (2. order) :-0.2861193E-03  (-0.4145566E-05)
 number of electron      19.9999999 magnetization 
 augmentation part       -4.4802399 magnetization 

 Broyden mixing:
  rms(total) = 0.40949E-03    rms(broyden)= 0.40949E-03
  rms(prec ) = 0.61524E-03
  weight for this iteration     100.00

 eigenvalues of (default mixing * dielectric matrix)
  average eigenvalue GAMMA=   2.2486
  6.7681  3.0817  2.5412  2.5412  1.1825  1.1825  1.0184  0.9611  0.9611

 Free energy of the ion-electron system (eV)
  ---------------------------------------------------
  alpha Z        PSCENC =         9.45710932
  Ewald energy   TEWEN  =      1163.00422654
  -Hartree energ DENC   =     -1785.61607045
  -exchange      EXHF   =         0.00000000
  -V(xc)+E(xc)   XCENC  =      -237.60010194
  PAW double counting   =      1137.14662401     -862.24297203
  entropy T*S    EENTRO =        -0.00000000
  eigenvalues    EBANDS =      -142.83940128
  atomic energy  EATOM  =       702.42789710
  Solvation  Ediel_sol  =         0.00000000
  ---------------------------------------------------
  free energy    TOTEN  =       -16.26268873 eV

  energy without entropy =      -16.26268873  energy(sigma->0) =      -16.26268873


--------------------------------------------------------------------------------------------------------




--------------------------------------- Iteration      1(  15)  ---------------------------------------


    POTLOK:  cpu time    0.0401: real time    0.0403
    SETDIJ:  cpu time    0.0032: real time    0.0032
     EDDAV:  cpu time    2.8431: real time    2.8521
       DOS:  cpu time    0.0038: real time    0.0039
    CHARGE:  cpu time    0.2107: real time    0.2114
    MIXING:  cpu time    0.0016: real time    0.0016
    --------------------------------------------
      LOOP:  cpu time    3.1025: real time    3.1125

 eigenvalue-minimisations  :  3850
 total energy-change (2. order) :-0.5216384E-04  (-0.2012577E-06)
 number of electron      19.9999999 magnetization 
 augmentation part       -4.4802551 magnetization 

 Broyden mixing:
  rms(total) = 0.32136E-03    rms(broyden)= 0.32136E-03
  rms(prec ) = 0.49015E-03
  weight for this iteration     100.00

 eigenvalues of (default mixing * dielectric matrix)
  average eigenvalue GAMMA=   2.3584
  6.6037  4.2558  2.6979  2.6979  1.9715  1.1410  1.1410  1.2024  0.9366  0.9366

 Free energy of the ion-electron system (eV)
  ---------------------------------------------------
  alpha Z        PSCENC =         9.45710932
  Ewald energy   TEWEN  =      1163.00422654
  -Hartree energ DENC   =     -1785.62798056
  -exchange      EXHF   =         0.00000000
  -V(xc)+E(xc)   XCENC  =      -237.60047112
  PAW double counting   =      1136.94201309     -862.03822111
  entropy T*S    EENTRO =        -0.00000000
  eigenvalues    EBANDS =      -142.82731415
  atomic energy  EATOM  =       702.42789710
  Solvation  Ediel_sol  =         0.00000000
  ---------------------------------------------------
  free energy    TOTEN  =       -16.26274090 eV

  energy without entropy =      -16.26274090  energy(sigma->0) =      -16.26274090


--------------------------------------------------------------------------------------------------------




--------------------------------------- Iteration      1(  16)  ---------------------------------------


    POTLOK:  cpu time    0.0387: real time    0.0389
    SETDIJ:  cpu time    0.0033: real time    0.0033
     EDDAV:  cpu time    2.6063: real time    2.6140
       DOS:  cpu time    0.0038: real time    0.0038
    CHARGE:  cpu time    0.2076: real time    0.2079
    MIXING:  cpu time    0.0016: real time    0.0016
    --------------------------------------------
      LOOP:  cpu time    2.8612: real time    2.8695

 eigenvalue-minimisations  :  3510
 total energy-change (2. order) :-0.4589150E-04  (-0.8562397E-06)
 number of electron      19.9999999 magnetization 
 augmentation part       -4.4802683 magnetization 

 Broyden mixing:
  rms(total) = 0.11875E-03    rms(broyden)= 0.11875E-03
  rms(prec ) = 0.21856E-03
  weight for this iteration     100.00

 eigenvalues of (default mixing * dielectric matrix)
  average eigenvalue GAMMA=   2.2847
  6.8282  4.5080  2.6478  2.6478  2.2675  1.1538  1.1538  1.1852  0.9369  0.9369
  0.8652

 Free energy of the ion-electron system (eV)
  ---------------------------------------------------
  alpha Z        PSCENC =         9.45710932
  Ewald energy   TEWEN  =      1163.00422654
  -Hartree energ DENC   =     -1785.67795165
  -exchange      EXHF   =         0.00000000
  -V(xc)+E(xc)   XCENC  =      -237.60054659
  PAW double counting   =      1136.81371198     -861.90993114
  entropy T*S    EENTRO =        -0.00000000
  eigenvalues    EBANDS =      -142.77730236
  atomic energy  EATOM  =       702.42789710
  Solvation  Ediel_sol  =         0.00000000
  ---------------------------------------------------
  free energy    TOTEN  =       -16.26278679 eV

  energy without entropy =      -16.26278679  energy(sigma->0) =      -16.26278679


--------------------------------------------------------------------------------------------------------




--------------------------------------- Iteration      1(  17)  ---------------------------------------


    POTLOK:  cpu time    0.0384: real time    0.0386
    SETDIJ:  cpu time    0.0032: real time    0.0032
     EDDAV:  cpu time    4.7450: real time    4.7553
       DOS:  cpu time    0.0038: real time    0.0038
    CHARGE:  cpu time    0.2080: real time    0.2084
    MIXING:  cpu time    0.0017: real time    0.0017
    --------------------------------------------
[...]
      3      -8.6800      2.00000
      4      -8.5220      2.00000
      5      -6.3903      2.00000
      6      -5.5343      2.00000
      7      -5.0848      2.00000
      8      -4.3513      2.00000
      9      -3.9521      2.00000
     10      -3.4001      2.00000
     11       0.5128      0.00000
     12       1.3168      0.00000
     13       1.5732      0.00000
     14       2.2181      0.00000

 k-point    95 :      -0.2667    0.4000    0.0000
  band No.  band energies     occupation 
      1     -14.5686      2.00000
      2     -14.3218      2.00000
      3      -8.8567      2.00000
      4      -8.6283      2.00000
      5      -6.0812      2.00000
      6      -5.1279      2.00000
      7      -4.8548      2.00000
      8      -4.0990      2.00000
      9      -3.8572      2.00000
     10      -3.1024      2.00000
     11       0.1152      0.00000
     12       1.0612      0.00000
     13       1.1485      0.00000
     14       1.5659      0.00000

 k-point    96 :      -0.2000    0.4000    0.0000
  band No.  band energies     occupation 
      1     -14.6387      2.00000
      2     -14.3436      2.00000
      3      -9.0174      2.00000
      4      -8.7308      2.00000
      5      -5.6510      2.00000
      6      -4.8374      2.00000
      7      -4.5847      2.00000
      8      -3.9708      2.00000
      9      -3.4956      2.00000
     10      -2.7135      2.00000
     11      -0.3586      0.00000
     12       0.5419      0.00000
     13       0.6942      0.00000
     14       1.2019      0.00000

 k-point    97 :      -0.1333    0.4000    0.0000
  band No.  band energies     occupation 
      1     -14.6951      2.00000
      2     -14.3653      2.00000
      3      -9.1417      2.00000
      4      -8.8141      2.00000
      5      -5.1398      2.00000
      6      -4.7817      2.00000
      7      -4.1632      2.00000
      8      -3.9285      2.00000
      9      -2.9384      2.00000
     10      -2.4785      2.00000
     11      -0.6386      0.00000
     12      -0.1858      0.00000
     13       0.4739      0.00000
     14       0.7641      0.00000

 k-point    98 :      -0.0667    0.4000    0.0000
  band No.  band energies     occupation 
      1     -14.7318      2.00000
      2     -14.3807      2.00000
      3      -9.2188      2.00000
      4      -8.8673      2.00000
      5      -4.7881      2.00000
      6      -4.6104      2.00000
      7      -3.9533      2.00000
      8      -3.7541      2.00000
      9      -2.6512      2.00000
     10      -2.3728      2.00000
     11      -0.7787      0.00000
     12      -0.3868      0.00000
     13       0.2073      0.00000
     14       0.3554      0.00000

 k-point    99 :       0.0000    0.4667    0.0000
  band No.  band energies     occupation 
      1     -14.6011      2.00000
      2     -14.4774      2.00000
      3      -9.2281      2.00000
      4      -9.1047      2.00000
      5      -4.5508      2.00000
      6      -4.3323      2.00000
      7      -3.8713      2.00000
      8      -3.6772      2.00000
      9      -2.5767      2.00000
     10      -2.2361      2.00000
     11      -0.9141      0.00000
     12      -0.4771      0.00000
     13      -0.0851      0.00000
     14       0.1134      0.00000

 k-point   100 :       0.0667    0.4667    0.0000
  band No.  band energies     occupation 
      1     -14.5921      2.00000
      2     -14.4686      2.00000
      3      -9.1996      2.00000
      4      -9.0793      2.00000
      5      -4.5678      2.00000
      6      -4.4361      2.00000
      7      -4.0222      2.00000
      8      -3.8914      2.00000
      9      -2.5110      2.00000
     10      -2.3828      2.00000
     11      -0.8188      0.00000
     12      -0.7124      0.00000
     13       0.2713      0.00000
     14       0.5823      0.00000

 k-point   101 :       0.1333    0.4667    0.0000
  band No.  band energies     occupation 
      1     -14.5640      2.00000
      2     -14.4453      2.00000
      3      -9.1165      2.00000
      4      -9.0055      2.00000
      5      -4.8463      2.00000
      6      -4.6836      2.00000
      7      -4.2549      2.00000
      8      -4.1415      2.00000
      9      -2.8550      2.00000
     10      -2.6695      2.00000
     11      -0.5724      0.00000
     12      -0.3266      0.00000
     13       0.7711      0.00000
     14       0.8708      0.00000

 k-point   102 :       0.2000    0.4667    0.0000
  band No.  band energies     occupation 
      1     -14.5205      2.00000
      2     -14.4114      2.00000
      3      -8.9824      2.00000
      4      -8.8882      2.00000
      5      -5.3640      2.00000
      6      -5.0567      2.00000
      7      -4.4383      2.00000
      8      -4.2211      2.00000
      9      -3.3788      2.00000
     10      -3.0812      2.00000
     11      -0.0506      0.00000
     12       0.3277      0.00000
     13       0.9932      0.00000
     14       1.2259      0.00000

 k-point   103 :       0.2667    0.4667   -0.0000
  band No.  band energies     occupation 
      1     -14.4677      2.00000
      2     -14.3731      2.00000
      3      -8.8053      2.00000
      4      -8.7365      2.00000
      5      -5.8452      2.00000
      6      -5.5068      2.00000
      7      -4.6314      2.00000
      8      -4.3955      2.00000
      9      -3.7301      2.00000
     10      -3.4343      2.00000
     11       0.4655      0.00000
     12       0.8375      0.00000
     13       1.3911      0.00000
     14       1.6552      0.00000

 k-point   104 :       0.3333    0.4667   -0.0000
  band No.  band energies     occupation 
      1     -14.4132      2.00000
      2     -14.3379      2.00000
      3      -8.6015      2.00000
      4      -8.5669      2.00000
      5      -6.2416      2.00000
      6      -5.9140      2.00000
      7      -4.9349      2.00000
      8      -4.6983      2.00000
      9      -3.8420      2.00000
     10      -3.6087      2.00000
     11       0.8183      0.00000
     12       1.0942      0.00000
     13       1.9426      0.00000
     14       2.2438      0.00000

 k-point   105 :       0.4000    0.4667    0.0000
  band No.  band energies     occupation 
      1     -14.3653      2.00000
      2     -14.3137      2.00000
      3      -8.4080      2.00000
      4      -8.4051      2.00000
      5      -6.5184      2.00000
      6      -6.2514      2.00000
      7      -5.1977      2.00000
      8      -5.0160      2.00000
      9      -3.8365      2.00000
     10      -3.6780      2.00000
     11       1.0610      0.00000
     12       1.2219      0.00000
     13       2.4345      0.00000
     14       2.6970      0.00000

 k-point   106 :       0.4667    0.4667    0.0000
  band No.  band energies     occupation 
      1     -14.3317      2.00000
      2     -14.3071      2.00000
      3      -8.3052      2.00000
      4      -8.2770      2.00000
      5      -6.6305      2.00000
      6      -6.4903      2.00000
      7      -5.3066      2.00000
      8      -5.2390      2.00000
      9      -3.7990      2.00000
     10      -3.7190      2.00000
     11       1.2196      0.00000
     12       1.2586      0.00000
     13       2.6702      0.00000
     14       2.8008      0.00000

 k-point   107 :      -0.4667    0.4667    0.0000
  band No.  band energies     occupation 
      1     -14.3213      2.00000
      2     -14.3174      2.00000
      3      -8.3103      2.00000
      4      -8.2764      2.00000
      5      -6.5775      2.00000
      6      -6.5427      2.00000
      7      -5.3087      2.00000
      8      -5.2319      2.00000
      9      -3.7594      2.00000
     10      -3.7582      2.00000
     11       1.2010      0.00000
     12       1.2779      0.00000
     13       2.6902      0.00000
     14       2.7714      0.00000

 k-point   108 :      -0.4000    0.4667    0.0000
  band No.  band energies     occupation 
      1     -14.3553      2.00000
      2     -14.3234      2.00000
      3      -8.4321      2.00000
      4      -8.3907      2.00000
      5      -6.4809      2.00000
      6      -6.2871      2.00000
      7      -5.2042      2.00000
      8      -4.9982      2.00000
      9      -3.7967      2.00000
     10      -3.7159      2.00000
     11       1.0521      0.00000
     12       1.2321      0.00000
     13       2.4615      0.00000
     14       2.6531      0.00000

 k-point   109 :      -0.3333    0.4667    0.0000
  band No.  band energies     occupation 
      1     -14.4040      2.00000
      2     -14.3465      2.00000
      3      -8.6196      2.00000
      4      -8.5594      2.00000
      5      -6.2236      2.00000
      6      -5.9276      2.00000
      7      -4.9531      2.00000
      8      -4.6709      2.00000
      9      -3.8032      2.00000
     10      -3.6417      2.00000
     11       0.8212      0.00000
     12       1.0924      0.00000
     13       1.9701      0.00000
     14       2.2092      0.00000

 k-point   110 :      -0.2667    0.4667    0.0000
  band No.  band energies     occupation 
      1     -14.4599      2.00000
      2     -14.3803      2.00000
      3      -8.8165      2.00000
      4      -8.7348      2.00000
      5      -5.8438      2.00000
      6      -5.5008      2.00000
      7      -4.6575      2.00000
      8      -4.3691      2.00000
      9      -3.6988      2.00000
     10      -3.4510      2.00000
     11       0.4792      0.00000
     12       0.8237      0.00000
     13       1.4088      0.00000
     14       1.6351      0.00000

 k-point   111 :      -0.2000    0.4667    0.0000
  band No.  band energies     occupation 
      1     -14.5144      2.00000
      2     -14.4171      2.00000
      3      -8.9891      2.00000
      4      -8.8891      2.00000
      5      -5.3755      2.00000
      6      -5.0365      2.00000
      7      -4.4579      2.00000
      8      -4.2063      2.00000
      9      -3.3684      2.00000
     10      -3.0704      2.00000
     11      -0.0331      0.00000
     12       0.3071      0.00000
     13       1.0017      0.00000
     14       1.2185      0.00000

 k-point   112 :      -0.1333    0.4667    0.0000
  band No.  band energies     occupation 
      1     -14.5597      2.00000
      2     -14.4491      2.00000
      3      -9.1202      2.00000
      4      -9.0071      2.00000
      5      -4.8669      2.00000
      6      -4.6637      2.00000
      7      -4.2596      2.00000
      8      -4.1333      2.00000
      9      -2.8642      2.00000
     10      -2.6362      2.00000
     11      -0.5624      0.00000
     12      -0.3411      0.00000
     13       0.7769      0.00000
     14       0.8742      0.00000

 k-point   113 :      -0.0667    0.4667    0.0000
  band No.  band energies     occupation 
      1     -14.5899      2.00000
      2     -14.4705      2.00000
      3      -9.2012      2.00000
      4      -9.0803      2.00000
      5      -4.5615      2.00000
      6      -4.4536      2.00000
      7      -4.0206      2.00000
      8      -3.8814      2.00000
      9      -2.4757      2.00000
     10      -2.4025      2.00000
     11      -0.8200      0.00000
     12      -0.7063      0.00000
     13       0.2765      0.00000
     14       0.5702      0.00000


--------------------------------------------------------------------------------------------------------


 soft charge-density along one line, spin component           1
         0         1         2         3         4         5         6         7         8         9
 total charge-density along one line
 
 pseudopotential strength for first ion, spin component:           1
 30.091 -23.439   0.003  -0.089   0.035   0.005  -0.141   0.055
-23.439  28.120  -0.002   0.050  -0.019  -0.003   0.082  -0.031
  0.003  -0.002   6.333   0.000   0.000   9.797   0.000   0.000
 -0.089   0.050   0.000   6.330   0.002   0.000   9.793   0.003
  0.035  -0.019   0.000   0.002   6.332   0.000   0.003   9.796
  0.005  -0.003   9.797   0.000   0.000  15.228   0.000   0.000
 -0.141   0.082   0.000   9.793   0.003   0.000  15.221   0.004
  0.055  -0.031   0.000   0.003   9.796   0.000   0.004  15.226
  0.000   0.000   0.007   0.000   0.001   0.011   0.000   0.001
  0.000  -0.000  -0.020   0.001   0.000  -0.031   0.001   0.000
 -0.003   0.003  -0.000  -0.023  -0.004  -0.001  -0.035  -0.006
  0.003  -0.002   0.000   0.008  -0.020   0.000   0.013  -0.031
 -0.000   0.000  -0.001  -0.000   0.008  -0.001  -0.000   0.013
 total augmentation occupancy for first ion, spin component:           1
  2.025  -0.015  -0.008   0.238  -0.088   0.001  -0.042   0.016   0.001   0.000   0.023   0.002  -0.000
 -0.015   0.009   0.002  -0.073   0.027  -0.001   0.018  -0.006  -0.000   0.000  -0.002   0.001  -0.000
 -0.008   0.002   1.507   0.001   0.001  -0.405  -0.001  -0.000   0.123  -0.043  -0.006   0.000   0.001
  0.238  -0.073   0.001   1.840  -0.001  -0.001  -0.486  -0.014  -0.000  -0.001  -0.268  -0.017  -0.000
 -0.088   0.027   0.001  -0.001   1.491  -0.000  -0.014  -0.395   0.010   0.000  -0.078  -0.045  -0.006
  0.001  -0.001  -0.405  -0.001  -0.000   0.118   0.001   0.000  -0.033   0.012   0.002  -0.000  -0.000
 -0.042   0.018  -0.001  -0.486  -0.014   0.001   0.140   0.007   0.000   0.000   0.074   0.005   0.000
  0.016  -0.006  -0.000  -0.014  -0.395   0.000   0.007   0.113  -0.003  -0.000   0.021   0.012   0.002
  0.001  -0.000   0.123  -0.000   0.010  -0.033   0.000  -0.003   0.076   0.001   0.000   0.000   0.000
  0.000   0.000  -0.043  -0.001   0.000   0.012   0.000  -0.000   0.001   0.021   0.000  -0.000  -0.000
  0.023  -0.002  -0.006  -0.268  -0.078   0.002   0.074   0.021   0.000   0.000   0.078   0.006   0.002
  0.002   0.001   0.000  -0.017  -0.045  -0.000   0.005   0.012   0.000  -0.000   0.006   0.022   0.001
 -0.000  -0.000   0.001  -0.000  -0.006  -0.000   0.000   0.002   0.000  -0.000   0.002   0.001   0.017


------------------------ aborting loop because EDIFF is reached ----------------------------------------


    CHARGE:  cpu time    0.2092: real time    0.2096
    FORLOC:  cpu time    0.0021: real time    0.0021
    FORNL :  cpu time    0.3759: real time    0.3764
    STRESS:  cpu time    0.6377: real time    0.6394
    FORCOR:  cpu time    0.0407: real time    0.0408
    FORHAR:  cpu time    0.0103: real time    0.0104
    MIXING:  cpu time    0.0008: real time    0.0008
    OFIELD:  cpu time    0.0000: real time    0.0000

  FORCE on cell =-STRESS in cart. coord.  units (eV):
  Direction    XX          YY          ZZ          XY          YZ          ZX
  --------------------------------------------------------------------------------------
  Alpha Z     9.45711     9.45711     9.45711
  Ewald    1621.34276  1625.67655 -2079.13312    -0.84973     9.23686     9.20716
  Hartree  1741.98530  1743.60685 -1695.25501    -0.31285     8.57284     8.57031
  E(xc)     -77.66444   -77.67777   -78.88804    -0.01114     0.00291     0.00301
  Local   -3616.00693 -3621.40723  3519.60623     1.18436   -17.80305   -17.77592
  n-local   162.51880   162.70048   167.21445     0.03131    -0.01042    -0.01280
  augment   -31.87567   -31.82028   -32.80264    -0.00357     0.00233     0.00191
  Kinetic   190.23955   189.47065   189.80109    -0.14306    -0.00256     0.00874
  Fock        0.00000     0.00000     0.00000     0.00000     0.00000     0.00000
  -------------------------------------------------------------------------------------
  Total      -0.00351     0.00637     0.00007    -0.10469    -0.00108     0.00242
  in kB      -0.01488     0.02701     0.00029    -0.44363    -0.00458     0.01025
  external pressure =        0.00 kB  Pullay stress =        0.00 kB


 VOLUME and BASIS-vectors are now :
 -----------------------------------------------------------------------------
  energy-cutoff  :      600.00
  volume of cell :      378.10
      direct lattice vectors                 reciprocal lattice vectors
     4.382356765  0.010955892  0.010955892     0.228190559 -0.000569061 -0.000566223
     0.010731195  4.292477857  0.010731195    -0.000580976  0.232968572 -0.000578079
     0.050000000  0.050000000 20.100000000    -0.000124069 -0.000124069  0.049751861

  length of vectors
     4.382384155  4.292504685 20.100124378     0.228191971  0.232970014  0.049752170


 FORCES acting on ions
    electron-ion (+dipol)            ewald-force                    non-local-force                 convergence-correction
 -----------------------------------------------------------------------------------------------
   0.457E+01 0.678E+00 -.144E+03   -.606E+01 -.805E+00 0.148E+03   0.149E+01 0.127E+00 -.381E+01   0.138E-04 -.255E-05 0.889E-04
   0.385E+01 -.265E-01 0.145E+03   -.533E+01 -.839E-01 -.148E+03   0.147E+01 0.110E+00 0.381E+01   -.446E-05 -.906E-05 0.154E-03
   -.473E+01 0.111E+00 -.207E+03   0.516E+01 -.855E-01 0.209E+03   -.437E+00 -.261E-01 -.204E+01   -.127E-04 0.969E-04 0.256E-03
   -.577E+01 -.938E+00 0.207E+03   0.622E+01 0.974E+00 -.209E+03   -.449E+00 -.364E-01 0.204E+01   0.477E-04 0.185E-03 0.202E-03
 -----------------------------------------------------------------------------------------------
   -.208E+01 -.176E+00 -.726E-02   -.888E-15 0.555E-15 0.000E+00   0.208E+01 0.175E+00 0.643E-02   0.443E-04 0.270E-03 0.701E-03
 
 
 POSITION                                       TOTAL-FORCE (eV/Angst)
 -----------------------------------------------------------------------------------
      2.57595      3.25749     11.43940         0.000558      0.000229     -0.000455
      0.38728      1.11275      8.67874        -0.000576      0.000019     -0.000668
      0.16841      1.08506     11.39424         0.000402     -0.000608      0.000620
      2.37226      3.24312      8.72254        -0.000384      0.000360      0.000503
 -----------------------------------------------------------------------------------
    total drift:                               -0.000307     -0.000083     -0.000127


--------------------------------------------------------------------------------------------------------



  FREE ENERGIE OF THE ION-ELECTRON SYSTEM (eV)
  ---------------------------------------------------
  free  energy   TOTEN  =       -16.26414217 eV

  energy  without entropy=      -16.26414217  energy(sigma->0) =      -16.26414217
 
 d Force = 0.7806895E-10[-0.552E-09, 0.708E-09]  d Energy = 0.4450067E-07-0.444E-07
 d Force = 0.1250411E-02[ 0.125E-02, 0.125E-02]  d Ewald  = 0.1250411E-02 0.500E-11


--------------------------------------------------------------------------------------------------------


    POTLOK:  cpu time    0.0421: real time    0.0422


--------------------------------------------------------------------------------------------------------




--------------------------------------------------------------------------------------------------------


  
 reached required accuracy - stopping structural energy minimisation
 writing wavefunctions
     LOOP+:  cpu time    6.5118: real time    6.8818
    4ORBIT:  cpu time    0.0000: real time    0.0000

 total amount of memory used by VASP MPI-rank0    64143. kBytes
=======================================================================

   base      :      30000. kBytes
   nonl-proj :      12868. kBytes
   fftplans  :       2714. kBytes
   grid      :       4404. kBytes
   one-center:          8. kBytes
   wavefun   :      14149. kBytes
 
  
  
 General timing and accounting informations for this job:
 ========================================================
  
                  Total CPU time used (sec):      384.929
                            User time (sec):      383.944
                          System time (sec):        0.985
                         Elapsed time (sec):      396.706
  
                   Maximum memory used (kb):      211544.
                   Average memory used (kb):           0.
  
                          Minor page faults:       184631
                          Major page faults:          127
                 Voluntary context switches:        11682
