# LAMMPS data file written by OVITO Basic 3.8.5

5600 atoms
3 atom types

8.5831585804 51.4168414196 xlo xhi
15.1025846637 64.8974153363 ylo yhi
0.1588453454 39.8411546546 zlo zhi

Atoms  # full

18 1 1 0.0 8.80171 18.7385 2.51588
14 1 2 0.0 10.2028 18.2903 7.46904
15 1 2 0.0 10.0841 19.1962 6.20464
16 1 2 0.0 9.58804 18.5021 4.91463
17 1 2 0.0 9.79723 19.1318 3.51606
573 1 2 0.0 10.2294 23.7654 8.66119
574 1 2 0.0 11.0871 22.995 7.58178
13 1 2 0.0 10.1671 19.1315 8.67019
577 1 2 0.0 10.9125 23.0781 3.6413
575 1 2 0.0 10.5351 23.2244 6.18787
576 1 2 0.0 11.2975 22.4658 5.09414
578 1 1 0.0 11.6347 22.4312 2.51588
606 1 3 0.0 11.0819 21.9579 7.82066
610 1 3 0.0 11.1152 21.3794 5.01725
69 1 2 0.0 14.8353 17.0395 7.84506
46 1 3 0.0 9.45419 17.5377 7.32296
47 1 3 0.0 11.1612 17.6834 7.48009
49 1 3 0.0 9.51024 20.1508 6.48775
628 1 2 0.0 14.5698 20.866 9.58628
614 1 3 0.0 11.3628 21.3284 2.41624
633 1 2 0.0 15.4304 21.3648 3.84698
631 1 2 0.0 15.4764 21.4164 6.40266
100 1 3 0.0 14.8605 18.1791 7.80993
104 1 3 0.0 14.862 18.2678 5.42533
45 1 3 0.0 9.15569 19.6132 8.63118
616 1 3 0.0 11.3774 22.6789 1.46945
615 1 3 0.0 12.7622 22.5574 2.61752
605 1 3 0.0 9.12971 23.5839 8.69599
1193 1 2 0.0 14.7048 26.3747 3.90923
611 1 3 0.0 12.3525 22.7949 5.31668
607 1 3 0.0 12.093 23.3382 7.71958
53 1 3 0.0 9.7655 20.2291 3.61763
1189 1 2 0.0 15.2242 26.6529 8.57081
1191 1 2 0.0 15.3064 26.5537 6.12713
1221 1 3 0.0 14.1029 26.6491 8.36065
71 1 2 0.0 14.8809 17.1602 5.38354
609 1 3 0.0 9.47883 23.0843 6.08215
43 1 3 0.0 11.437 18.146 9.99966
12 1 2 0.0 10.4062 18.4658 10.0156
44 1 3 0.0 10.8875 19.9635 8.37162
51 1 3 0.0 10.1665 17.5173 4.85748
48 1 3 0.0 11.0317 19.6175 5.99075
109 1 3 0.0 15.4924 18.3848 2.94322
658 1 3 0.0 13.8039 20.666 8.83085
52 1 3 0.0 10.7831 18.8924 3.20615
68 1 2 0.0 15.5547 16.5044 9.05972
664 1 3 0.0 15.3605 22.6004 6.45739
668 1 3 0.0 15.0318 22.4788 3.99848
665 1 3 0.0 14.4284 21.0301 6.42356
1232 1 3 0.0 13.9582 25.9087 1.9233
1225 1 3 0.0 14.2404 26.3202 6.26531
74 1 1 0.0 13.7972 17.162 2.51588
73 1 2 0.0 15.3261 17.316 2.94402
70 1 2 0.0 15.5129 16.5662 6.58672
72 1 2 0.0 15.7045 16.6908 4.21786
1194 1 1 0.0 14.895 25.7921 2.51588
604 1 3 0.0 10.3706 24.7797 8.46123
612 1 3 0.0 10.9847 24.1708 3.65744
608 1 3 0.0 10.6999 24.2513 5.97114
54 1 3 0.0 9.12059 19.1375 1.54623
669 1 3 0.0 14.4981 20.7176 3.68334
112 1 3 0.0 13.6702 16.9635 1.45752
101 1 3 0.0 13.7566 16.7159 7.97119
105 1 3 0.0 13.8459 16.7983 5.34109
1168 1 3 0.0 11.1422 26.6889 6.7308
659 1 3 0.0 14.9588 19.894 9.8341
1192 1 2 0.0 15.6457 25.8041 4.90194
111 1 3 0.0 13.388 16.2943 2.92714
613 1 3 0.0 9.84391 22.9053 3.49462
110 1 3 0.0 13.2001 18.0373 2.86202
1226 1 3 0.0 15.4944 24.7084 4.96851
1230 1 3 0.0 15.0146 24.7177 2.57647
1229 1 3 0.0 13.6741 25.9935 4.12891
1164 1 3 0.0 11.3741 27.296 8.63306
1170 1 3 0.0 9.80525 27.5013 4.76793
106 1 3 0.0 15.6511 15.5552 4.23147
661 1 3 0.0 15.4113 22.6119 8.67324
670 1 3 0.0 15.6672 21.4803 1.58634
1231 1 3 0.0 15.697 26.3039 1.97824
102 1 3 0.0 15.5535 15.5067 6.62578
1188 1 2 0.0 15.5065 25.926 9.88444
1218 1 3 0.0 15.2798 24.885 9.8245
5091 1 3 0.0 10.0972 65.1628 5.36998
1171 1 3 0.0 11.3008 26.8328 3.9538
1228 1 3 0.0 14.6727 27.4906 3.94213
5094 1 3 0.0 10.5537 65.6188 2.9659
1135 1 2 0.0 11.5224 27.5264 6.16166
1169 1 3 0.0 12.6678 27.4165 6.05187
672 1 3 0.0 17.0758 22.0742 2.51772
1190 1 2 0.0 15.945 26.0395 7.37659
666 1 3 0.0 16.4315 19.9301 5.09277
99 1 3 0.0 16.3841 17.211 9.39818
103 1 3 0.0 16.5694 16.8937 6.61311
1222 1 3 0.0 15.8875 24.9228 7.41595
630 1 2 0.0 16.3119 20.9824 7.58641
629 1 2 0.0 15.7355 21.5829 8.8856
660 1 3 0.0 16.5464 21.6124 9.66844
634 1 1 0.0 16.2756 21.304 2.51588
632 1 2 0.0 16.1646 20.9832 5.10075
671 1 3 0.0 16.7184 20.2121 2.50796
108 1 3 0.0 15.9929 16.9432 2.20964
667 1 3 0.0 17.1206 21.522 5.02617
1336 1 3 0.0 22.4513 25.9109 6.30991
98 1 3 0.0 16.2234 15.6456 8.90527
663 1 3 0.0 17.3274 21.3849 7.37495
662 1 3 0.0 16.2793 19.9231 7.67601
107 1 3 0.0 16.8276 16.8228 4.42139
161 1 3 0.0 19.0022 15.5395 6.21809
718 1 3 0.0 20.426 17.9619 7.06158
721 1 3 0.0 18.4172 18.534 5.98386
685 1 2 0.0 19.2089 18.8544 8.51675
686 1 2 0.0 20.0825 18.9687 7.31466
719 1 3 0.0 20.8975 19.6471 7.50847
687 1 2 0.0 19.3352 19.2566 6.04956
725 1 3 0.0 18.9818 17.7423 3.78937
720 1 3 0.0 18.9278 20.2522 6.00265
689 1 2 0.0 19.4297 18.6964 3.6133
724 1 3 0.0 18.6514 19.4806 3.42685
722 1 3 0.0 20.9859 18.2762 5.06652
690 1 1 0.0 20.447 18.6621 2.51588
688 1 2 0.0 20.1995 19.0796 4.87825
727 1 3 0.0 19.9842 18.2568 1.63097
723 1 3 0.0 20.7123 20.0976 4.59131
1288 1 3 0.0 21.4616 24.1993 2.88501
1285 1 3 0.0 19.1025 23.0081 3.95713
1247 1 2 0.0 19.4878 24.0601 6.31879
1248 1 2 0.0 20.2056 24.5999 5.10623
1249 1 2 0.0 19.5425 23.996 3.7711
1283 1 3 0.0 20.2085 25.6363 5.00459
1246 1 2 0.0 20.2231 24.4962 7.53452
1278 1 3 0.0 21.0971 23.8253 7.57618
1279 1 3 0.0 20.6177 25.5263 7.50601
1281 1 3 0.0 19.4607 22.9793 6.34331
1280 1 3 0.0 18.452 24.3684 6.27469
1287 1 3 0.0 20.52 23.2586 1.84467
1282 1 3 0.0 21.2448 24.2103 5.0984
1250 1 1 0.0 20.4695 24.092 2.51588
1286 1 3 0.0 20.2729 24.9805 1.82116
1245 1 2 0.0 19.2164 24.2571 8.65148
726 1 3 0.0 20.7742 19.6961 2.31903
1276 1 3 0.0 18.3564 24.9494 8.52917
1284 1 3 0.0 18.6563 24.5975 3.54914
716 1 3 0.0 18.6522 19.8748 8.7024
1277 1 3 0.0 18.7558 23.2272 8.55535
717 1 3 0.0 18.4382 18.0779 8.34577
728 1 3 0.0 21.2762 17.9546 2.67959
777 1 3 0.0 22.4156 20.6973 6.33664
1244 1 2 0.0 19.7858 24.3723 10.0359
781 1 3 0.0 22.586 21.2656 3.53699
773 1 3 0.0 22.3403 21.0896 9.00014
1274 1 3 0.0 20.7119 23.7125 10.0657
1223 1 3 0.0 16.967 26.4034 7.42011
684 1 2 0.0 20.0045 18.5837 9.79279
1227 1 3 0.0 16.7099 25.9575 4.66828
219 1 3 0.0 22.421 16.3474 4.80216
714 1 3 0.0 20.1887 17.5703 10.0416
776 1 3 0.0 22.7189 22.5189 6.33632
1845 1 3 0.0 18.3954 27.1246 2.95523
164 1 3 0.0 20.5314 15.3768 4.16862
157 1 3 0.0 18.6735 15.445 8.88107
215 1 3 0.0 22.3864 16.5357 7.57524
165 1 3 0.0 18.8572 15.3765 3.49582
715 1 3 0.0 21.0288 19.1514 9.84221
1342 1 3 0.0 22.842 26.3051 1.93656
1840 1 3 0.0 18.9039 27.4981 5.52461
1836 1 3 0.0 18.9285 27.4828 7.94832
1219 1 3 0.0 16.6235 26.0665 9.92135
27 1 3 0.0 12.5522 19.1335 19.8475
26 1 3 0.0 11.7112 17.6025 19.8318
42 1 3 0.0 9.86753 17.4829 10.1292
93 1 3 0.0 13.7761 15.4045 12.7517
83 1 3 0.0 14.9475 18.0135 19.1027
1180 1 2 0.0 15.3553 26.0367 19.8045
572 1 2 0.0 10.7695 23.6053 10.0946
602 1 3 0.0 10.8419 22.5199 10.321
603 1 3 0.0 11.8074 23.9651 10.0818
4 1 2 0.0 11.5677 18.6866 19.8449
28 1 3 0.0 10.5817 20.1991 18.8834
642 1 3 0.0 14.8271 20.3191 19.847
32 1 3 0.0 10.5527 20.4793 16.2495
589 1 3 0.0 9.03796 23.0585 18.7436
656 1 3 0.0 14.0871 22.6657 10.6542
40 1 3 0.0 10.1389 20.3772 10.9486
67 1 2 0.0 14.5623 16.4174 10.2605
1209 1 3 0.0 13.6324 27.0246 16.1791
36 1 3 0.0 10.1252 20.7365 13.8204
66 1 2 0.0 15.1957 16.5335 11.6622
601 1 3 0.0 8.90016 23.9561 11.1417
591 1 3 0.0 11.6652 24.4196 17.5512
599 1 3 0.0 11.5926 24.3522 12.5399
596 1 3 0.0 9.95825 25.5798 13.8179
96 1 3 0.0 13.8469 17.2845 10.2054
590 1 3 0.0 11.0577 22.7908 17.611
37 1 3 0.0 9.1263 19.2195 13.7359
65 1 2 0.0 14.1964 16.357 12.7929
34 1 3 0.0 10.9433 17.8199 14.9417
35 1 3 0.0 12.0974 19.1583 14.7738
38 1 3 0.0 11.0494 18.0148 12.5931
39 1 3 0.0 11.9505 19.5845 12.4772
571 1 2 0.0 9.93638 24.2845 11.1672
5 1 2 0.0 10.6815 19.0724 18.6938
7 1 2 0.0 10.4499 19.3847 16.2123
593 1 3 0.0 9.03029 23.3872 16.348
598 1 3 0.0 10.7343 22.8933 12.5683
31 1 3 0.0 12.2786 19.1614 17.2786
11 1 2 0.0 10.075 19.3772 11.2247
570 1 2 0.0 10.6149 23.9532 12.4918
565 1 2 0.0 9.81418 23.917 18.8101
10 1 2 0.0 10.9168 19.1194 12.4704
8 1 2 0.0 10.9869 18.8905 14.872
566 1 2 0.0 10.6756 23.8494 17.5599
568 1 2 0.0 10.7236 23.9022 15.0134
569 1 2 0.0 9.93613 24.4707 13.7762
567 1 2 0.0 9.91675 24.0081 16.2734
6 1 2 0.0 11.2618 18.7792 17.3492
623 1 2 0.0 14.4078 22.2997 16.0573
594 1 3 0.0 10.9231 22.8771 14.7268
9 1 2 0.0 10.1991 19.5685 13.7498
63 1 2 0.0 14.1994 16.3629 15.3995
30 1 3 0.0 11.3182 17.6988 17.3394
1185 1 2 0.0 14.7131 26.925 13.5413
621 1 2 0.0 14.2268 21.9567 18.5223
592 1 3 0.0 9.49787 25.0303 16.2535
61 1 2 0.0 14.2696 16.3325 17.9558
92 1 3 0.0 13.47 17.1644 12.7729
33 1 3 0.0 9.41724 19.0626 16.2097
41 1 3 0.0 9.00451 19.1236 11.5027
64 1 2 0.0 14.9921 16.4369 14.1038
62 1 2 0.0 15.0394 16.5601 16.6396
626 1 2 0.0 14.7067 21.3117 12.1517
88 1 3 0.0 13.4038 17.1614 15.4817
1183 1 2 0.0 14.7551 27.0771 16.1715
1181 1 2 0.0 14.7446 26.8457 18.7029
597 1 3 0.0 8.91483 24.0894 13.8266
625 1 2 0.0 14.0795 21.9483 13.3727
627 1 2 0.0 14.0461 21.596 10.8519
653 1 3 0.0 13.0444 21.6056 13.361
657 1 3 0.0 13.0123 21.266 10.8527
644 1 3 0.0 14.4921 23.0081 18.5731
595 1 3 0.0 11.6241 24.4526 15.2046
648 1 3 0.0 14.7762 23.3117 16.1375
652 1 3 0.0 14.0717 23.0536 13.2903
600 1 3 0.0 9.97024 25.31 10.9421
624 1 2 0.0 14.8777 21.6037 14.694
1187 1 2 0.0 14.8891 26.69 11.0419
1213 1 3 0.0 13.6311 26.9934 13.5366
649 1 3 0.0 13.3072 22.2838 16.0623
29 1 3 0.0 9.72439 18.5949 18.7133
645 1 3 0.0 13.1004 21.8011 18.6038
1184 1 2 0.0 15.2298 26.4391 14.8711
1186 1 2 0.0 15.2778 26.0657 12.3905
1182 1 2 0.0 15.3299 26.3776 17.3855
1217 1 3 0.0 13.794 26.7833 10.8864
588 1 3 0.0 9.12713 24.8115 18.801
84 1 3 0.0 13.3432 16.8719 17.8817
1205 1 3 0.0 13.6159 26.7208 18.6314
620 1 2 0.0 14.7907 21.4684 19.8033
622 1 2 0.0 14.7809 21.4549 17.2459
60 1 2 0.0 14.9784 16.8955 19.2097
1214 1 3 0.0 14.7663 25.04 12.4268
650 1 3 0.0 14.8302 20.5595 14.9926
87 1 3 0.0 15.2858 17.5812 16.7396
95 1 3 0.0 15.6621 17.5351 11.7136
1210 1 3 0.0 15.1047 25.3371 14.8737
646 1 3 0.0 14.4178 20.4331 17.0269
654 1 3 0.0 14.7308 20.2212 12.3335
1202 1 3 0.0 14.7386 25.2014 19.9984
97 1 3 0.0 13.9139 15.5566 10.1698
85 1 3 0.0 14.0545 15.3006 18.1263
89 1 3 0.0 13.6792 15.352 15.5644
90 1 3 0.0 15.6334 15.525 14.1087
91 1 3 0.0 15.547 17.4264 14.1229
1206 1 3 0.0 15.0517 25.3537 17.2866
1157 1 3 0.0 10.8019 27.4514 13.2212
587 1 3 0.0 11.5354 24.4869 19.9251
1203 1 3 0.0 16.3368 25.6908 19.3862
699 1 3 0.0 17.9023 17.634 19.9223
768 1 3 0.0 22.7278 22.2393 11.3495
764 1 3 0.0 22.7566 22.0948 13.9881
1271 1 3 0.0 19.9166 25.028 12.8117
144 1 3 0.0 19.6007 15.3988 16.5414
676 1 2 0.0 18.2228 18.6588 19.7795
1296 1 2 0.0 22.7417 26.7527 13.8566
1325 1 3 0.0 22.4645 24.8456 12.9388
1297 1 2 0.0 22.8052 25.8948 12.6118
696 1 3 0.0 20.2997 18.3116 19.7882
207 1 3 0.0 22.618 17.2483 12.5897
196 1 3 0.0 22.1014 15.8131 18.7571
200 1 3 0.0 22.181 15.6405 16.5458
148 1 3 0.0 19.8366 15.2182 13.8671
1832 1 3 0.0 19.3213 27.4682 10.4223
756 1 3 0.0 22.7276 22.1236 19.068
757 1 3 0.0 22.3732 20.4038 19.0186
82 1 3 0.0 16.0881 16.5793 19.1528
1273 1 3 0.0 18.6301 22.8064 11.0565
765 1 3 0.0 21.985 20.4626 13.9921
709 1 3 0.0 17.7619 18.5151 13.1879
1215 1 3 0.0 16.3112 25.8954 12.4678
203 1 3 0.0 22.7616 17.3846 14.9539
1314 1 3 0.0 22.4477 25.1732 18.5748
1265 1 3 0.0 18.109 22.907 16.2968
1263 1 3 0.0 19.938 24.8634 17.9527
761 1 3 0.0 22.2798 20.7075 16.541
680 1 2 0.0 19.1543 18.361 14.8192
1264 1 3 0.0 18.0698 24.7595 16.2919
1270 1 3 0.0 20.506 23.392 12.7573
707 1 3 0.0 20.0565 18.9573 15.1415
655 1 3 0.0 15.739 21.6264 12.211
94 1 3 0.0 16.0326 15.8583 11.9068
701 1 3 0.0 17.0306 19.3973 18.1109
705 1 3 0.0 17.2971 17.8838 16.0019
678 1 2 0.0 18.8665 18.4301 17.3298
713 1 3 0.0 18.15 18.7284 10.982
702 1 3 0.0 18.8917 17.3312 17.5659
643 1 3 0.0 15.803 21.6987 19.9675
1207 1 3 0.0 16.4141 26.3872 17.3422
1275 1 3 0.0 20.1421 25.4459 10.2005
1240 1 2 0.0 19.5579 23.8952 14.9882
1269 1 3 0.0 18.2838 22.6271 13.7915
1319 1 3 0.0 22.2306 26.8656 16.5388
651 1 3 0.0 15.8895 21.8814 14.604
647 1 3 0.0 15.8772 21.2139 17.232
1267 1 3 0.0 20.0718 24.81 14.9639
679 1 2 0.0 18.1598 18.6107 15.9381
86 1 3 0.0 15.8952 15.9087 16.5894
681 1 2 0.0 18.6828 18.9587 13.5693
1243 1 2 0.0 18.9132 23.9179 11.2264
708 1 3 0.0 18.3351 19.9845 13.8178
140 1 3 0.0 19.1792 15.4044 19.1893
682 1 2 0.0 19.7476 18.7607 12.4387
1262 1 3 0.0 20.4513 23.2448 17.5212
1241 1 2 0.0 18.6882 23.6605 13.7079
1818 1 3 0.0 19.4411 27.2832 18.2144
1268 1 3 0.0 17.8826 24.322 13.7687
1211 1 3 0.0 16.3352 26.5239 14.8354
769 1 3 0.0 22.143 20.5532 11.1774
700 1 3 0.0 18.6893 20.0962 18.2494
710 1 3 0.0 19.9495 17.7043 12.3713
1242 1 2 0.0 19.6115 23.9817 12.5354
1272 1 3 0.0 18.1133 24.6344 11.2086
1323 1 3 0.0 21.6745 26.8447 14.1275
1237 1 2 0.0 18.7696 23.3616 18.8212
683 1 2 0.0 19.1833 19.116 11.0311
711 1 3 0.0 20.7257 19.2526 12.6873
703 1 3 0.0 19.8749 18.7544 17.3354
677 1 2 0.0 18.1148 19.245 18.3979
1261 1 3 0.0 18.3439 22.36 18.6475
1238 1 2 0.0 19.4882 23.8721 17.5934
1266 1 3 0.0 20.4216 23.2503 15.081
1239 1 2 0.0 18.746 23.8418 16.2386
1324 1 3 0.0 22.0778 26.3381 11.8441
706 1 3 0.0 19.4219 17.2163 14.7749
1260 1 3 0.0 17.9839 24.0996 19.0147
704 1 3 0.0 17.6458 19.5725 15.7936
712 1 3 0.0 19.1601 20.2041 11.0063
153 1 3 0.0 18.5198 15.1583 11.4414
204 1 3 0.0 22.5597 15.1092 14.037
1258 1 3 0.0 20.4543 22.4935 19.9293
2 1 2 0.0 11.5643 18.5927 22.4159
562 1 2 0.0 11.0055 23.3599 22.4646
563 1 2 0.0 10.0789 24.0523 21.4213
22 1 3 0.0 11.8309 17.561 22.4557
617 1 1 0.0 14.3612 22.2678 23.5337
619 1 2 0.0 14.1319 21.9643 21.0343
23 1 3 0.0 12.6275 19.0754 22.4605
582 1 3 0.0 11.1626 22.3391 22.2424
57 1 1 0.0 14.8135 16.4287 23.2247
583 1 3 0.0 11.8773 23.9839 22.417
58 1 2 0.0 15.0824 17.0632 21.7984
1179 1 2 0.0 15.6248 26.7437 21.0771
640 1 3 0.0 14.3461 23.0403 21.0419
1 1 1 0.0 10.7613 19.0228 23.6042
580 1 3 0.0 9.5613 22.6289 23.7521
635 1 3 0.0 13.2827 22.383 23.7873
636 1 3 0.0 14.6991 23.3113 23.3108
1195 1 3 0.0 14.9803 26.6262 23.8896
561 1 1 0.0 10.429 23.3242 23.8091
79 1 3 0.0 14.7482 18.0801 21.7898
1201 1 3 0.0 14.7832 27.3808 21.4426
585 1 3 0.0 9.07195 23.5344 21.4897
581 1 3 0.0 10.0099 24.3066 23.9894
20 1 3 0.0 11.3658 19.0371 24.5171
21 1 3 0.0 9.89748 18.352 23.8934
19 1 3 0.0 10.4225 20.0893 23.5421
579 1 3 0.0 11.0659 23.0571 24.6193
584 1 3 0.0 9.85949 25.1557 21.5908
75 1 3 0.0 13.7094 16.3105 23.3456
526 1 3 0.0 51.4876 15.97 21.4773
641 1 3 0.0 13.0573 21.7467 20.9114
76 1 3 0.0 14.9747 17.1052 24.0271
24 1 3 0.0 10.8913 20.2169 21.1082
25 1 3 0.0 9.82223 18.8051 21.1309
80 1 3 0.0 13.4495 16.27 20.4699
59 1 2 0.0 14.5222 16.3125 20.5285
3 1 2 0.0 10.864 19.0742 21.0948
618 1 2 0.0 14.7053 21.3957 22.3544
637 1 3 0.0 14.9131 21.9968 24.4383
77 1 3 0.0 15.4144 15.5224 23.525
638 1 3 0.0 14.2645 20.4202 22.5543
1145 1 3 0.0 11.5742 27.2676 20.4893
5063 1 3 0.0 11.318 64.9624 22.318
1198 1 3 0.0 15.4955 24.7983 22.0818
81 1 3 0.0 15.0141 15.3571 20.5566
1141 1 3 0.0 11.6222 27.2927 23.398
586 1 3 0.0 11.0653 22.7495 20.1509
564 1 2 0.0 10.7137 23.785 20.0392
1177 1 1 0.0 16.0004 26.4761 23.5857
748 1 3 0.0 22.5701 22.0617 24.36
1196 1 3 0.0 16.5017 27.4858 23.5045
1197 1 3 0.0 16.534 25.9161 24.3679
1178 1 2 0.0 16.0648 25.7825 22.1983
753 1 3 0.0 22.4307 20.0611 21.5293
192 1 3 0.0 22.2927 16.1195 21.5133
693 1 3 0.0 17.8149 18.2725 22.9718
189 1 3 0.0 22.5684 16.0567 24.1496
752 1 3 0.0 22.3621 21.7976 21.5548
1813 1 3 0.0 19.2899 27.3266 23.1416
675 1 2 0.0 19.5869 18.8558 20.4254
691 1 3 0.0 18.6157 19.9188 22.749
1252 1 3 0.0 18.2914 22.2881 23.7766
1233 1 1 0.0 19.1431 22.9331 23.7961
674 1 2 0.0 19.7817 18.3005 21.8565
1812 1 3 0.0 20.9939 27.4815 22.3398
639 1 3 0.0 15.7759 21.1716 22.255
697 1 3 0.0 19.9661 19.8473 20.2692
673 1 1 0.0 18.7935 18.8679 22.9536
78 1 3 0.0 16.1165 17.283 21.6751
1199 1 3 0.0 17.0819 25.5889 21.8843
1815 1 3 0.0 19.86 26.3927 20.5627
1256 1 3 0.0 18.2988 23.7727 21.6588
1257 1 3 0.0 18.3766 22.1535 21.1717
1234 1 2 0.0 19.89 22.7372 22.5676
698 1 3 0.0 17.6243 19.2327 20.4935
1253 1 3 0.0 18.8892 23.9861 23.8868
1251 1 3 0.0 19.7988 22.7229 24.6444
1255 1 3 0.0 20.7146 23.4045 22.5108
695 1 3 0.0 20.8624 18.3556 22.1317
692 1 3 0.0 19.2519 18.8156 23.9906
694 1 3 0.0 19.6777 17.1941 21.8081
1254 1 3 0.0 20.1892 21.6711 22.5372
1235 1 2 0.0 19.0095 23.0582 21.3143
195 1 3 0.0 22.6688 17.8286 20.1479
747 1 3 0.0 21.9816 20.3732 23.9338
1311 1 3 0.0 22.6779 26.0235 20.6251
1236 1 2 0.0 19.7713 23.3144 20.019
1259 1 3 0.0 20.3064 24.3059 20.0733
1794 1 2 0.0 19.5425 27.4047 20.8585
1200 1 3 0.0 16.5194 27.4274 20.9673
1814 1 3 0.0 18.5154 27.3747 20.6845
1694 1 2 0.0 10.2125 33.5412 7.43828
1693 1 2 0.0 11.0694 33.9343 8.68021
1696 1 2 0.0 10.0913 33.4529 4.82395
1695 1 2 0.0 10.8849 33.88 6.06276
1697 1 2 0.0 10.9503 33.1938 3.58831
1735 1 3 0.0 10.6136 32.4826 1.51909
1727 1 3 0.0 10.0697 32.4583 7.49019
2254 1 2 0.0 11.03 38.6415 7.51902
2253 1 2 0.0 10.6351 39.4141 8.8228
1134 1 2 0.0 11.2434 28.745 7.00241
1698 1 1 0.0 10.1036 32.4717 2.51588
1726 1 3 0.0 9.16911 33.9576 7.54675
1730 1 3 0.0 9.30243 34.1756 4.71589
1736 1 3 0.0 9.14668 32.9855 2.53199
1734 1 3 0.0 9.81873 31.4555 2.8356
1731 1 3 0.0 9.5634 32.5126 5.18022
2255 1 2 0.0 10.3673 39.229 6.285
1133 1 2 0.0 11.681 28.3845 8.39239
1724 1 3 0.0 12.0202 33.3589 8.61695
1728 1 3 0.0 11.8355 33.3855 5.97224
2256 1 2 0.0 10.9255 38.417 5.04381
2309 1 2 0.0 14.7235 37.0602 8.73456
2311 1 2 0.0 14.8336 36.7521 6.25309
1750 1 2 0.0 13.9525 31.4223 7.54205
2287 1 3 0.0 12.1549 38.5914 7.34887
1725 1 3 0.0 11.36 35.0136 8.70614
1138 1 1 0.0 10.6521 28.734 2.51588
2313 1 2 0.0 14.8495 36.5273 3.7831
1754 1 1 0.0 14.4821 30.7087 2.51588
1752 1 2 0.0 14.1279 31.0535 4.99829
1729 1 3 0.0 10.9584 34.9654 6.00731
1732 1 3 0.0 11.7813 32.5901 3.97669
2345 1 3 0.0 14.1748 37.6061 6.0436
2349 1 3 0.0 14.2103 37.3792 3.71962
2341 1 3 0.0 14.0652 37.8273 8.78853
1733 1 3 0.0 11.3097 34.127 3.05389
1790 1 3 0.0 13.4489 30.541 2.38082
1786 1 3 0.0 13.0443 31.1073 4.96842
2286 1 3 0.0 10.81 37.6261 7.75191
2295 1 3 0.0 12.2548 38.2176 2.45096
2291 1 3 0.0 12.0715 38.2917 5.05985
1137 1 2 0.0 11.2375 28.8576 3.92882
1172 1 3 0.0 12.3447 29.0996 3.89455
1749 1 2 0.0 14.7104 31.8294 8.77403
1132 1 2 0.0 10.8835 29.1933 9.41302
1173 1 3 0.0 10.8058 29.7205 4.40842
1166 1 3 0.0 11.7075 29.6436 6.55054
2310 1 2 0.0 14.464 36.1327 7.56751
1751 1 2 0.0 14.5052 31.9599 6.18734
2312 1 2 0.0 14.5835 35.7997 5.08077
2314 1 1 0.0 14.5487 35.5948 2.51588
1792 1 3 0.0 14.8858 31.1283 1.57277
2350 1 3 0.0 13.4866 35.5239 2.28382
2346 1 3 0.0 13.5823 35.3724 5.01214
2342 1 3 0.0 13.3872 35.762 7.58337
1176 1 3 0.0 11.0341 29.5273 1.83437
2258 1 1 0.0 11.1565 38.1485 2.51588
1782 1 3 0.0 12.8687 31.6067 7.65723
2290 1 3 0.0 10.5606 37.399 5.15361
2294 1 3 0.0 10.8375 37.1229 2.72597
1791 1 3 0.0 14.9148 29.732 2.68922
1162 1 3 0.0 11.1149 30.2336 9.35733
1175 1 3 0.0 10.8564 27.7811 2.08537
1163 1 3 0.0 9.79504 29.0837 9.21325
1783 1 3 0.0 14.0529 30.3247 7.53066
1787 1 3 0.0 14.3754 29.9906 5.06107
2296 1 3 0.0 10.8303 38.4697 1.50405
1779 1 3 0.0 14.0871 30.1082 10.0126
2257 1 2 0.0 10.6611 39.0156 3.69441
1753 1 2 0.0 14.7375 31.6437 3.78042
2352 1 3 0.0 15.181 35.9792 1.67941
1167 1 3 0.0 10.114 29.053 6.9503
1692 1 2 0.0 10.2768 33.5519 9.97544
2252 1 2 0.0 10.9462 38.5526 9.98339
1748 1 2 0.0 13.928 31.2336 9.96392
2283 1 3 0.0 11.7929 37.932 9.7038
1781 1 3 0.0 14.684 32.913 8.93142
1789 1 3 0.0 14.3776 32.6013 3.45268
1785 1 3 0.0 14.1257 32.9635 5.9864
1784 1 3 0.0 15.6398 32.0544 6.23526
1778 1 3 0.0 12.8863 31.4438 9.85924
1224 1 3 0.0 15.4415 27.6689 6.01216
1165 1 3 0.0 12.7682 28.5128 8.50722
2912 1 3 0.0 14.8866 39.9469 2.29158
2903 1 3 0.0 14.6425 39.7182 7.70144
1136 1 2 0.0 10.9318 27.5721 4.72441
2293 1 3 0.0 9.52403 39.1317 3.57189
1220 1 3 0.0 15.5054 27.6769 8.68363
1780 1 3 0.0 15.7007 31.4311 8.77322
2351 1 3 0.0 14.9201 34.5341 2.73101
2347 1 3 0.0 15.4137 35.019 5.14648
2343 1 3 0.0 15.2034 35.3163 7.67388
2339 1 3 0.0 15.4738 35.5204 10.0234
2907 1 3 0.0 13.9618 39.7799 5.15264
1722 1 3 0.0 9.2511 33.3136 9.82644
1174 1 3 0.0 9.54559 28.878 2.66488
2285 1 3 0.0 9.56195 39.6674 8.74604
2289 1 3 0.0 9.27812 39.3516 6.30058
1892 1 3 0.0 22.0961 30.6168 8.7572
2340 1 3 0.0 15.7373 37.4751 8.50231
2344 1 3 0.0 15.8484 37.1353 6.25457
2348 1 3 0.0 15.9345 36.8758 3.78636
1788 1 3 0.0 15.8454 31.7087 3.83765
1896 1 3 0.0 22.0037 30.5934 6.57074
1339 1 3 0.0 22.7028 27.6949 4.99309
1846 1 3 0.0 20.2417 28.2146 1.56857
1839 1 3 0.0 17.228 28.7767 6.90521
1902 1 3 0.0 22.4544 31.6419 2.21736
2454 1 3 0.0 22.0016 35.371 7.10314
1838 1 3 0.0 18.1297 30.2257 6.73708
2458 1 3 0.0 22.5591 34.4995 4.63592
1895 1 3 0.0 22.3244 32.7624 7.62158
1899 1 3 0.0 22.1101 32.2533 4.77783
1834 1 3 0.0 18.6038 30.2587 9.34002
2463 1 3 0.0 22.7042 38.0338 2.6402
1848 1 3 0.0 20.0158 29.7252 2.46504
2964 1 3 0.0 19.7221 37.4884 3.98556
2401 1 3 0.0 18.9794 35.0111 6.08846
2399 1 3 0.0 17.97 32.537 7.54164
2400 1 3 0.0 20.0948 33.7092 6.28572
2370 1 1 0.0 18.6706 32.4752 2.51588
2407 1 3 0.0 19.2338 32.528 1.55633
2367 1 2 0.0 19.0859 33.9044 6.18411
2368 1 2 0.0 18.6162 33.119 4.98474
2369 1 2 0.0 19.3337 33.3445 3.6159
2402 1 3 0.0 17.5877 33.4478 4.86869
2404 1 3 0.0 20.3832 33.1037 3.58856
2405 1 3 0.0 19.1916 34.4305 3.37031
2366 1 2 0.0 18.3132 33.5657 7.4727
2398 1 3 0.0 17.3704 34.1895 7.51449
2406 1 3 0.0 18.631 31.4548 2.86431
2408 1 3 0.0 17.6401 32.6741 2.34316
2403 1 3 0.0 18.5248 32.0325 5.20129
2365 1 2 0.0 19.1454 33.8517 8.75086
2396 1 3 0.0 19.9899 33.1573 8.64306
2397 1 3 0.0 19.6339 34.8629 8.65075
2925 1 2 0.0 19.0542 38.1061 8.79009
2926 1 2 0.0 18.5309 38.9044 7.54
2928 1 2 0.0 18.2702 38.713 5.00171
1807 1 2 0.0 18.8567 28.5587 5.48354
2927 1 2 0.0 18.917 38.2339 6.28421
1805 1 2 0.0 18.9919 28.5789 8.01044
1804 1 2 0.0 18.5171 29.0983 9.29819
2967 1 3 0.0 19.4208 38.8546 1.79999
2962 1 3 0.0 18.1368 39.8272 5.09511
2956 1 3 0.0 18.4758 37.1695 8.85648
2929 1 2 0.0 19.2236 38.4683 3.90689
2960 1 3 0.0 18.6861 37.1805 6.32636
2930 1 1 0.0 18.6046 38.5712 2.51588
2961 1 3 0.0 20.0096 38.4369 6.22513
2965 1 3 0.0 20.0695 39.2059 4.00459
1847 1 3 0.0 20.7041 28.1844 3.17046
1810 1 1 0.0 19.9479 28.636 2.51588
1837 1 3 0.0 20.0726 28.7458 8.17295
1841 1 3 0.0 19.8647 28.9541 5.25171
1809 1 2 0.0 18.4872 28.3023 2.96371
1806 1 2 0.0 18.2434 29.1046 6.74039
1808 1 2 0.0 17.9793 28.898 4.27831
2957 1 3 0.0 20.071 37.7888 8.66003
2460 1 3 0.0 21.6759 35.8744 2.48178
1842 1 3 0.0 17.86 29.949 4.32902
1844 1 3 0.0 17.7322 28.629 2.22353
2457 1 3 0.0 21.3179 36.6075 5.41125
1835 1 3 0.0 17.408 28.8843 9.43825
1843 1 3 0.0 16.9945 28.3782 4.54618
2450 1 3 0.0 22.1545 35.7754 9.46984
2453 1 3 0.0 21.8585 37.6158 7.81014
2423 1 2 0.0 22.4541 36.4418 5.36878
2425 1 2 0.0 22.7655 35.8534 2.81647
2963 1 3 0.0 17.3447 38.2409 4.6786
2968 1 3 0.0 17.7117 39.1744 2.45033
1900 1 3 0.0 22.8556 29.7926 3.92987
2966 1 3 0.0 18.1824 37.6076 2.20149
2954 1 3 0.0 19.8043 39.7479 10.014
2959 1 3 0.0 17.4595 39.1017 7.58341
2422 1 2 0.0 22.8008 36.0037 6.77804
2958 1 3 0.0 18.9964 39.8873 7.53801
2924 1 2 0.0 19.0065 39.0038 10.0489
1335 1 3 0.0 22.6928 27.6116 7.70916
2277 1 3 0.0 9.75955 39.8882 13.727
2308 1 2 0.0 14.7357 36.3505 10.1154
2282 1 3 0.0 10.0248 37.9666 10.1129
1723 1 3 0.0 10.5032 32.4839 10.3442
2338 1 3 0.0 13.7368 35.9801 10.2059
1153 1 3 0.0 11.1099 27.7509 15.6713
1147 1 3 0.0 10.2131 29.9509 19.6236
1706 1 3 0.0 9.47475 34.0841 19.595
2273 1 3 0.0 9.61398 39.5747 16.5755
1208 1 3 0.0 15.0321 28.186 16.2073
1204 1 3 0.0 14.9557 27.904 18.9613
1156 1 3 0.0 9.18355 27.8917 13.0563
1212 1 3 0.0 15.0757 27.9933 13.3311
1159 1 3 0.0 9.388 29.6148 11.6604
1708 1 3 0.0 10.203 32.4855 17.631
1124 1 2 0.0 10.8915 29.1071 19.3962
1150 1 3 0.0 11.0564 29.9621 16.9549
1154 1 3 0.0 11.0098 29.8887 14.4145
2270 1 3 0.0 9.98736 37.6146 17.7656
1709 1 3 0.0 11.8372 32.9038 18.1979
1712 1 3 0.0 12.3195 34.0881 15.9861
2245 1 2 0.0 11.1193 39.0921 18.959
2247 1 2 0.0 10.6363 39.236 16.4951
1148 1 3 0.0 9.51536 27.8077 18.4172
2275 1 3 0.0 11.866 38.1632 15.1803
2279 1 3 0.0 11.8324 37.8889 12.7048
1684 1 2 0.0 10.2693 33.2938 19.6862
1770 1 3 0.0 12.7129 31.6102 15.2039
1713 1 3 0.0 11.3264 35.5337 15.7684
1717 1 3 0.0 10.7368 35.2528 13.6216
1711 1 3 0.0 9.62517 34.795 17.6035
2246 1 2 0.0 10.8733 38.2176 17.637
1721 1 3 0.0 10.207 35.3148 11.2366
1710 1 3 0.0 11.3096 35.2671 18.0453
1720 1 3 0.0 11.6448 34.2511 11.3618
1691 1 2 0.0 10.5579 34.2612 11.3165
2248 1 2 0.0 10.8525 38.5577 15.1466
2250 1 2 0.0 10.9248 38.5763 12.5652
1718 1 3 0.0 9.02117 33.4917 12.5288
1131 1 2 0.0 11.1707 28.6792 10.7515
1716 1 3 0.0 11.8817 33.8287 13.5587
2251 1 2 0.0 11.0743 39.379 11.283
1126 1 2 0.0 10.1916 29.273 16.948
1130 1 2 0.0 10.4117 29.3182 11.9258
1715 1 3 0.0 10.6054 32.7169 15.3208
1125 1 2 0.0 10.4299 28.3691 18.1468
1129 1 2 0.0 10.2027 28.4059 13.1355
1128 1 2 0.0 10.2145 29.2507 14.3995
1127 1 2 0.0 10.2342 28.4414 15.6661
1688 1 2 0.0 10.3676 33.7755 15.1232
1687 1 2 0.0 11.268 34.5055 16.1116
1690 1 2 0.0 10.1102 33.4955 12.5394
1689 1 2 0.0 10.8211 34.1388 13.7515
1685 1 2 0.0 10.8449 33.128 18.2662
2307 1 2 0.0 14.9174 37.2288 11.3634
1686 1 2 0.0 10.7022 34.4923 17.5331
2303 1 2 0.0 14.8943 37.0382 16.4831
2304 1 2 0.0 14.8732 36.2938 15.1089
2305 1 2 0.0 14.6879 37.2155 13.8886
1741 1 2 0.0 14.448 31.6313 18.8454
1747 1 2 0.0 14.5154 31.7309 11.3185
2301 1 2 0.0 15.0362 36.8937 18.9216
1746 1 2 0.0 13.7031 31.397 12.5831
1744 1 2 0.0 13.8103 31.4246 15.0743
1714 1 3 0.0 9.25528 34.0377 15.2222
1742 1 2 0.0 14.0143 31.0281 17.5102
2332 1 3 0.0 15.4477 37.9795 13.8611
2325 1 3 0.0 14.2503 37.6932 18.9245
2333 1 3 0.0 13.6042 37.7226 13.9681
2337 1 3 0.0 14.0922 38.0479 11.3421
2329 1 3 0.0 14.0384 37.7538 16.5182
1766 1 3 0.0 12.8899 30.8818 17.4944
1774 1 3 0.0 12.6769 31.7457 12.4285
2271 1 3 0.0 11.7259 37.6056 17.4259
2302 1 2 0.0 14.8776 36.0625 17.6563
2274 1 3 0.0 10.1635 37.7265 15.0593
1743 1 2 0.0 14.4745 31.9158 16.3741
1745 1 2 0.0 14.3606 32.0076 13.7971
1773 1 3 0.0 14.3426 33.0961 13.7068
2278 1 3 0.0 10.0905 37.8175 12.4903
2306 1 2 0.0 14.7074 36.3486 12.6186
2249 1 2 0.0 10.7609 39.3774 13.8325
2326 1 3 0.0 13.9244 35.4776 17.6305
2330 1 3 0.0 14.1728 35.4881 15.0044
2334 1 3 0.0 13.7882 35.7765 12.5621
1158 1 3 0.0 11.1482 30.1323 12.0275
1767 1 3 0.0 14.3603 29.9181 17.3994
1775 1 3 0.0 13.5571 30.2738 12.6555
1216 1 3 0.0 15.3795 27.6976 11.1344
1719 1 3 0.0 10.5374 32.4706 12.5911
1771 1 3 0.0 13.8399 30.3412 15.1222
1155 1 3 0.0 9.29949 29.8491 14.4616
1151 1 3 0.0 9.20157 29.6552 16.9614
1152 1 3 0.0 9.38598 27.7954 15.693
1769 1 3 0.0 14.3195 32.9814 16.5953
1765 1 3 0.0 13.9469 32.7025 19.0469
1161 1 3 0.0 12.3139 28.5266 10.884
1777 1 3 0.0 14.6258 32.8215 11.4363
2269 1 3 0.0 10.3335 39.8542 19.1874
2268 1 3 0.0 11.9922 39.6966 18.7309
1160 1 3 0.0 10.7464 27.6438 10.774
2280 1 3 0.0 12.0205 39.9076 11.371
1146 1 3 0.0 11.8869 29.5153 19.1863
1772 1 3 0.0 15.3807 31.7546 13.7921
1768 1 3 0.0 15.5938 31.708 16.2057
1764 1 3 0.0 15.5773 31.7872 18.7983
2335 1 3 0.0 15.5564 35.6276 12.6092
1776 1 3 0.0 15.5287 31.316 11.3123
1149 1 3 0.0 11.1706 27.6359 17.8392
1763 1 3 0.0 14.5039 29.7478 19.9508
2377 1 3 0.0 20.3226 33.9207 19.7271
2441 1 3 0.0 22.3888 37.611 15.3106
1827 1 3 0.0 17.7043 28.6572 14.3151
1823 1 3 0.0 17.5051 28.4539 16.7416
2996 1 3 0.0 22.7698 39.811 18.6928
1883 1 3 0.0 22.5218 31.833 14.9305
1795 1 2 0.0 20.1934 28.3613 19.8556
2395 1 3 0.0 17.9932 32.7116 10.1646
1891 1 3 0.0 22.4974 32.7129 10.3866
2955 1 3 0.0 18.0463 39.5859 10.1199
2336 1 3 0.0 15.9271 37.7366 11.4245
2328 1 3 0.0 15.8436 37.62 16.5386
2324 1 3 0.0 15.9793 37.4349 18.9997
2438 1 3 0.0 22.2641 35.6426 16.5096
2918 1 2 0.0 18.9084 38.7565 17.7768
2442 1 3 0.0 22.8583 35.4649 13.9986
2384 1 3 0.0 19.2392 35.3509 15.2998
2950 1 3 0.0 19.4322 39.7434 12.6644
2946 1 3 0.0 19.6955 39.6389 15.1145
2383 1 3 0.0 18.2546 35.3207 17.5609
1888 1 3 0.0 22.683 30.3565 11.5856
1831 1 3 0.0 17.6642 28.5444 11.7592
1819 1 3 0.0 20.6395 28.5715 17.7415
2394 1 3 0.0 17.6052 34.5024 10.1236
2364 1 2 0.0 18.4476 33.7479 10.0957
2449 1 3 0.0 22.1159 37.7592 10.5362
2942 1 3 0.0 19.5024 39.6834 17.6392
2379 1 3 0.0 17.5221 32.5907 19.9384
2376 1 3 0.0 20.2429 32.2256 19.4374
2378 1 3 0.0 17.9521 34.2039 19.7434
1824 1 3 0.0 19.509 28.1812 15.5677
2380 1 3 0.0 17.1736 33.303 17.7072
2917 1 2 0.0 19.2533 37.8398 18.9776
1833 1 3 0.0 20.4572 28.7892 10.3389
2386 1 3 0.0 19.4703 32.3373 15.4003
2921 1 2 0.0 18.9707 37.9996 13.9045
2387 1 3 0.0 20.8084 33.4843 15.453
2949 1 3 0.0 19.9207 37.5048 13.7901
2952 1 3 0.0 18.3945 37.2846 11.1265
1798 1 2 0.0 18.142 29.3928 16.7651
2948 1 3 0.0 18.1387 37.2302 13.9275
2941 1 3 0.0 20.2936 37.3765 18.8302
2434 1 3 0.0 22.4564 35.0547 18.7859
2382 1 3 0.0 19.9456 34.623 17.7625
2947 1 3 0.0 18.0151 39.4026 15.2934
2944 1 3 0.0 18.2195 37.2509 16.473
2358 1 2 0.0 18.9561 34.4004 17.2358
2389 1 3 0.0 20.6774 34.2483 13.4481
2920 1 2 0.0 18.9718 38.8389 15.1921
1826 1 3 0.0 18.2145 30.3804 14.0883
1879 1 3 0.0 22.4326 31.6734 17.4299
1822 1 3 0.0 17.5296 30.3131 16.6181
1802 1 2 0.0 18.6753 29.0823 11.6938
1820 1 3 0.0 19.3003 30.3663 18.264
2943 1 3 0.0 17.862 39.0094 17.8962
1801 1 2 0.0 19.4809 29.0418 12.9959
2922 1 2 0.0 18.7956 38.8223 12.59
2945 1 3 0.0 20.0183 37.4253 16.4457
2953 1 3 0.0 20.154 37.627 11.1969
1830 1 3 0.0 18.3783 30.136 11.5561
2919 1 2 0.0 19.0534 37.9922 16.4695
2327 1 3 0.0 15.7233 35.3633 17.7322
2359 1 2 0.0 18.9115 34.4182 15.7407
2331 1 3 0.0 15.8136 35.7745 14.8976
2437 1 3 0.0 22.5612 37.3805 18.1054
1828 1 3 0.0 19.857 27.9958 13.0539
1800 1 2 0.0 18.584 29.3751 14.1742
2388 1 3 0.0 20.264 32.5042 13.213
2391 1 3 0.0 17.941 33.2618 12.4547
2390 1 3 0.0 18.2808 34.8009 13.0403
2393 1 3 0.0 19.6103 35.1228 11.096
1829 1 3 0.0 20.3576 29.6956 12.9969
2356 1 2 0.0 18.3047 33.2404 19.4013
2445 1 3 0.0 22.3784 37.6992 12.9818
1821 1 3 0.0 17.9371 29.307 18.7863
2381 1 3 0.0 18.6096 32.2341 17.5977
1803 1 2 0.0 19.3639 28.5736 10.4286
2392 1 3 0.0 20.3165 33.5262 11.2391
2363 1 2 0.0 19.39 34.1 11.2364
2357 1 2 0.0 18.22 33.2416 17.9278
2940 1 3 0.0 18.455 37.0079 18.9796
2923 1 2 0.0 19.1408 38.1251 11.2707
2361 1 2 0.0 19.8717 33.4563 13.5867
2362 1 2 0.0 18.7588 33.9378 12.618
1799 1 2 0.0 19.213 29.2542 15.592