Automatically generated mesh
      12
Reciprocal lattice
    0.08333333333334    0.08333333333333    0.00000000000000             6
    0.25000000000000    0.08333333333334    0.00000000000000            12
    0.41666666666667    0.08333333333334    0.00000000000000            12
   -0.41666666666666    0.08333333333333    0.00000000000000            12
   -0.25000000000000    0.08333333333334    0.00000000000000            12
   -0.08333333333333    0.08333333333334    0.00000000000000             6
    0.25000000000000    0.25000000000000    0.00000000000000             6
    0.41666666666667    0.25000000000000    0.00000000000000            12
   -0.41666666666666    0.25000000000000    0.00000000000000            12
   -0.25000000000000    0.25000000000000    0.00000000000000             6
    0.41666666666667    0.41666666666667    0.00000000000000             6
   -0.41666666666666    0.41666666666667    0.00000000000000             6
