 vasp.5.4.4.18Apr17-6-g9f103f2a35 (build Sep 16 2021 13:51:27) complex          
  
 executed on             LinuxIFC date 2023.02.26  09:55:28
 running on   24 total cores
 distrk:  each k-point on   24 cores,    1 groups
 distr:  one band on NCORES_PER_BAND=  24 cores,    1 groups


--------------------------------------------------------------------------------------------------------


 INCAR:
 POTCAR:    PAW_PBE Sn 08Apr2002                  
 POTCAR:    PAW_PBE Se 06Sep2000                  

 ----------------------------------------------------------------------------- 
|                                                                             |
|           W    W    AA    RRRRR   N    N  II  N    N   GGGG   !!!           |
|           W    W   A  A   R    R  NN   N  II  NN   N  G    G  !!!           |
|           W    W  A    A  R    R  N N  N  II  N N  N  G       !!!           |
|           W WW W  AAAAAA  RRRRR   N  N N  II  N  N N  G  GGG   !            |
|           WW  WW  A    A  R   R   N   NN  II  N   NN  G    G                |
|           W    W  A    A  R    R  N    N  II  N    N   GGGG   !!!           |
|                                                                             |
|      For optimal performance we recommend to set                            |
|        NCORE= 4 - approx SQRT( number of cores)                             |
|      NCORE specifies how many cores store one orbital (NPAR=cpu/NCORE).     |
|      This setting can  greatly improve the performance of VASP for DFT.     |
|      The default,   NCORE=1            might be grossly inefficient         |
|      on modern multi-core architectures or massively parallel machines.     |
|      Do your own testing !!!!                                               |
|      Unfortunately you need to use the default for GW and RPA calculations. |
|      (for HF NCORE is supported but not extensively tested yet)             |
|                                                                             |
 ----------------------------------------------------------------------------- 

 POTCAR:    PAW_PBE Sn 08Apr2002                  
   VRHFIN =Sn: s2p2                                                             
   LEXCH  = PE                                                                  
   EATOM  =    94.0860 eV,    6.9151 Ry                                         
                                                                                
   TITEL  = PAW_PBE Sn 08Apr2002                                                
   LULTRA =        F    use ultrasoft PP ?                                      
   IUNSCR =        1    unscreen: 0-lin 1-nonlin 2-no                           
   RPACOR =    2.000    partial core radius                                     
   POMASS =  118.710; ZVAL   =    4.000    mass and valenz                      
   RCORE  =    3.000    outmost cutoff radius                                   
   RWIGS  =    2.960; RWIGS  =    1.566    wigner-seitz radius (au A)           
   ENMAX  =  103.236; ENMIN  =   77.427 eV                                      
   ICORE  =        3    local potential                                         
   LCOR   =        T    correct aug charges                                     
   LPAW   =        T    paw PP                                                  
   EAUG   =  263.585                                                            
   DEXC   =    0.000                                                            
   RMAX   =    3.078    core radius for proj-oper                               
   RAUG   =    1.300    factor for augmentation sphere                          
   RDEP   =    3.022    radius for radial grids                                 
   RDEPT  =    2.655    core radius for aug-charge                              
                                                                                
   Atomic configuration                                                         
   13 entries                                                                   
     n  l   j            E        occ.                                          
     1  0  0.50    -29007.2859   2.0000                                         
     2  0  0.50     -4378.8056   2.0000                                         
     2  1  1.50     -3930.4293   6.0000                                         
     3  0  0.50      -845.0264   2.0000                                         
     3  1  1.50      -698.5725   6.0000                                         
     3  2  2.50      -473.2839  10.0000                                         
     4  0  0.50      -133.9036   2.0000                                         
     4  1  1.50       -89.6752   6.0000                                         
     4  2  2.50       -25.8375  10.0000                                         
     5  0  0.50       -10.5484   2.0000                                         
     5  1  0.50        -3.6940   2.0000                                         
     5  2  1.50        -1.3606   0.0000                                         
     4  3  2.50        -4.0817   0.0000                                         
   Description                                                                  
     l       E           TYP  RCUT    TYP  RCUT                                 
     0    -10.5483727     23  3.000                                             
     0     27.2116520     23  3.000                                             
     1     -3.6939829     23  3.000                                             
     1      1.9821976     23  3.000                                             
     2     -1.3605826     23  3.000                                             
     3     -2.7211652     23  3.000                                             
  local pseudopotential read in
  partial core-charges read in
  partial kinetic energy density read in
  atomic valenz-charges read in
  non local Contribution for L=           0  read in
    real space projection operators read in
  non local Contribution for L=           0  read in
    real space projection operators read in
  non local Contribution for L=           1  read in
    real space projection operators read in
  non local Contribution for L=           1  read in
    real space projection operators read in
  non local Contribution for L=           2  read in
    real space projection operators read in
    PAW grid and wavefunctions read in
 
   number of l-projection  operators is LMAX  =           5
   number of lm-projection operators is LMMAX =          13
 
 POTCAR:    PAW_PBE Se 06Sep2000                  
   VRHFIN =Se: s2p4                                                             
   LEXCH  = PE                                                                  
   EATOM  =   257.1286 eV,   18.8984 Ry                                         
                                                                                
   TITEL  = PAW_PBE Se 06Sep2000                                                
   LULTRA =        F    use ultrasoft PP ?                                      
   IUNSCR =        1    unscreen: 0-lin 1-nonlin 2-no                           
   RPACOR =    1.900    partial core radius                                     
   POMASS =   78.960; ZVAL   =    6.000    mass and valenz                      
   RCORE  =    2.100    outmost cutoff radius                                   
   RWIGS  =    2.200; RWIGS  =    1.164    wigner-seitz radius (au A)           
   ENMAX  =  211.555; ENMIN  =  158.666 eV                                      
   ICORE  =        3    local potential                                         
   LCOR   =        T    correct aug charges                                     
   LPAW   =        T    paw PP                                                  
   EAUG   =  446.842                                                            
   DEXC   =    0.000                                                            
   RMAX   =    2.147    core radius for proj-oper                               
   RAUG   =    1.300    factor for augmentation sphere                          
   RDEP   =    2.177    radius for radial grids                                 
   RDEPT  =    1.928    core radius for aug-charge                              
                                                                                
   Atomic configuration                                                         
   10 entries                                                                   
     n  l   j            E        occ.                                          
     1  0  0.50    -12503.4787   2.0000                                         
     2  0  0.50     -1606.9547   2.0000                                         
     2  1  1.50     -1413.3140   6.0000                                         
     3  0  0.50      -213.4885   2.0000                                         
     3  1  1.50      -152.9538   6.0000                                         
     3  2  2.50       -53.1221  10.0000                                         
     4  0  0.50       -17.2865   2.0000                                         
     4  1  0.50        -6.5110   4.0000                                         
     4  2  2.50        -6.8029   0.0000                                         
     4  3  2.50        -6.8029   0.0000                                         
   Description                                                                  
     l       E           TYP  RCUT    TYP  RCUT                                 
     0    -17.2865377     23  2.100                                             
     0    -15.3094411     23  2.100                                             
     1     -6.5110275     23  2.100                                             
     1     -0.0695192     23  2.100                                             
     2     -6.8029130     23  2.100                                             
     3     -1.3605826      7  2.100                                             
  local pseudopotential read in
  partial core-charges read in
  partial kinetic energy density read in
  atomic valenz-charges read in
  non local Contribution for L=           0  read in
    real space projection operators read in
  non local Contribution for L=           0  read in
    real space projection operators read in
  non local Contribution for L=           1  read in
    real space projection operators read in
  non local Contribution for L=           1  read in
    real space projection operators read in
  non local Contribution for L=           2  read in
    real space projection operators read in
    PAW grid and wavefunctions read in
 
   number of l-projection  operators is LMAX  =           5
   number of lm-projection operators is LMMAX =          13
 
 WARNING: PSMAXN for non-local potential too small
          PSMAXN should be >   12.5490833729506       NTYP=           1
  PAW_PBE Sn 08Apr2002                  :
 energy of atom  1       EATOM=  -94.0860
 kinetic energy error for atom=    0.0000 (will be added to EATOM!!)
  PAW_PBE Se 06Sep2000                  :
 energy of atom  2       EATOM= -257.1286
 kinetic energy error for atom=    0.0006 (will be added to EATOM!!)
 
 
 POSCAR:  SnSe-Monolayer                         
  positions in direct lattice
  velocities in cartesian coordinates
 exchange correlation table for  LEXCH =        8
   RHO(1)=    0.500       N(1)  =     2000
   RHO(2)=  100.500       N(2)  =     4000
 


--------------------------------------------------------------------------------------------------------


 ion  position               nearest neighbor table
   1  0.581  0.750  0.569-   4 2.72   3 2.92   3 2.92   3 3.22   3 3.22
   2  0.081  0.250  0.431-   3 2.72   4 2.92   4 2.92   4 3.22   4 3.22
   3  0.033  0.250  0.567-   2 2.72   1 2.92   1 2.92   1 3.22   1 3.22
   4  0.533  0.750  0.433-   1 2.72   2 2.92   2 2.92   2 3.22   2 3.22
 
  LATTYP: Found a simple orthorhombic cell.
 ALAT       =     4.2924778572
 B/A-ratio  =     1.0209387004
 C/A-ratio  =     4.6593134934
  
  Lattice vectors:
  
 A1 = (   0.0000000000,  -4.2924778572,   0.0000000000)
 A2 = (  -4.3823567649,   0.0000000000,   0.0000000000)
 A3 = (   0.0000000000,   0.0000000000, -20.0000000000)


Analysis of symmetry for initial positions (statically):
=====================================================================
 Subroutine PRICEL returns:
 Original cell was already a primitive cell.
 

 Routine SETGRP: Setting up the symmetry group for a 
 simple orthorhombic supercell.


 Subroutine GETGRP returns: Found  4 space group operations
 (whereof  1 operations were pure point group operations)
 out of a pool of  8 trial point group operations.


The static configuration has the point symmetry C_1 .
 The point group associated with its full space group is C_2v.


Analysis of symmetry for dynamics (positions and initial velocities):
=====================================================================
 Subroutine PRICEL returns:
 Original cell was already a primitive cell.
 

 Routine SETGRP: Setting up the symmetry group for a 
 simple orthorhombic supercell.


 Subroutine GETGRP returns: Found  4 space group operations
 (whereof  1 operations were pure point group operations)
 out of a pool of  8 trial point group operations.


The dynamic configuration has the point symmetry C_1 .
 The point group associated with its full space group is C_2v.


 Subroutine INISYM returns: Found  4 space group operations
 (whereof  1 operations are pure point group operations),
 and found     1 'primitive' translations

 
 
 KPOINTS: Automatic                               

Automatic generation of k-mesh.
Space group operators:
 irot       det(A)        alpha          n_x          n_y          n_z        tau_x        tau_y        tau_z
    1     1.000000     0.000000     1.000000     0.000000     0.000000     0.000000     0.000000     0.000000
    2    -1.000000   180.000000     0.000000     0.000000     1.000000    -0.500000    -0.500000    -0.000000
    3     1.000000   180.000000     1.000000     0.000000     0.000000    -0.500000     0.000000    -0.000000
    4    -1.000000   180.000000     0.000000     1.000000     0.000000     0.000000    -0.500000     0.000000
 
 Subroutine IBZKPT returns following result:
 ===========================================
 
 Found     64 irreducible k-points:
 
 Following reciprocal coordinates:
            Coordinates               Weight
  0.000000  0.000000  0.000000      1.000000
  0.066667  0.000000  0.000000      2.000000
  0.133333  0.000000  0.000000      2.000000
  0.200000  0.000000  0.000000      2.000000
  0.266667  0.000000  0.000000      2.000000
  0.333333  0.000000  0.000000      2.000000
  0.400000  0.000000  0.000000      2.000000
  0.466667  0.000000  0.000000      2.000000
  0.000000  0.066667  0.000000      2.000000
  0.066667  0.066667  0.000000      4.000000
  0.133333  0.066667  0.000000      4.000000
  0.200000  0.066667  0.000000      4.000000
  0.266667  0.066667  0.000000      4.000000
  0.333333  0.066667  0.000000      4.000000
  0.400000  0.066667  0.000000      4.000000
  0.466667  0.066667  0.000000      4.000000
  0.000000  0.133333  0.000000      2.000000
  0.066667  0.133333  0.000000      4.000000
  0.133333  0.133333  0.000000      4.000000
  0.200000  0.133333  0.000000      4.000000
  0.266667  0.133333  0.000000      4.000000
  0.333333  0.133333  0.000000      4.000000
  0.400000  0.133333  0.000000      4.000000
  0.466667  0.133333  0.000000      4.000000
  0.000000  0.200000  0.000000      2.000000
  0.066667  0.200000  0.000000      4.000000
  0.133333  0.200000  0.000000      4.000000
  0.200000  0.200000  0.000000      4.000000
  0.266667  0.200000  0.000000      4.000000
  0.333333  0.200000  0.000000      4.000000
  0.400000  0.200000  0.000000      4.000000
  0.466667  0.200000  0.000000      4.000000
  0.000000  0.266667  0.000000      2.000000
  0.066667  0.266667  0.000000      4.000000
  0.133333  0.266667  0.000000      4.000000
  0.200000  0.266667  0.000000      4.000000
  0.266667  0.266667  0.000000      4.000000
  0.333333  0.266667  0.000000      4.000000
  0.400000  0.266667  0.000000      4.000000
  0.466667  0.266667  0.000000      4.000000
  0.000000  0.333333  0.000000      2.000000
  0.066667  0.333333  0.000000      4.000000
  0.133333  0.333333  0.000000      4.000000
  0.200000  0.333333  0.000000      4.000000
  0.266667  0.333333  0.000000      4.000000
  0.333333  0.333333  0.000000      4.000000
  0.400000  0.333333  0.000000      4.000000
  0.466667  0.333333  0.000000      4.000000
  0.000000  0.400000  0.000000      2.000000
  0.066667  0.400000  0.000000      4.000000
  0.133333  0.400000  0.000000      4.000000
  0.200000  0.400000  0.000000      4.000000
  0.266667  0.400000  0.000000      4.000000
  0.333333  0.400000  0.000000      4.000000
  0.400000  0.400000  0.000000      4.000000
  0.466667  0.400000  0.000000      4.000000
  0.000000  0.466667  0.000000      2.000000
  0.066667  0.466667  0.000000      4.000000
  0.133333  0.466667  0.000000      4.000000
  0.200000  0.466667  0.000000      4.000000
  0.266667  0.466667  0.000000      4.000000
  0.333333  0.466667  0.000000      4.000000
  0.400000  0.466667  0.000000      4.000000
  0.466667  0.466667  0.000000      4.000000
 
 Following cartesian coordinates:
            Coordinates               Weight
  0.000000  0.000000  0.000000      1.000000
  0.015213  0.000000  0.000000      2.000000
  0.030425  0.000000  0.000000      2.000000
  0.045638  0.000000  0.000000      2.000000
  0.060850  0.000000  0.000000      2.000000
  0.076063  0.000000  0.000000      2.000000
  0.091275  0.000000  0.000000      2.000000
  0.106488  0.000000  0.000000      2.000000
  0.000000  0.015531  0.000000      2.000000
  0.015213  0.015531  0.000000      4.000000
  0.030425  0.015531  0.000000      4.000000
  0.045638  0.015531  0.000000      4.000000
  0.060850  0.015531  0.000000      4.000000
  0.076063  0.015531  0.000000      4.000000
  0.091275  0.015531  0.000000      4.000000
  0.106488  0.015531  0.000000      4.000000
  0.000000  0.031062  0.000000      2.000000
  0.015213  0.031062  0.000000      4.000000
  0.030425  0.031062  0.000000      4.000000
  0.045638  0.031062  0.000000      4.000000
  0.060850  0.031062  0.000000      4.000000
  0.076063  0.031062  0.000000      4.000000
  0.091275  0.031062  0.000000      4.000000
  0.106488  0.031062  0.000000      4.000000
  0.000000  0.046593  0.000000      2.000000
  0.015213  0.046593  0.000000      4.000000
  0.030425  0.046593  0.000000      4.000000
  0.045638  0.046593  0.000000      4.000000
  0.060850  0.046593  0.000000      4.000000
  0.076063  0.046593  0.000000      4.000000
  0.091275  0.046593  0.000000      4.000000
  0.106488  0.046593  0.000000      4.000000
  0.000000  0.062124  0.000000      2.000000
  0.015213  0.062124  0.000000      4.000000
  0.030425  0.062124  0.000000      4.000000
  0.045638  0.062124  0.000000      4.000000
  0.060850  0.062124  0.000000      4.000000
  0.076063  0.062124  0.000000      4.000000
  0.091275  0.062124  0.000000      4.000000
  0.106488  0.062124  0.000000      4.000000
  0.000000  0.077655  0.000000      2.000000
  0.015213  0.077655  0.000000      4.000000
  0.030425  0.077655  0.000000      4.000000
  0.045638  0.077655  0.000000      4.000000
  0.060850  0.077655  0.000000      4.000000
  0.076063  0.077655  0.000000      4.000000
  0.091275  0.077655  0.000000      4.000000
  0.106488  0.077655  0.000000      4.000000
  0.000000  0.093186  0.000000      2.000000
  0.015213  0.093186  0.000000      4.000000
  0.030425  0.093186  0.000000      4.000000
  0.045638  0.093186  0.000000      4.000000
  0.060850  0.093186  0.000000      4.000000
  0.076063  0.093186  0.000000      4.000000
  0.091275  0.093186  0.000000      4.000000
  0.106488  0.093186  0.000000      4.000000
  0.000000  0.108717  0.000000      2.000000
  0.015213  0.108717  0.000000      4.000000
  0.030425  0.108717  0.000000      4.000000
  0.045638  0.108717  0.000000      4.000000
  0.060850  0.108717  0.000000      4.000000
  0.076063  0.108717  0.000000      4.000000
  0.091275  0.108717  0.000000      4.000000
  0.106488  0.108717  0.000000      4.000000
 


--------------------------------------------------------------------------------------------------------




 Dimension of arrays:
   k-points           NKPTS =     64   k-points in BZ     NKDIM =     64   number of bands    NBANDS=     14
   number of dos      NEDOS =    301   number of ions     NIONS =      4
   non local maximal  LDIM  =      5   non local SUM 2l+1 LMDIM =     13
   total plane-waves  NPLWV = 207360
   max r-space proj   IRMAX =      1   max aug-charges    IRDMAX=  53247
   dimension x,y,z NGX =    36 NGY =   36 NGZ =  160
   dimension x,y,z NGXF=    72 NGYF=   72 NGZF=  320
   support grid    NGXF=    72 NGYF=   72 NGZF=  320
   ions per type =               2   2
   NGX,Y,Z   is equivalent  to a cutoff of  13.66, 13.94, 13.30 a.u.
   NGXF,Y,Z  is equivalent  to a cutoff of  27.31, 27.89, 26.60 a.u.

 SYSTEM =  SnSe                                    
 POSCAR =   SnSe-Monolayer                         

 Startparameter for this run:
   NWRITE =      2    write-flag & timer
   PREC   = accura    normal or accurate (medium, high low for compatibility)
   ISTART =      0    job   : 0-new  1-cont  2-samecut
   ICHARG =      2    charge: 1-file 2-atom 10-const
   ISPIN  =      1    spin polarized calculation?
   LNONCOLLINEAR =      F non collinear calculations
   LSORBIT =      F    spin-orbit coupling
   INIWAV =      1    electr: 0-lowe 1-rand  2-diag
   LASPH  =      F    aspherical Exc in radial PAW
   METAGGA=      F    non-selfconsistent MetaGGA calc.

 Electronic Relaxation 1
   ENCUT  =  600.0 eV  44.10 Ry    6.64 a.u.   8.75  8.57 39.94*2*pi/ulx,y,z
   ENINI  =  600.0     initial cutoff
   ENAUG  =  446.8 eV  augmentation charge cutoff
   NELM   =     60;   NELMIN=  2; NELMDL= -5     # of ELM steps 
   EDIFF  = 0.1E-05   stopping-criterion for ELM
   LREAL  =      F    real-space projection
   NLSPLINE    = F    spline interpolate recip. space projectors
   LCOMPAT=      F    compatible to vasp.4.4
   GGA_COMPAT  = T    GGA compatible to vasp.4.4-vasp.4.6
   LMAXPAW     = -100 max onsite density
   LMAXMIX     =    2 max onsite mixed and CHGCAR
   VOSKOWN=      0    Vosko Wilk Nusair interpolation
   ROPT   =    0.00000   0.00000
 Ionic relaxation
   EDIFFG = -.1E-02   stopping-criterion for IOM
   NSW    =    100    number of steps for IOM
   NBLOCK =      1;   KBLOCK =    100    inner block; outer block 
   IBRION =      2    ionic relax: 0-MD 1-quasi-New 2-CG
   NFREE  =      1    steps in history (QN), initial steepest desc. (CG)
   ISIF   =      2    stress and relaxation
   IWAVPR =     11    prediction:  0-non 1-charg 2-wave 3-comb
   ISYM   =      2    0-nonsym 1-usesym 2-fastsym
   LCORR  =      T    Harris-Foulkes like correction to forces

   POTIM  = 0.5000    time-step for ionic-motion
   TEIN   =    0.0    initial temperature
   TEBEG  =    0.0;   TEEND  =   0.0 temperature during run
   SMASS  =  -3.00    Nose mass-parameter (am)
   estimated Nose-frequenzy (Omega)   =  0.10E-29 period in steps =****** mass=  -0.439E-27a.u.
   SCALEE = 1.0000    scale energy and forces
   NPACO  =    256;   APACO  = 16.0  distance and # of slots for P.C.
   PSTRESS=    0.0 pullay stress

  Mass of Ions in am
   POMASS = 118.71 78.96
  Ionic Valenz
   ZVAL   =   4.00  6.00
  Atomic Wigner-Seitz radii
   RWIGS  =  -1.00 -1.00
  virtual crystal weights 
   VCA    =   1.00  1.00
   NELECT =      20.0000    total number of electrons
   NUPDOWN=      -1.0000    fix difference up-down

 DOS related values:
   EMIN   =  10.00;   EMAX   =-10.00  energy-range for DOS
   EFERMI =   0.00
   ISMEAR =     0;   SIGMA  =   0.10  broadening in eV -4-tet -1-fermi 0-gaus

 Electronic relaxation 2 (details)
   IALGO  =     38    algorithm
   LDIAG  =      T    sub-space diagonalisation (order eigenvalues)
   LSUBROT=      F    optimize rotation matrix (better conditioning)
   TURBO    =      0    0=normal 1=particle mesh
   IRESTART =      0    0=no restart 2=restart with 2 vectors
   NREBOOT  =      0    no. of reboots
   NMIN     =      0    reboot dimension
   EREF     =   0.00    reference energy to select bands
   IMIX   =      4    mixing-type and parameters
     AMIX     =   0.40;   BMIX     =  1.00
     AMIX_MAG =   1.60;   BMIX_MAG =  1.00
     AMIN     =   0.10
     WC   =   100.;   INIMIX=   1;  MIXPRE=   1;  MAXMIX= -45

 Intra band minimization:
   WEIMIN = 0.0010     energy-eigenvalue tresh-hold
   EBREAK =  0.18E-07  absolut break condition
   DEPER  =   0.30     relativ break condition  

   TIME   =   0.40     timestep for ELM

  volume/ion in A,a.u.               =      94.06       634.72
  Fermi-wavevector in a.u.,A,eV,Ry     =   0.615559  1.163238  5.155420  0.378913
  Thomas-Fermi vector in A             =   1.672972
 
 Write flags
   LWAVE        =      T    write WAVECAR
   LDOWNSAMPLE  =      F    k-point downsampling of WAVECAR
   LCHARG       =      T    write CHGCAR
   LVTOT        =      F    write LOCPOT, total local potential
   LVHAR        =      F    write LOCPOT, Hartree potential only
   LELF         =      F    write electronic localiz. function (ELF)
   LORBIT       =      0    0 simple, 1 ext, 2 COOP (PROOUT), +10 PAW based schemes


 Dipole corrections
   LMONO  =      F    monopole corrections only (constant potential shift)
   LDIPOL =      F    correct potential (dipole corrections)
   IDIPOL =      0    1-x, 2-y, 3-z, 4-all directions 
   EPSILON=  1.0000000 bulk dielectric constant

 Exchange correlation treatment:
   GGA     =    PE    GGA type
   LEXCH   =     8    internal setting for exchange type
   VOSKOWN=      0    Vosko Wilk Nusair interpolation
   LHFCALC =     F    Hartree Fock is set to
   LHFONE  =     F    Hartree Fock one center treatment
   AEXX    =    0.0000 exact exchange contribution

 Linear response parameters
   LEPSILON=     F    determine dielectric tensor
   LRPA    =     F    only Hartree local field effects (RPA)
   LNABLA  =     F    use nabla operator in PAW spheres
   LVEL    =     F    velocity operator in full k-point grid
   LINTERFAST=   F  fast interpolation
   KINTER  =     0    interpolate to denser k-point grid
   CSHIFT  =0.1000    complex shift for real part using Kramers Kronig
   OMEGAMAX=  -1.0    maximum frequency
   DEG_THRESHOLD= 0.2000000E-02 threshold for treating states as degnerate
   RTIME   =   -0.100 relaxation time in fs
  (WPLASMAI=    0.000 imaginary part of plasma frequency in eV, 0.658/RTIME)
   DFIELD  = 0.0000000 0.0000000 0.0000000 field for delta impulse in time
 
 Orbital magnetization related:
   ORBITALMAG=     F  switch on orbital magnetization
   LCHIMAG   =     F  perturbation theory with respect to B field
   DQ        =  0.001000  dq finite difference perturbation B field
   LLRAUG    =     F  two centre corrections for induced B field



--------------------------------------------------------------------------------------------------------


 conjugate gradient relaxation of ions
 charge density and potential will be updated during run
 non-spin polarized calculation
 Variant of blocked Davidson
 Davidson routine will perform the subspace rotation
 perform sub-space diagonalisation
    after iterative eigenvector-optimisation
 modified Broyden-mixing scheme, WC =      100.0
 initial mixing is a Kerker type mixing with AMIX =  0.4000 and BMIX =      1.0000
 Hartree-type preconditioning will be used
 using additional bands            4
 reciprocal scheme for non local part
 use partial core corrections
 calculate Harris-corrections to forces 
   (improved forces if not selfconsistent)
 use gradient corrections 
 use of overlap-Matrix (Vanderbilt PP)
 Gauss-broadening in eV      SIGMA  =   0.10


--------------------------------------------------------------------------------------------------------


  energy-cutoff  :      600.00
  volume of cell :      376.22
      direct lattice vectors                 reciprocal lattice vectors
     4.382356765  0.000000000  0.000000000     0.228187720  0.000000000  0.000000000
     0.000000000  4.292477857  0.000000000     0.000000000  0.232965675  0.000000000
     0.000000000  0.000000000 20.000000000     0.000000000  0.000000000  0.050000000

  length of vectors
     4.382356765  4.292477857 20.000000000     0.228187720  0.232965675  0.050000000


 
 k-points in units of 2pi/SCALE and weight: Automatic                               
   0.00000000  0.00000000  0.00000000       0.004
   0.01521251  0.00000000  0.00000000       0.009
   0.03042503  0.00000000  0.00000000       0.009
   0.04563754  0.00000000  0.00000000       0.009
   0.06085006  0.00000000  0.00000000       0.009
   0.07606257  0.00000000  0.00000000       0.009
   0.09127509  0.00000000  0.00000000       0.009
   0.10648760  0.00000000  0.00000000       0.009
   0.00000000  0.01553104  0.00000000       0.009
   0.01521251  0.01553104  0.00000000       0.018
   0.03042503  0.01553104  0.00000000       0.018
   0.04563754  0.01553104  0.00000000       0.018
   0.06085006  0.01553104  0.00000000       0.018
   0.07606257  0.01553104  0.00000000       0.018
   0.09127509  0.01553104  0.00000000       0.018
   0.10648760  0.01553104  0.00000000       0.018
   0.00000000  0.03106209  0.00000000       0.009
   0.01521251  0.03106209  0.00000000       0.018
   0.03042503  0.03106209  0.00000000       0.018
   0.04563754  0.03106209  0.00000000       0.018
   0.06085006  0.03106209  0.00000000       0.018
   0.07606257  0.03106209  0.00000000       0.018
   0.09127509  0.03106209  0.00000000       0.018
   0.10648760  0.03106209  0.00000000       0.018
   0.00000000  0.04659313  0.00000000       0.009
   0.01521251  0.04659313  0.00000000       0.018
   0.03042503  0.04659313  0.00000000       0.018
   0.04563754  0.04659313  0.00000000       0.018
   0.06085006  0.04659313  0.00000000       0.018
   0.07606257  0.04659313  0.00000000       0.018
   0.09127509  0.04659313  0.00000000       0.018
   0.10648760  0.04659313  0.00000000       0.018
   0.00000000  0.06212418  0.00000000       0.009
   0.01521251  0.06212418  0.00000000       0.018
   0.03042503  0.06212418  0.00000000       0.018
   0.04563754  0.06212418  0.00000000       0.018
   0.06085006  0.06212418  0.00000000       0.018
   0.07606257  0.06212418  0.00000000       0.018
   0.09127509  0.06212418  0.00000000       0.018
   0.10648760  0.06212418  0.00000000       0.018
   0.00000000  0.07765522  0.00000000       0.009
   0.01521251  0.07765522  0.00000000       0.018
   0.03042503  0.07765522  0.00000000       0.018
   0.04563754  0.07765522  0.00000000       0.018
   0.06085006  0.07765522  0.00000000       0.018
   0.07606257  0.07765522  0.00000000       0.018
   0.09127509  0.07765522  0.00000000       0.018
   0.10648760  0.07765522  0.00000000       0.018
   0.00000000  0.09318627  0.00000000       0.009
   0.01521251  0.09318627  0.00000000       0.018
   0.03042503  0.09318627  0.00000000       0.018
   0.04563754  0.09318627  0.00000000       0.018
   0.06085006  0.09318627  0.00000000       0.018
   0.07606257  0.09318627  0.00000000       0.018
   0.09127509  0.09318627  0.00000000       0.018
   0.10648760  0.09318627  0.00000000       0.018
   0.00000000  0.10871731  0.00000000       0.009
   0.01521251  0.10871731  0.00000000       0.018
   0.03042503  0.10871731  0.00000000       0.018
   0.04563754  0.10871731  0.00000000       0.018
   0.06085006  0.10871731  0.00000000       0.018
   0.07606257  0.10871731  0.00000000       0.018
   0.09127509  0.10871731  0.00000000       0.018
   0.10648760  0.10871731  0.00000000       0.018
 
 k-points in reciprocal lattice and weights: Automatic                               
   0.00000000  0.00000000  0.00000000       0.004
   0.06666667  0.00000000  0.00000000       0.009
   0.13333333  0.00000000  0.00000000       0.009
   0.20000000  0.00000000  0.00000000       0.009
   0.26666667  0.00000000  0.00000000       0.009
   0.33333333  0.00000000  0.00000000       0.009
   0.40000000  0.00000000  0.00000000       0.009
   0.46666667  0.00000000  0.00000000       0.009
   0.00000000  0.06666667  0.00000000       0.009
   0.06666667  0.06666667  0.00000000       0.018
   0.13333333  0.06666667  0.00000000       0.018
   0.20000000  0.06666667  0.00000000       0.018
   0.26666667  0.06666667  0.00000000       0.018
   0.33333333  0.06666667  0.00000000       0.018
   0.40000000  0.06666667  0.00000000       0.018
   0.46666667  0.06666667  0.00000000       0.018
   0.00000000  0.13333333  0.00000000       0.009
   0.06666667  0.13333333  0.00000000       0.018
   0.13333333  0.13333333  0.00000000       0.018
   0.20000000  0.13333333  0.00000000       0.018
   0.26666667  0.13333333  0.00000000       0.018
   0.33333333  0.13333333  0.00000000       0.018
   0.40000000  0.13333333  0.00000000       0.018
   0.46666667  0.13333333  0.00000000       0.018
   0.00000000  0.20000000  0.00000000       0.009
   0.06666667  0.20000000  0.00000000       0.018
   0.13333333  0.20000000  0.00000000       0.018
   0.20000000  0.20000000  0.00000000       0.018
   0.26666667  0.20000000  0.00000000       0.018
   0.33333333  0.20000000  0.00000000       0.018
   0.40000000  0.20000000  0.00000000       0.018
   0.46666667  0.20000000  0.00000000       0.018
   0.00000000  0.26666667  0.00000000       0.009
   0.06666667  0.26666667  0.00000000       0.018
   0.13333333  0.26666667  0.00000000       0.018
   0.20000000  0.26666667  0.00000000       0.018
   0.26666667  0.26666667  0.00000000       0.018
   0.33333333  0.26666667  0.00000000       0.018
   0.40000000  0.26666667  0.00000000       0.018
   0.46666667  0.26666667  0.00000000       0.018
   0.00000000  0.33333333  0.00000000       0.009
   0.06666667  0.33333333  0.00000000       0.018
   0.13333333  0.33333333  0.00000000       0.018
   0.20000000  0.33333333  0.00000000       0.018
   0.26666667  0.33333333  0.00000000       0.018
   0.33333333  0.33333333  0.00000000       0.018
   0.40000000  0.33333333  0.00000000       0.018
   0.46666667  0.33333333  0.00000000       0.018
   0.00000000  0.40000000  0.00000000       0.009
   0.06666667  0.40000000  0.00000000       0.018
   0.13333333  0.40000000  0.00000000       0.018
   0.20000000  0.40000000  0.00000000       0.018
   0.26666667  0.40000000  0.00000000       0.018
   0.33333333  0.40000000  0.00000000       0.018
   0.40000000  0.40000000  0.00000000       0.018
   0.46666667  0.40000000  0.00000000       0.018
   0.00000000  0.46666667  0.00000000       0.009
   0.06666667  0.46666667  0.00000000       0.018
   0.13333333  0.46666667  0.00000000       0.018
   0.20000000  0.46666667  0.00000000       0.018
   0.26666667  0.46666667  0.00000000       0.018
   0.33333333  0.46666667  0.00000000       0.018
   0.40000000  0.46666667  0.00000000       0.018
   0.46666667  0.46666667  0.00000000       0.018
 
 position of ions in fractional coordinates (direct lattice) 
   0.58124336  0.75000000  0.56874314
   0.08124336  0.25000000  0.43125686
   0.03286064  0.25000000  0.56707387
   0.53286061  0.75000000  0.43292613
 
 position of ions in cartesian coordinates  (Angst):
   2.54721576  3.21935839 11.37486283
   0.35603738  1.07311946  8.62513717
   0.14400706  1.07311946 11.34147733
   2.33518532  3.21935839  8.65852267
 


--------------------------------------------------------------------------------------------------------


 k-point  1 :   0.0000 0.0000 0.0000  plane waves:   12651
 k-point  2 :   0.0667 0.0000 0.0000  plane waves:   12591
 k-point  3 :   0.1333 0.0000 0.0000  plane waves:   12573
 k-point  4 :   0.2000 0.0000 0.0000  plane waves:   12533
 k-point  5 :   0.2667 0.0000 0.0000  plane waves:   12532
 k-point  6 :   0.3333 0.0000 0.0000  plane waves:   12570
 k-point  7 :   0.4000 0.0000 0.0000  plane waves:   12602
 k-point  8 :   0.4667 0.0000 0.0000  plane waves:   12578
 k-point  9 :   0.0000 0.0667 0.0000  plane waves:   12585
 k-point 10 :   0.0667 0.0667 0.0000  plane waves:   12588
 k-point 11 :   0.1333 0.0667 0.0000  plane waves:   12570
 k-point 12 :   0.2000 0.0667 0.0000  plane waves:   12558
 k-point 13 :   0.2667 0.0667 0.0000  plane waves:   12557
 k-point 14 :   0.3333 0.0667 0.0000  plane waves:   12570
 k-point 15 :   0.4000 0.0667 0.0000  plane waves:   12590
 k-point 16 :   0.4667 0.0667 0.0000  plane waves:   12590
 k-point 17 :   0.0000 0.1333 0.0000  plane waves:   12571
 k-point 18 :   0.0667 0.1333 0.0000  plane waves:   12574
 k-point 19 :   0.1333 0.1333 0.0000  plane waves:   12547
 k-point 20 :   0.2000 0.1333 0.0000  plane waves:   12534
 k-point 21 :   0.2667 0.1333 0.0000  plane waves:   12545
 k-point 22 :   0.3333 0.1333 0.0000  plane waves:   12574
 k-point 23 :   0.4000 0.1333 0.0000  plane waves:   12579
 k-point 24 :   0.4667 0.1333 0.0000  plane waves:   12576
 k-point 25 :   0.0000 0.2000 0.0000  plane waves:   12573
 k-point 26 :   0.0667 0.2000 0.0000  plane waves:   12559
 k-point 27 :   0.1333 0.2000 0.0000  plane waves:   12566
 k-point 28 :   0.2000 0.2000 0.0000  plane waves:   12557
 k-point 29 :   0.2667 0.2000 0.0000  plane waves:   12546
 k-point 30 :   0.3333 0.2000 0.0000  plane waves:   12549
 k-point 31 :   0.4000 0.2000 0.0000  plane waves:   12562
 k-point 32 :   0.4667 0.2000 0.0000  plane waves:   12574
 k-point 33 :   0.0000 0.2667 0.0000  plane waves:   12565
 k-point 34 :   0.0667 0.2667 0.0000  plane waves:   12552
 k-point 35 :   0.1333 0.2667 0.0000  plane waves:   12557
 k-point 36 :   0.2000 0.2667 0.0000  plane waves:   12559
 k-point 37 :   0.2667 0.2667 0.0000  plane waves:   12561
 k-point 38 :   0.3333 0.2667 0.0000  plane waves:   12557
 k-point 39 :   0.4000 0.2667 0.0000  plane waves:   12559
 k-point 40 :   0.4667 0.2667 0.0000  plane waves:   12567
 k-point 41 :   0.0000 0.3333 0.0000  plane waves:   12535
 k-point 42 :   0.0667 0.3333 0.0000  plane waves:   12531
 k-point 43 :   0.1333 0.3333 0.0000  plane waves:   12534
 k-point 44 :   0.2000 0.3333 0.0000  plane waves:   12555
 k-point 45 :   0.2667 0.3333 0.0000  plane waves:   12542
 k-point 46 :   0.3333 0.3333 0.0000  plane waves:   12540
 k-point 47 :   0.4000 0.3333 0.0000  plane waves:   12552
 k-point 48 :   0.4667 0.3333 0.0000  plane waves:   12557
 k-point 49 :   0.0000 0.4000 0.0000  plane waves:   12509
 k-point 50 :   0.0667 0.4000 0.0000  plane waves:   12532
 k-point 51 :   0.1333 0.4000 0.0000  plane waves:   12546
 k-point 52 :   0.2000 0.4000 0.0000  plane waves:   12535
 k-point 53 :   0.2667 0.4000 0.0000  plane waves:   12550
 k-point 54 :   0.3333 0.4000 0.0000  plane waves:   12535
 k-point 55 :   0.4000 0.4000 0.0000  plane waves:   12527
 k-point 56 :   0.4667 0.4000 0.0000  plane waves:   12541
 k-point 57 :   0.0000 0.4667 0.0000  plane waves:   12528
 k-point 58 :   0.0667 0.4667 0.0000  plane waves:   12532
 k-point 59 :   0.1333 0.4667 0.0000  plane waves:   12532
 k-point 60 :   0.2000 0.4667 0.0000  plane waves:   12540
 k-point 61 :   0.2667 0.4667 0.0000  plane waves:   12520
 k-point 62 :   0.3333 0.4667 0.0000  plane waves:   12531
 k-point 63 :   0.4000 0.4667 0.0000  plane waves:   12516
 k-point 64 :   0.4667 0.4667 0.0000  plane waves:   12535

 maximum and minimum number of plane-waves per node :       545      503

 maximum number of plane-waves:     12651
 maximum index in each direction: 
   IXMAX=    8   IYMAX=    8   IZMAX=   39
   IXMIN=   -9   IYMIN=   -9   IZMIN=  -39


 parallel 3D FFT for wavefunctions:
    minimum data exchange during FFTs selected (reduces bandwidth)
 parallel 3D FFT for charge:
    minimum data exchange during FFTs selected (reduces bandwidth)


 total amount of memory used by VASP MPI-rank0    52047. kBytes
=======================================================================

   base      :      30000. kBytes
   nonl-proj :       7156. kBytes
   fftplans  :       2678. kBytes
   grid      :       4349. kBytes
   one-center:          8. kBytes
   wavefun   :       7856. kBytes
 
     INWAV:  cpu time    0.0000: real time    0.0000
 Broyden mixing: mesh for mixing (old mesh)
   NGX = 17   NGY = 17   NGZ = 79
  (NGX  = 72   NGY  = 72   NGZ  =320)
  gives a total of  22831 points

 initial charge density was supplied:
 charge density of overlapping atoms calculated
 number of electron      20.0000000 magnetization 
 keeping initial charge density in first step


--------------------------------------------------------------------------------------------------------


 Maximum index for augmentation-charges         2228 (set IRDMAX)


--------------------------------------------------------------------------------------------------------


 First call to EWALD:  gamma=   0.246
 Maximum number of real-space cells 4x 4x 1
 Maximum number of reciprocal cells 2x 2x 7

    FEWALD:  cpu time    0.0014: real time    0.0033


--------------------------------------- Iteration      1(   1)  ---------------------------------------


    POTLOK:  cpu time    0.0469: real time    0.2104
    SETDIJ:  cpu time    0.0095: real time    0.0112
     EDDAV:  cpu time    1.4963: real time    1.5011
       DOS:  cpu time    0.0031: real time    0.0031
    --------------------------------------------
      LOOP:  cpu time    1.5558: real time    1.7259

 eigenvalue-minimisations  :  1792
 total energy-change (2. order) : 0.1452665E+03  (-0.6310443E+03)
 number of electron      20.0000000 magnetization 
 augmentation part       20.0000000 magnetization 

 Free energy of the ion-electron system (eV)
  ---------------------------------------------------
  alpha Z        PSCENC =         9.50421754
  Ewald energy   TEWEN  =      1152.71885526
  -Hartree energ DENC   =     -1754.61169093
  -exchange      EXHF   =         0.00000000
  -V(xc)+E(xc)   XCENC  =      -238.58756104
  PAW double counting   =       799.43158084     -524.17639913
  entropy T*S    EENTRO =        -0.01355048
  eigenvalues    EBANDS =        -1.42680402
  atomic energy  EATOM  =       702.42789710
  Solvation  Ediel_sol  =         0.00000000
  ---------------------------------------------------
  free energy    TOTEN  =       145.26654516 eV

  energy without entropy =      145.28009564  energy(sigma->0) =      145.27332040


--------------------------------------------------------------------------------------------------------




--------------------------------------- Iteration      1(   2)  ---------------------------------------


     EDDAV:  cpu time    2.2649: real time    2.2720
       DOS:  cpu time    0.0035: real time    0.0035
    --------------------------------------------
      LOOP:  cpu time    2.2684: real time    2.2756

 eigenvalue-minimisations  :  2958
 total energy-change (2. order) :-0.1402593E+03  (-0.1355502E+03)
 number of electron      20.0000000 magnetization 
 augmentation part       20.0000000 magnetization 

 Free energy of the ion-electron system (eV)
  ---------------------------------------------------
  alpha Z        PSCENC =         9.50421754
  Ewald energy   TEWEN  =      1152.71885526
  -Hartree energ DENC   =     -1754.61169093
  -exchange      EXHF   =         0.00000000
  -V(xc)+E(xc)   XCENC  =      -238.58756104
  PAW double counting   =       799.43158084     -524.17639913
  entropy T*S    EENTRO =        -0.00179246
  eigenvalues    EBANDS =      -141.69786322
  atomic energy  EATOM  =       702.42789710
  Solvation  Ediel_sol  =         0.00000000
  ---------------------------------------------------
  free energy    TOTEN  =         5.00724397 eV

  energy without entropy =        5.00903644  energy(sigma->0) =        5.00814020


--------------------------------------------------------------------------------------------------------




--------------------------------------- Iteration      1(   3)  ---------------------------------------


     EDDAV:  cpu time    1.7692: real time    1.7752
       DOS:  cpu time    0.0023: real time    0.0023
    --------------------------------------------
      LOOP:  cpu time    1.7715: real time    1.7775

 eigenvalue-minimisations  :  2248
 total energy-change (2. order) :-0.2095276E+02  (-0.2075433E+02)
 number of electron      20.0000000 magnetization 
 augmentation part       20.0000000 magnetization 

 Free energy of the ion-electron system (eV)
  ---------------------------------------------------
  alpha Z        PSCENC =         9.50421754
  Ewald energy   TEWEN  =      1152.71885526
  -Hartree energ DENC   =     -1754.61169093
  -exchange      EXHF   =         0.00000000
  -V(xc)+E(xc)   XCENC  =      -238.58756104
  PAW double counting   =       799.43158084     -524.17639913
  entropy T*S    EENTRO =        -0.00000000
  eigenvalues    EBANDS =      -162.65242005
  atomic energy  EATOM  =       702.42789710
  Solvation  Ediel_sol  =         0.00000000
  ---------------------------------------------------
  free energy    TOTEN  =       -15.94552040 eV

  energy without entropy =      -15.94552040  energy(sigma->0) =      -15.94552040


--------------------------------------------------------------------------------------------------------




--------------------------------------- Iteration      1(   4)  ---------------------------------------


     EDDAV:  cpu time    2.0399: real time    2.0466
       DOS:  cpu time    0.0024: real time    0.0024
    --------------------------------------------
      LOOP:  cpu time    2.0423: real time    2.0489

 eigenvalue-minimisations  :  2582
 total energy-change (2. order) :-0.8321559E+00  (-0.8297408E+00)
 number of electron      20.0000000 magnetization 
 augmentation part       20.0000000 magnetization 

 Free energy of the ion-electron system (eV)
  ---------------------------------------------------
  alpha Z        PSCENC =         9.50421754
  Ewald energy   TEWEN  =      1152.71885526
  -Hartree energ DENC   =     -1754.61169093
  -exchange      EXHF   =         0.00000000
  -V(xc)+E(xc)   XCENC  =      -238.58756104
  PAW double counting   =       799.43158084     -524.17639913
  entropy T*S    EENTRO =        -0.00000000
  eigenvalues    EBANDS =      -163.48457598
  atomic energy  EATOM  =       702.42789710
  Solvation  Ediel_sol  =         0.00000000
  ---------------------------------------------------
  free energy    TOTEN  =       -16.77767633 eV

  energy without entropy =      -16.77767633  energy(sigma->0) =      -16.77767633


--------------------------------------------------------------------------------------------------------




--------------------------------------- Iteration      1(   5)  ---------------------------------------


     EDDAV:  cpu time    1.8196: real time    1.8257
       DOS:  cpu time    0.0023: real time    0.0023
    CHARGE:  cpu time    0.1442: real time    0.1446
    MIXING:  cpu time    0.0016: real time    0.0016
    --------------------------------------------
      LOOP:  cpu time    1.9677: real time    1.9742

 eigenvalue-minimisations  :  2350
 total energy-change (2. order) :-0.1883999E-01  (-0.1882198E-01)
 number of electron      20.0000000 magnetization 
 augmentation part       -4.5229552 magnetization 

 Broyden mixing:
  rms(total) = 0.45135E+00    rms(broyden)= 0.45135E+00
  rms(prec ) = 0.49192E+00
  weight for this iteration     100.00

 Free energy of the ion-electron system (eV)
  ---------------------------------------------------
  alpha Z        PSCENC =         9.50421754
  Ewald energy   TEWEN  =      1152.71885526
  -Hartree energ DENC   =     -1754.61169093
  -exchange      EXHF   =         0.00000000
  -V(xc)+E(xc)   XCENC  =      -238.58756104
  PAW double counting   =       799.43158084     -524.17639913
  entropy T*S    EENTRO =        -0.00000000
  eigenvalues    EBANDS =      -163.50341597
  atomic energy  EATOM  =       702.42789710
  Solvation  Ediel_sol  =         0.00000000
  ---------------------------------------------------
  free energy    TOTEN  =       -16.79651632 eV

  energy without entropy =      -16.79651632  energy(sigma->0) =      -16.79651632


--------------------------------------------------------------------------------------------------------




--------------------------------------- Iteration      1(   6)  ---------------------------------------


    POTLOK:  cpu time    0.0430: real time    0.0431
    SETDIJ:  cpu time    0.0037: real time    0.0037
     EDDAV:  cpu time    1.7707: real time    1.7765
       DOS:  cpu time    0.0023: real time    0.0023
    CHARGE:  cpu time    0.1440: real time    0.1443
    MIXING:  cpu time    0.0013: real time    0.0013
    --------------------------------------------
      LOOP:  cpu time    1.9651: real time    1.9713

 eigenvalue-minimisations  :  2238
 total energy-change (2. order) : 0.4908692E+00  (-0.1249150E+00)
 number of electron      20.0000000 magnetization 
 augmentation part       -4.4903622 magnetization 

 Broyden mixing:
  rms(total) = 0.27685E+00    rms(broyden)= 0.27685E+00
  rms(prec ) = 0.28602E+00
  weight for this iteration     100.00

 eigenvalues of (default mixing * dielectric matrix)
  average eigenvalue GAMMA=   1.8021
  1.8021

 Free energy of the ion-electron system (eV)
  ---------------------------------------------------
  alpha Z        PSCENC =         9.50421754
  Ewald energy   TEWEN  =      1152.71885526
  -Hartree energ DENC   =     -1762.49310444
  -exchange      EXHF   =         0.00000000
  -V(xc)+E(xc)   XCENC  =      -238.10456953
  PAW double counting   =       924.22866171     -649.15536179
  entropy T*S    EENTRO =        -0.00000000
  eigenvalues    EBANDS =      -155.43224296
  atomic energy  EATOM  =       702.42789710
  Solvation  Ediel_sol  =         0.00000000
  ---------------------------------------------------
  free energy    TOTEN  =       -16.30564709 eV

  energy without entropy =      -16.30564709  energy(sigma->0) =      -16.30564709


--------------------------------------------------------------------------------------------------------




--------------------------------------- Iteration      1(   7)  ---------------------------------------


    POTLOK:  cpu time    0.0425: real time    0.0426
    SETDIJ:  cpu time    0.0037: real time    0.0037
     EDDAV:  cpu time    1.8991: real time    1.9053
       DOS:  cpu time    0.0024: real time    0.0024
    CHARGE:  cpu time    0.1471: real time    0.1475
    MIXING:  cpu time    0.0016: real time    0.0016
    --------------------------------------------
      LOOP:  cpu time    2.0964: real time    2.1032

 eigenvalue-minimisations  :  2358
 total energy-change (2. order) : 0.2752693E-01  (-0.3159232E-01)
 number of electron      20.0000000 magnetization 
 augmentation part       -4.4821367 magnetization 

 Broyden mixing:
  rms(total) = 0.10472E+00    rms(broyden)= 0.10472E+00
  rms(prec ) = 0.11015E+00
  weight for this iteration     100.00

 eigenvalues of (default mixing * dielectric matrix)
  average eigenvalue GAMMA=   1.7319
  1.3741  2.0897

 Free energy of the ion-electron system (eV)
  ---------------------------------------------------
  alpha Z        PSCENC =         9.50421754
  Ewald energy   TEWEN  =      1152.71885526
  -Hartree energ DENC   =     -1767.52921504
  -exchange      EXHF   =         0.00000000
  -V(xc)+E(xc)   XCENC  =      -237.77967174
  PAW double counting   =      1065.47939143     -790.54485555
  entropy T*S    EENTRO =        -0.00000000
  eigenvalues    EBANDS =      -150.55473918
  atomic energy  EATOM  =       702.42789710
  Solvation  Ediel_sol  =         0.00000000
  ---------------------------------------------------
  free energy    TOTEN  =       -16.27812016 eV

  energy without entropy =      -16.27812016  energy(sigma->0) =      -16.27812016


--------------------------------------------------------------------------------------------------------




--------------------------------------- Iteration      1(   8)  ---------------------------------------


    POTLOK:  cpu time    0.0429: real time    0.0430
    SETDIJ:  cpu time    0.0038: real time    0.0038
     EDDAV:  cpu time    1.9272: real time    1.9337
       DOS:  cpu time    0.0025: real time    0.0025
    CHARGE:  cpu time    0.1455: real time    0.1457
    MIXING:  cpu time    0.0014: real time    0.0014
    --------------------------------------------
      LOOP:  cpu time    2.1232: real time    2.1301

 eigenvalue-minimisations  :  2520
 total energy-change (2. order) : 0.9661953E-02  (-0.3898658E-02)
 number of electron      20.0000000 magnetization 
 augmentation part       -4.4863506 magnetization 

 Broyden mixing:
  rms(total) = 0.20451E-01    rms(broyden)= 0.20451E-01
  rms(prec ) = 0.27889E-01
  weight for this iteration     100.00

 eigenvalues of (default mixing * dielectric matrix)
  average eigenvalue GAMMA=   1.7085
  2.5305  1.2975  1.2975

 Free energy of the ion-electron system (eV)
  ---------------------------------------------------
  alpha Z        PSCENC =         9.50421754
  Ewald energy   TEWEN  =      1152.71885526
  -Hartree energ DENC   =     -1769.22780535
  -exchange      EXHF   =         0.00000000
  -V(xc)+E(xc)   XCENC  =      -237.70139969
  PAW double counting   =      1131.23247995     -856.33644853
  entropy T*S    EENTRO =        -0.00000000
  eigenvalues    EBANDS =      -148.88625450
  atomic energy  EATOM  =       702.42789710
  Solvation  Ediel_sol  =         0.00000000
  ---------------------------------------------------
  free energy    TOTEN  =       -16.26845821 eV

  energy without entropy =      -16.26845821  energy(sigma->0) =      -16.26845821


--------------------------------------------------------------------------------------------------------




--------------------------------------- Iteration      1(   9)  ---------------------------------------


    POTLOK:  cpu time    0.0428: real time    0.0430
    SETDIJ:  cpu time    0.0037: real time    0.0038
     EDDAV:  cpu time    2.0381: real time    2.0446
       DOS:  cpu time    0.0024: real time    0.0024
    CHARGE:  cpu time    0.1452: real time    0.1454
    MIXING:  cpu time    0.0013: real time    0.0013
    --------------------------------------------
      LOOP:  cpu time    2.2335: real time    2.2406

 eigenvalue-minimisations  :  2434
 total energy-change (2. order) : 0.3752711E-02  (-0.6783834E-03)
 number of electron      20.0000000 magnetization 
 augmentation part       -4.4844238 magnetization 

 Broyden mixing:
  rms(total) = 0.10093E-01    rms(broyden)= 0.10093E-01
  rms(prec ) = 0.15657E-01
  weight for this iteration     100.00

 eigenvalues of (default mixing * dielectric matrix)
  average eigenvalue GAMMA=   1.7102
  2.2272  2.2272  1.1932  1.1932

 Free energy of the ion-electron system (eV)
  ---------------------------------------------------
  alpha Z        PSCENC =         9.50421754
  Ewald energy   TEWEN  =      1152.71885526
  -Hartree energ DENC   =     -1771.21717826
  -exchange      EXHF   =         0.00000000
  -V(xc)+E(xc)   XCENC  =      -237.62757215
  PAW double counting   =      1149.42066571     -874.53667865
  entropy T*S    EENTRO =        -0.00000000
  eigenvalues    EBANDS =      -146.95491205
  atomic energy  EATOM  =       702.42789710
  Solvation  Ediel_sol  =         0.00000000
  ---------------------------------------------------
  free energy    TOTEN  =       -16.26470550 eV

  energy without entropy =      -16.26470550  energy(sigma->0) =      -16.26470550


--------------------------------------------------------------------------------------------------------




--------------------------------------- Iteration      1(  10)  ---------------------------------------


    POTLOK:  cpu time    0.0428: real time    0.0430
    SETDIJ:  cpu time    0.0037: real time    0.0038
     EDDAV:  cpu time    1.8611: real time    1.8669
       DOS:  cpu time    0.0025: real time    0.0025
    CHARGE:  cpu time    0.1443: real time    0.1446
    MIXING:  cpu time    0.0015: real time    0.0015
    --------------------------------------------
      LOOP:  cpu time    2.0560: real time    2.0622

 eigenvalue-minimisations  :  2440
 total energy-change (2. order) : 0.1264066E-02  (-0.1221344E-03)
 number of electron      20.0000000 magnetization 
 augmentation part       -4.4831948 magnetization 

 Broyden mixing:
  rms(total) = 0.51651E-02    rms(broyden)= 0.51651E-02
  rms(prec ) = 0.94282E-02
  weight for this iteration     100.00

 eigenvalues of (default mixing * dielectric matrix)
  average eigenvalue GAMMA=   1.8656
  3.3420  2.6015  1.2395  1.2395  0.9055

 Free energy of the ion-electron system (eV)
  ---------------------------------------------------
  alpha Z        PSCENC =         9.50421754
  Ewald energy   TEWEN  =      1152.71885526
  -Hartree energ DENC   =     -1772.47280395
  -exchange      EXHF   =         0.00000000
  -V(xc)+E(xc)   XCENC  =      -237.61702878
  PAW double counting   =      1138.86250778     -863.96827933
  entropy T*S    EENTRO =        -0.00000000
  eigenvalues    EBANDS =      -145.71880707
  atomic energy  EATOM  =       702.42789710
  Solvation  Ediel_sol  =         0.00000000
  ---------------------------------------------------
  free energy    TOTEN  =       -16.26344143 eV

  energy without entropy =      -16.26344143  energy(sigma->0) =      -16.26344143


--------------------------------------------------------------------------------------------------------




--------------------------------------- Iteration      1(  11)  ---------------------------------------


    POTLOK:  cpu time    0.0431: real time    0.0434
    SETDIJ:  cpu time    0.0037: real time    0.0037
     EDDAV:  cpu time    1.9059: real time    1.9119
       DOS:  cpu time    0.0025: real time    0.0025
    CHARGE:  cpu time    0.1460: real time    0.1462
    MIXING:  cpu time    0.0014: real time    0.0014
    --------------------------------------------
      LOOP:  cpu time    2.1026: real time    2.1092

 eigenvalue-minimisations  :  2422
 total energy-change (2. order) : 0.7428119E-03  (-0.1282526E-03)
 number of electron      20.0000000 magnetization 
 augmentation part       -4.4817948 magnetization 

 Broyden mixing:
  rms(total) = 0.32901E-02    rms(broyden)= 0.32901E-02
  rms(prec ) = 0.50089E-02
  weight for this iteration     100.00

 eigenvalues of (default mixing * dielectric matrix)
  average eigenvalue GAMMA=   1.8333
  3.4053  2.3218  2.0061  1.1925  1.1925  0.8815

 Free energy of the ion-electron system (eV)
  ---------------------------------------------------
  alpha Z        PSCENC =         9.50421754
  Ewald energy   TEWEN  =      1152.71885526
  -Hartree energ DENC   =     -1774.08743687
  -exchange      EXHF   =         0.00000000
  -V(xc)+E(xc)   XCENC  =      -237.58511643
  PAW double counting   =      1140.36275050     -865.46754229
  entropy T*S    EENTRO =        -0.00000000
  eigenvalues    EBANDS =      -144.13632345
  atomic energy  EATOM  =       702.42789710
  Solvation  Ediel_sol  =         0.00000000
  ---------------------------------------------------
  free energy    TOTEN  =       -16.26269862 eV

  energy without entropy =      -16.26269862  energy(sigma->0) =      -16.26269862


--------------------------------------------------------------------------------------------------------




--------------------------------------- Iteration      1(  12)  ---------------------------------------


    POTLOK:  cpu time    0.0423: real time    0.0425
    SETDIJ:  cpu time    0.0037: real time    0.0036
     EDDAV:  cpu time    1.6680: real time    1.6736
       DOS:  cpu time    0.0024: real time    0.0024
    CHARGE:  cpu time    0.1475: real time    0.1478
    MIXING:  cpu time    0.0017: real time    0.0017
    --------------------------------------------
      LOOP:  cpu time    1.8656: real time    1.8716

 eigenvalue-minimisations  :  2032
 total energy-change (2. order) :-0.8191919E-03  (-0.3047872E-04)
 number of electron      20.0000000 magnetization 
 augmentation part       -4.4811556 magnetization 

 Broyden mixing:
  rms(total) = 0.18826E-02    rms(broyden)= 0.18826E-02
  rms(prec ) = 0.28658E-02
  weight for this iteration     100.00

 eigenvalues of (default mixing * dielectric matrix)
  average eigenvalue GAMMA=   2.0677
  4.6078  3.0800  2.5014  1.2070  1.2070  1.0286  0.8421

 Free energy of the ion-electron system (eV)
  ---------------------------------------------------
  alpha Z        PSCENC =         9.50421754
  Ewald energy   TEWEN  =      1152.71885526
  -Hartree energ DENC   =     -1774.72045768
  -exchange      EXHF   =         0.00000000
  -V(xc)+E(xc)   XCENC  =      -237.57549953
  PAW double counting   =      1142.20106727     -867.30858187
  entropy T*S    EENTRO =        -0.00000000
  eigenvalues    EBANDS =      -143.51101590
  atomic energy  EATOM  =       702.42789710
  Solvation  Ediel_sol  =         0.00000000
  ---------------------------------------------------
  free energy    TOTEN  =       -16.26351781 eV

  energy without entropy =      -16.26351781  energy(sigma->0) =      -16.26351781


--------------------------------------------------------------------------------------------------------




--------------------------------------- Iteration      1(  13)  ---------------------------------------


    POTLOK:  cpu time    0.0429: real time    0.0431
    SETDIJ:  cpu time    0.0036: real time    0.0036
     EDDAV:  cpu time    1.6895: real time    1.6950
       DOS:  cpu time    0.0025: real time    0.0025
    CHARGE:  cpu time    0.1449: real time    0.1451
    MIXING:  cpu time    0.0017: real time    0.0017
    --------------------------------------------
      LOOP:  cpu time    1.8850: real time    1.8910

 eigenvalue-minimisations  :  2086
 total energy-change (2. order) :-0.4358661E-03  (-0.8289306E-05)
 number of electron      20.0000000 magnetization 
 augmentation part       -4.4809558 magnetization 

 Broyden mixing:
  rms(total) = 0.11661E-02    rms(broyden)= 0.11661E-02
  rms(prec ) = 0.15378E-02
  weight for this iteration     100.00

 eigenvalues of (default mixing * dielectric matrix)
  average eigenvalue GAMMA=   2.2276
  5.5814  3.3029  2.4928  2.1500  1.1604  1.1604  1.0634  0.9095

 Free energy of the ion-electron system (eV)
  ---------------------------------------------------
  alpha Z        PSCENC =         9.50421754
  Ewald energy   TEWEN  =      1152.71885526
  -Hartree energ DENC   =     -1775.13450027
  -exchange      EXHF   =         0.00000000
  -V(xc)+E(xc)   XCENC  =      -237.57425804
  PAW double counting   =      1141.02446966     -866.13077247
  entropy T*S    EENTRO =        -0.00000000
  eigenvalues    EBANDS =      -143.09986245
  atomic energy  EATOM  =       702.42789710
  Solvation  Ediel_sol  =         0.00000000
  ---------------------------------------------------
  free energy    TOTEN  =       -16.26395368 eV

  energy without entropy =      -16.26395368  energy(sigma->0) =      -16.26395368


--------------------------------------------------------------------------------------------------------




--------------------------------------- Iteration      1(  14)  ---------------------------------------


    POTLOK:  cpu time    0.0450: real time    0.0452
    SETDIJ:  cpu time    0.0038: real time    0.0038
     EDDAV:  cpu time    1.7826: real time    1.7885
       DOS:  cpu time    0.0024: real time    0.0024
    CHARGE:  cpu time    0.1709: real time    0.1713
    MIXING:  cpu time    0.0017: real time    0.0017
    --------------------------------------------
      LOOP:  cpu time    2.0064: real time    2.0129

 eigenvalue-minimisations  :  2194
 total energy-change (2. order) :-0.2643342E-03  (-0.4181538E-05)
 number of electron      20.0000000 magnetization 
 augmentation part       -4.4809298 magnetization 

 Broyden mixing:
  rms(total) = 0.40025E-03    rms(broyden)= 0.40025E-03
  rms(prec ) = 0.62020E-03
  weight for this iteration     100.00

 eigenvalues of (default mixing * dielectric matrix)
  average eigenvalue GAMMA=   2.2428
  6.7354  3.0736  2.5341  2.5341  1.1873  1.1873  1.0388  0.9472  0.9472

 Free energy of the ion-electron system (eV)
  ---------------------------------------------------
  alpha Z        PSCENC =         9.50421754
  Ewald energy   TEWEN  =      1152.71885526
  -Hartree energ DENC   =     -1775.34220906
  -exchange      EXHF   =         0.00000000
  -V(xc)+E(xc)   XCENC  =      -237.57410869
  PAW double counting   =      1141.28688106     -866.39263183
  entropy T*S    EENTRO =        -0.00000000
  eigenvalues    EBANDS =      -142.89311939
  atomic energy  EATOM  =       702.42789710
  Solvation  Ediel_sol  =         0.00000000
  ---------------------------------------------------
  free energy    TOTEN  =       -16.26421801 eV

  energy without entropy =      -16.26421801  energy(sigma->0) =      -16.26421801


--------------------------------------------------------------------------------------------------------




--------------------------------------- Iteration      1(  15)  ---------------------------------------


    POTLOK:  cpu time    0.0448: real time    0.0450
    SETDIJ:  cpu time    0.0036: real time    0.0036
     EDDAV:  cpu time    1.7438: real time    1.7495
       DOS:  cpu time    0.0025: real time    0.0025
    CHARGE:  cpu time    0.1460: real time    0.1463
    MIXING:  cpu time    0.0018: real time    0.0018
    --------------------------------------------
      LOOP:  cpu time    1.9425: real time    1.9487

 eigenvalue-minimisations  :  2194
 total energy-change (2. order) :-0.5784473E-04  (-0.2090072E-06)
 number of electron      20.0000000 magnetization 
 augmentation part       -4.4809483 magnetization 

 Broyden mixing:
  rms(total) = 0.34343E-03    rms(broyden)= 0.34343E-03
  rms(prec ) = 0.51279E-03
  weight for this iteration     100.00

 eigenvalues of (default mixing * dielectric matrix)
  average eigenvalue GAMMA=   2.3544
  6.5398  4.2611  2.7060  2.7060  1.9705  1.1423  1.1423  1.2060  0.9348  0.9348

 Free energy of the ion-electron system (eV)
  ---------------------------------------------------
  alpha Z        PSCENC =         9.50421754
  Ewald energy   TEWEN  =      1152.71885526
  -Hartree energ DENC   =     -1775.35839028
  -exchange      EXHF   =         0.00000000
  -V(xc)+E(xc)   XCENC  =      -237.57450329
  PAW double counting   =      1141.09084930     -866.19644686
  entropy T*S    EENTRO =        -0.00000000
  eigenvalues    EBANDS =      -142.87675464
  atomic energy  EATOM  =       702.42789710
  Solvation  Ediel_sol  =         0.00000000
  ---------------------------------------------------
  free energy    TOTEN  =       -16.26427586 eV

  energy without entropy =      -16.26427585  energy(sigma->0) =      -16.26427586


--------------------------------------------------------------------------------------------------------




--------------------------------------- Iteration      1(  16)  ---------------------------------------


    POTLOK:  cpu time    0.0427: real time    0.0429
    SETDIJ:  cpu time    0.0036: real time    0.0036
     EDDAV:  cpu time    1.6071: real time    1.6122
       DOS:  cpu time    0.0024: real time    0.0024
    CHARGE:  cpu time    0.1455: real time    0.1457
    MIXING:  cpu time    0.0017: real time    0.0018
    --------------------------------------------
      LOOP:  cpu time    1.8031: real time    1.8087

 eigenvalue-minimisations  :  1986
 total energy-change (2. order) :-0.4647651E-04  (-0.8240534E-06)
 number of electron      20.0000000 magnetization 
 augmentation part       -4.4809610 magnetization 

 Broyden mixing:
  rms(total) = 0.12905E-03    rms(broyden)= 0.12905E-03
  rms(prec ) = 0.22885E-03
  weight for this iteration     100.00

 eigenvalues of (default mixing * dielectric matrix)
  average eigenvalue GAMMA=   2.2839
  6.8072  4.5136  2.6431  2.6431  2.2834  1.1579  1.1579  1.1804  0.9343  0.9343
  0.8673

 Free energy of the ion-electron system (eV)
  ---------------------------------------------------
  alpha Z        PSCENC =         9.50421754
  Ewald energy   TEWEN  =      1152.71885526
  -Hartree energ DENC   =     -1775.41010513
  -exchange      EXHF   =         0.00000000
  -V(xc)+E(xc)   XCENC  =      -237.57459468
  PAW double counting   =      1140.94320177     -866.04881022
  entropy T*S    EENTRO =        -0.00000000
  eigenvalues    EBANDS =      -142.82498399
  atomic energy  EATOM  =       702.42789710
  Solvation  Ediel_sol  =         0.00000000
  ---------------------------------------------------
  free energy    TOTEN  =       -16.26432233 eV

  energy without entropy =      -16.26432233  energy(sigma->0) =      -16.26432233


--------------------------------------------------------------------------------------------------------




--------------------------------------- Iteration      1(  17)  ---------------------------------------


    POTLOK:  cpu time    0.0431: real time    0.0432
    SETDIJ:  cpu time    0.0037: real time    0.0037
     EDDAV:  cpu time    1.5641: real time    1.5697
       DOS:  cpu time    0.0025: real time    0.0025
    CHARGE:  cpu time    0.1447: real time    0.1450
    MIXING:  cpu time    0.0019: real time    0.0019
    --------------------------------------------
      LOOP:  cpu time    1.7599: real time    1.7660

 eigenvalue-minimisations  :  1850
 total energy-change (2. order) :-0.2279997E-04  (-0.1238649E-06)
 number of electron      20.0000000 magnetization 
 augmentation part       -4.4809416 magnetization 

 Broyden mixing:
  rms(total) = 0.13139E-03    rms(broyden)= 0.13139E-03
  rms(prec ) = 0.19012E-03
  weight for this iteration     100.00

 eigenvalues of (default mixing * dielectric matrix)
  average eigenvalue GAMMA=   2.3973
  6.9230  5.2459  2.9559  2.9559  2.2327  2.1044  1.1577  1.1577  0.9272  0.9522
  1.0776  1.0776

 Free energy of the ion-electron system (eV)
  ---------------------------------------------------
  alpha Z        PSCENC =         9.50421754
  Ewald energy   TEWEN  =      1152.71885526
  -Hartree energ DENC   =     -1775.42579890
  -exchange      EXHF   =         0.00000000
  -V(xc)+E(xc)   XCENC  =      -237.57443120
  PAW double counting   =      1141.00684909     -866.11257291
  entropy T*S    EENTRO =        -0.00000000
  eigenvalues    EBANDS =      -142.80936112
  atomic energy  EATOM  =       702.42789710
  Solvation  Ediel_sol  =         0.00000000
  ---------------------------------------------------
  free energy    TOTEN  =       -16.26434513 eV

  energy without entropy =      -16.26434513  energy(sigma->0) =      -16.26434513


--------------------------------------------------------------------------------------------------------




--------------------------------------- Iteration      1(  18)  ---------------------------------------


    POTLOK:  cpu time    0.0430: real time    0.0432
    SETDIJ:  cpu time    0.0037: real time    0.0037
     EDDAV:  cpu time    1.6325: real time    1.6378
       DOS:  cpu time    0.0024: real time    0.0024
    CHARGE:  cpu time    0.1452: real time    0.1454
    MIXING:  cpu time    0.0019: real time    0.0019
    --------------------------------------------
      LOOP:  cpu time    1.8287: real time    1.8344

 eigenvalue-minimisations  :  2050
 total energy-change (2. order) :-0.3915916E-04  (-0.4127762E-06)
 number of electron      20.0000000 magnetization 
 augmentation part       -4.4809321 magnetization 

 Broyden mixing:
  rms(total) = 0.65286E-04    rms(broyden)= 0.65286E-04
  rms(prec ) = 0.78854E-04
  weight for this iteration     100.00

 eigenvalues of (default mixing * dielectric matrix)
  average eigenvalue GAMMA=   2.3382
  7.0758  5.4588  3.0063  2.8696  2.4595  2.0972  1.1622  1.1622  1.1702  1.0562
  0.9948  0.9948  0.8894

 Free energy of the ion-electron system (eV)
  ---------------------------------------------------
  alpha Z        PSCENC =         9.50421754
  Ewald energy   TEWEN  =      1152.71885526
  -Hartree energ DENC   =     -1775.44842692
  -exchange      EXHF   =         0.00000000
  -V(xc)+E(xc)   XCENC  =      -237.57444325
  PAW double counting   =      1140.99031487     -866.09600198
  entropy T*S    EENTRO =        -0.00000000
  eigenvalues    EBANDS =      -142.78679691
  atomic energy  EATOM  =       702.42789710
  Solvation  Ediel_sol  =         0.00000000
  ---------------------------------------------------
  free energy    TOTEN  =       -16.26438429 eV

  energy without entropy =      -16.26438429  energy(sigma->0) =      -16.26438429


--------------------------------------------------------------------------------------------------------




--------------------------------------- Iteration      1(  19)  ---------------------------------------


    POTLOK:  cpu time    0.0430: real time    0.0432
    SETDIJ:  cpu time    0.0037: real time    0.0037
     EDDAV:  cpu time    1.5624: real time    1.5673
       DOS:  cpu time    0.0025: real time    0.0025
    CHARGE:  cpu time    0.1914: real time    0.1918
    MIXING:  cpu time    0.0020: real time    0.0020
    --------------------------------------------
      LOOP:  cpu time    1.8049: real time    1.8105

 eigenvalue-minimisations  :  1922
 total energy-change (2. order) :-0.4747072E-05  (-0.1166228E-07)
 number of electron      20.0000000 magnetization 
 augmentation part       -4.4809377 magnetization 

 Broyden mixing:
  rms(total) = 0.38803E-04    rms(broyden)= 0.38803E-04
  rms(prec ) = 0.47926E-04
  weight for this iteration     100.00

 eigenvalues of (default mixing * dielectric matrix)
  average eigenvalue GAMMA=   2.5673
  7.4500  7.4500  3.8255  3.0504  2.3843  2.3843  1.9777  1.1600  1.1600  1.0856
  1.0856  0.9247  0.9522  1.0524

 Free energy of the ion-electron system (eV)
  ---------------------------------------------------
  alpha Z        PSCENC =         9.50421754
  Ewald energy   TEWEN  =      1152.71885526
  -Hartree energ DENC   =     -1775.44852364
  -exchange      EXHF   =         0.00000000
  -V(xc)+E(xc)   XCENC  =      -237.57445689
  PAW double counting   =      1141.03186391     -866.13757215
  entropy T*S    EENTRO =        -0.00000000
  eigenvalues    EBANDS =      -142.78667017
  atomic energy  EATOM  =       702.42789710
  Solvation  Ediel_sol  =         0.00000000
  ---------------------------------------------------
  free energy    TOTEN  =       -16.26438904 eV

  energy without entropy =      -16.26438904  energy(sigma->0) =      -16.26438904


--------------------------------------------------------------------------------------------------------




--------------------------------------- Iteration      1(  20)  ---------------------------------------


    POTLOK:  cpu time    0.0432: real time    0.0434
    SETDIJ:  cpu time    0.0037: real time    0.0037
     EDDAV:  cpu time    1.3415: real time    1.3458
       DOS:  cpu time    0.0025: real time    0.0025
    CHARGE:  cpu time    0.1456: real time    0.1459
    MIXING:  cpu time    0.0021: real time    0.0020
    --------------------------------------------
      LOOP:  cpu time    1.5386: real time    1.5433

 eigenvalue-minimisations  :  1532
 total energy-change (2. order) :-0.7015720E-05  (-0.3795189E-07)
 number of electron      20.0000000 magnetization 
 augmentation part       -4.4809402 magnetization 

 Broyden mixing:
  rms(total) = 0.18764E-04    rms(broyden)= 0.18764E-04
  rms(prec ) = 0.20914E-04
  weight for this iteration     100.00

 eigenvalues of (default mixing * dielectric matrix)
  average eigenvalue GAMMA=   2.5635
  7.8115  7.8115  4.0474  2.9944  2.3714  2.3714  2.1760  1.4740  1.1560  1.1560
  0.9117  1.0824  1.0096  1.0397  1.0397

 Free energy of the ion-electron system (eV)
  ---------------------------------------------------
  alpha Z        PSCENC =         9.50421754
  Ewald energy   TEWEN  =      1152.71885526
  -Hartree energ DENC   =     -1775.45230728
  -exchange      EXHF   =         0.00000000
  -V(xc)+E(xc)   XCENC  =      -237.57446415
  PAW double counting   =      1141.01806464     -866.12374742
  entropy T*S    EENTRO =        -0.00000000
  eigenvalues    EBANDS =      -142.78291175
  atomic energy  EATOM  =       702.42789710
  Solvation  Ediel_sol  =         0.00000000
  ---------------------------------------------------
  free energy    TOTEN  =       -16.26439605 eV

  energy without entropy =      -16.26439605  energy(sigma->0) =      -16.26439605


--------------------------------------------------------------------------------------------------------




--------------------------------------- Iteration      1(  21)  ---------------------------------------


    POTLOK:  cpu time    0.0433: real time    0.0435
    SETDIJ:  cpu time    0.0038: real time    0.0038
     EDDAV:  cpu time    1.5218: real time    1.5266
       DOS:  cpu time    0.0024: real time    0.0024
    --------------------------------------------
      LOOP:  cpu time    1.5712: real time    1.5763

 eigenvalue-minimisations  :  1814
 total energy-change (2. order) :-0.8247016E-06  (-0.4004118E-08)
 number of electron      20.0000000 magnetization 
 augmentation part       -4.4809402 magnetization 

 Free energy of the ion-electron system (eV)
  ---------------------------------------------------
  alpha Z        PSCENC =         9.50421754
  Ewald energy   TEWEN  =      1152.71885526
  -Hartree energ DENC   =     -1775.45377072
  -exchange      EXHF   =         0.00000000
  -V(xc)+E(xc)   XCENC  =      -237.57444150
  PAW double counting   =      1141.01666784     -866.12235011
  entropy T*S    EENTRO =        -0.00000000
  eigenvalues    EBANDS =      -142.78147230
  atomic energy  EATOM  =       702.42789710
  Solvation  Ediel_sol  =         0.00000000
  ---------------------------------------------------
  free energy    TOTEN  =       -16.26439688 eV

  energy without entropy =      -16.26439688  energy(sigma->0) =      -16.26439688


--------------------------------------------------------------------------------------------------------




 average (electrostatic) potential at core
  the test charge radii are     1.4072  1.0808
  (the norm of the test charge is              1.0000)
       1 -51.2573       2 -51.2573       3 -59.9439       4 -59.9439
 
 
 
 E-fermi :  -1.4985     XC(G=0):  -3.3391     alpha+bet : -2.6745


 k-point     1 :       0.0000    0.0000    0.0000
  band No.  band energies     occupation 
      1     -15.3158      2.00000
      2     -14.3227      2.00000
      3      -8.2570      2.00000
      4      -7.2798      2.00000
      5      -5.4185      2.00000
      6      -5.0718      2.00000
      7      -5.0304      2.00000
      8      -3.8444      2.00000
      9      -3.8377      2.00000
     10      -2.6130      2.00000
     11      -0.4694      0.00000
     12       1.3489      0.00000
     13       1.8042      0.00000
     14       1.9806      0.00000

 k-point     2 :       0.0667    0.0000    0.0000
  band No.  band energies     occupation 
      1     -15.2976      2.00000
      2     -14.3205      2.00000
      3      -8.3265      2.00000
      4      -7.3608      2.00000
      5      -5.4211      2.00000
      6      -5.0015      2.00000
      7      -4.9998      2.00000
      8      -3.8235      2.00000
      9      -3.7272      2.00000
     10      -2.6308      2.00000
     11      -0.4581      0.00000
     12       1.4000      0.00000
     13       1.6779      0.00000
     14       1.9152      0.00000

 k-point     3 :       0.1333    0.0000    0.0000
  band No.  band energies     occupation 
      1     -15.2440      2.00000
[...]

 k-point    45 :       0.2667    0.3333    0.0000
  band No.  band energies     occupation 
      1     -14.6794      2.00000
      2     -14.2788      2.00000
      3      -8.8469      2.00000
      4      -8.4885      2.00000
      5      -6.1731      2.00000
      6      -4.9558      2.00000
      7      -4.8336      2.00000
      8      -3.8662      2.00000
      9      -3.8055      2.00000
     10      -2.7146      2.00000
     11      -0.2227      0.00000
     12       0.7276      0.00000
     13       1.0614      0.00000
     14       1.5373      0.00000

 k-point    46 :       0.3333    0.3333    0.0000
  band No.  band energies     occupation 
      1     -14.5864      2.00000
      2     -14.2801      2.00000
      3      -8.7341      2.00000
      4      -8.4820      2.00000
      5      -6.3752      2.00000
      6      -5.1775      2.00000
      7      -5.0106      2.00000
      8      -4.0608      2.00000
      9      -3.9977      2.00000
     10      -3.0742      2.00000
     11       0.1756      0.00000
     12       1.1396      0.00000
     13       1.4782      0.00000
     14       1.7638      0.00000

 k-point    47 :       0.4000    0.3333    0.0000
  band No.  band energies     occupation 
      1     -14.4930      2.00000
      2     -14.3002      2.00000
      3      -8.6425      2.00000
      4      -8.4978      2.00000
      5      -6.4017      2.00000
      6      -5.5786      2.00000
      7      -5.0024      2.00000
      8      -4.3353      2.00000
      9      -3.9557      2.00000
     10      -3.3752      2.00000
     11       0.5332      0.00000
     12       1.3355      0.00000
     13       1.6018      0.00000
     14       2.3088      0.00000

 k-point    48 :       0.4667    0.3333    0.0000
  band No.  band energies     occupation 
      1     -14.4092      2.00000
      2     -14.3432      2.00000
      3      -8.5775      2.00000
      4      -8.5310      2.00000
      5      -6.2540      2.00000
      6      -5.9631      2.00000
      7      -4.8667      2.00000
      8      -4.6277      2.00000
      9      -3.8087      2.00000
     10      -3.6130      2.00000
     11       0.8456      0.00000
     12       1.1166      0.00000
     13       2.0172      0.00000
     14       2.3095      0.00000

 k-point    49 :       0.0000    0.4000    0.0000
  band No.  band energies     occupation 
      1     -14.7331      2.00000
      2     -14.3738      2.00000
      3      -9.2323      2.00000
      4      -8.8735      2.00000
      5      -4.7835      2.00000
      6      -4.2369      2.00000
      7      -4.0548      2.00000
      8      -3.5556      2.00000
      9      -2.8351      2.00000
     10      -2.0865      2.00000
     11      -1.0116      0.00000
     12      -0.0641      0.00000
     13       0.0444      0.00000
     14       0.3374      0.00000

 k-point    50 :       0.0667    0.4000    0.0000
  band No.  band energies     occupation 
      1     -14.7208      2.00000
      2     -14.3679      2.00000
      3      -9.2053      2.00000
      4      -8.8546      2.00000
      5      -4.7779      2.00000
      6      -4.5897      2.00000
      7      -3.9465      2.00000
      8      -3.7433      2.00000
      9      -2.6533      2.00000
     10      -2.3699      2.00000
     11      -0.7638      0.00000
     12      -0.3850      0.00000
     13       0.2282      0.00000
     14       0.3678      0.00000

 k-point    51 :       0.1333    0.4000    0.0000
  band No.  band energies     occupation 
      1     -14.6852      2.00000
      2     -14.3518      2.00000
      3      -9.1259      2.00000
      4      -8.7998      2.00000
      5      -5.1221      2.00000
      6      -4.7732      2.00000
      7      -4.1505      2.00000
      8      -3.9206      2.00000
      9      -2.9405      2.00000
     10      -2.4884      2.00000
     11      -0.6297      0.00000
     12      -0.1696      0.00000
     13       0.4859      0.00000
     14       0.7861      0.00000

 k-point    52 :       0.2000    0.4000    0.0000
  band No.  band energies     occupation 
      1     -14.6298      2.00000
      2     -14.3293      2.00000
      3      -8.9989      2.00000
      4      -8.7157      2.00000
      5      -5.6379      2.00000
      6      -4.8343      2.00000
      7      -4.5625      2.00000
      8      -3.9646      2.00000
      9      -3.5027      2.00000
     10      -2.7171      2.00000
     11      -0.3506      0.00000
     12       0.5583      0.00000
     13       0.7057      0.00000
     14       1.2187      0.00000

 k-point    53 :       0.2667    0.4000    0.0000
  band No.  band energies     occupation 
      1     -14.5605      2.00000
      2     -14.3067      2.00000
      3      -8.8351      2.00000
      4      -8.6134      2.00000
      5      -6.0737      2.00000
      6      -5.1201      2.00000
      7      -4.8321      2.00000
      8      -4.0982      2.00000
      9      -3.8684      2.00000
     10      -3.0924      2.00000
     11       0.1218      0.00000
     12       1.0703      0.00000
     13       1.1651      0.00000
     14       1.5780      0.00000

 k-point    54 :       0.3333    0.4000    0.0000
  band No.  band energies     occupation 
      1     -14.4853      2.00000
      2     -14.2916      2.00000
      3      -8.6553      2.00000
      4      -8.5091      2.00000
      5      -6.3888      2.00000
      6      -5.5149      2.00000
      7      -5.0710      2.00000
      8      -4.3552      2.00000
      9      -3.9625      2.00000
     10      -3.3776      2.00000
     11       0.5222      0.00000
     12       1.3296      0.00000
     13       1.5776      0.00000
     14       2.2335      0.00000

 k-point    55 :       0.4000    0.4000    0.0000
  band No.  band energies     occupation 
      1     -14.4132      2.00000
      2     -14.2914      2.00000
      3      -8.4948      2.00000
      4      -8.4229      2.00000
      5      -6.5441      2.00000
      6      -5.9278      2.00000
      7      -5.1982      2.00000
      8      -4.6814      2.00000
      9      -3.9100      2.00000
     10      -3.5549      2.00000
     11       0.8312      0.00000
     12       1.3314      0.00000
     13       2.0924      0.00000
     14       2.7209      0.00000

 k-point    56 :       0.4667    0.4000    0.0000
  band No.  band energies     occupation 
      1     -14.3529      2.00000
      2     -14.3114      2.00000
      3      -8.3959      2.00000
      4      -8.3770      2.00000
      5      -6.5073      2.00000
      6      -6.2842      2.00000
      7      -5.1597      2.00000
      8      -4.9733      2.00000
      9      -3.8069      2.00000
     10      -3.6876      2.00000
     11       1.0730      0.00000
     12       1.2430      0.00000
     13       2.4725      0.00000
     14       2.6986      0.00000

 k-point    57 :       0.0000    0.4667    0.0000
  band No.  band energies     occupation 
      1     -14.5890      2.00000
      2     -14.4654      2.00000
      3      -9.2170      2.00000
      4      -9.0937      2.00000
      5      -4.5393      2.00000
      6      -4.3208      2.00000
      7      -3.8585      2.00000
      8      -3.6643      2.00000
      9      -2.5646      2.00000
     10      -2.2242      2.00000
     11      -0.9019      0.00000
     12      -0.4648      0.00000
     13      -0.0731      0.00000
     14       0.1251      0.00000

 k-point    58 :       0.0667    0.4667    0.0000
  band No.  band energies     occupation 
      1     -14.5789      2.00000
      2     -14.4575      2.00000
      3      -9.1893      2.00000
      4      -9.0687      2.00000
      5      -4.5531      2.00000
      6      -4.4331      2.00000
      7      -4.0089      2.00000
      8      -3.8734      2.00000
      9      -2.4817      2.00000
     10      -2.3814      2.00000
     11      -0.8064      0.00000
     12      -0.6967      0.00000
     13       0.2856      0.00000
     14       0.5891      0.00000

 k-point    59 :       0.1333    0.4667    0.0000
  band No.  band energies     occupation 
      1     -14.5498      2.00000
      2     -14.4352      2.00000
      3      -9.1072      2.00000
      4      -8.9952      2.00000
      5      -4.8442      2.00000
      6      -4.6618      2.00000
      7      -4.2444      2.00000
      8      -4.1253      2.00000
      9      -2.8488      2.00000
     10      -2.6418      2.00000
     11      -0.5545      0.00000
     12      -0.3206      0.00000
     13       0.7856      0.00000
     14       0.8845      0.00000

 k-point    60 :       0.2000    0.4667    0.0000
  band No.  band energies     occupation 
      1     -14.5054      2.00000
      2     -14.4022      2.00000
      3      -8.9745      2.00000
      4      -8.8775      2.00000
      5      -5.3571      2.00000
      6      -5.0339      2.00000
      7      -4.4362      2.00000
      8      -4.2019      2.00000
      9      -3.3626      2.00000
     10      -3.0647      2.00000
     11      -0.0293      0.00000
     12       0.3302      0.00000
     13       1.0093      0.00000
     14       1.2345      0.00000

 k-point    61 :       0.2667    0.4667    0.0000
  band No.  band energies     occupation 
      1     -14.4518      2.00000
      2     -14.3647      2.00000
      3      -8.7996      2.00000
      4      -8.7244      2.00000
      5      -5.8318      2.00000
      6      -5.4909      2.00000
      7      -4.6333      2.00000
      8      -4.3709      2.00000
      9      -3.7030      2.00000
     10      -3.4313      2.00000
     11       0.4843      0.00000
     12       0.8425      0.00000
     13       1.4122      0.00000
     14       1.6581      0.00000

 k-point    62 :       0.3333    0.4667    0.0000
  band No.  band energies     occupation 
      1     -14.3966      2.00000
      2     -14.3303      2.00000
      3      -8.5991      2.00000
      4      -8.5517      2.00000
      5      -6.2200      2.00000
      6      -5.9081      2.00000
      7      -4.9330      2.00000
      8      -4.6734      2.00000
      9      -3.8109      2.00000
     10      -3.6135      2.00000
     11       0.8314      0.00000
     12       1.1048      0.00000
     13       1.9689      0.00000
     14       2.2397      0.00000

 k-point    63 :       0.4000    0.4667    0.0000
  band No.  band energies     occupation 
      1     -14.3483      2.00000
      2     -14.3067      2.00000
      3      -8.4071      2.00000
      4      -8.3877      2.00000
      5      -6.4873      2.00000
      6      -6.2570      2.00000
      7      -5.1896      2.00000
      8      -4.9957      2.00000
      9      -3.8049      2.00000
     10      -3.6852      2.00000
     11       1.0682      0.00000
     12       1.2385      0.00000
     13       2.4606      0.00000
     14       2.6882      0.00000

 k-point    64 :       0.4667    0.4667    0.0000
  band No.  band energies     occupation 
      1     -14.3146      2.00000
      2     -14.3004      2.00000
      3      -8.2820      2.00000
      4      -8.2791      2.00000
      5      -6.5919      2.00000
      6      -6.5045      2.00000
      7      -5.2960      2.00000
      8      -5.2239      2.00000
      9      -3.7674      2.00000
     10      -3.7270      2.00000
     11       1.2219      0.00000
     12       1.2799      0.00000
     13       2.6916      0.00000
     14       2.7978      0.00000


--------------------------------------------------------------------------------------------------------


 soft charge-density along one line, spin component           1
         0         1         2         3         4         5         6         7         8         9
 total charge-density along one line
 
 pseudopotential strength for first ion, spin component:           1
 30.085 -23.436   0.000  -0.089   0.035   0.000  -0.141   0.055
-23.436  28.117  -0.000   0.051  -0.019  -0.000   0.082  -0.031
  0.000  -0.000   6.332  -0.000  -0.000   9.795  -0.000  -0.000
 -0.089   0.051  -0.000   6.329   0.002  -0.000   9.791   0.003
  0.035  -0.019  -0.000   0.002   6.331  -0.000   0.003   9.795
  0.000  -0.000   9.795  -0.000  -0.000  15.225  -0.000  -0.000
 -0.141   0.082  -0.000   9.791   0.003  -0.000  15.218   0.004
  0.055  -0.031  -0.000   0.003   9.795  -0.000   0.004  15.224
 -0.000   0.000   0.007  -0.000   0.000   0.011  -0.000   0.000
 -0.000   0.000  -0.020   0.000  -0.000  -0.031   0.000  -0.000
 -0.003   0.003  -0.000  -0.023  -0.004  -0.000  -0.035  -0.006
  0.003  -0.002  -0.000   0.008  -0.020  -0.000   0.013  -0.031
 -0.000   0.000  -0.000  -0.000   0.008  -0.000  -0.000   0.013
 total augmentation occupancy for first ion, spin component:           1
  2.025  -0.015   0.000   0.238  -0.087   0.000  -0.042   0.016   0.000   0.000   0.023   0.002  -0.000
 -0.015   0.009   0.000  -0.073   0.027  -0.000   0.018  -0.006   0.000   0.000  -0.002   0.001  -0.000
  0.000   0.000   1.508   0.000   0.000  -0.406   0.000   0.000   0.123  -0.043  -0.000   0.000   0.000
  0.238  -0.073   0.000   1.840   0.000   0.000  -0.486  -0.014   0.000   0.000  -0.267  -0.018  -0.000
 -0.087   0.027   0.000   0.000   1.491   0.000  -0.015  -0.395   0.000  -0.000  -0.079  -0.045  -0.006
  0.000   0.000  -0.406   0.000   0.000   0.118   0.000  -0.000  -0.033   0.012   0.000   0.000   0.000
 -0.042   0.018   0.000  -0.486  -0.015   0.000   0.140   0.007   0.000   0.000   0.074   0.005   0.000
  0.016  -0.006   0.000  -0.014  -0.395  -0.000   0.007   0.113   0.000   0.000   0.021   0.012   0.002
  0.000   0.000   0.123  -0.000  -0.000  -0.033   0.000   0.000   0.076   0.000  -0.000  -0.000   0.000
 -0.000   0.000  -0.043   0.000   0.000   0.012   0.000   0.000   0.000   0.021   0.000   0.000   0.000
  0.023  -0.002  -0.000  -0.267  -0.079  -0.000   0.074   0.021   0.000   0.000   0.078   0.006   0.002
  0.002   0.001   0.000  -0.018  -0.045   0.000   0.005   0.012   0.000   0.000   0.006   0.022   0.001
 -0.000  -0.000  -0.000  -0.000  -0.006  -0.000   0.000   0.002   0.000   0.000   0.002   0.001   0.017


------------------------ aborting loop because EDIFF is reached ----------------------------------------


    CHARGE:  cpu time    0.1725: real time    0.1729
    FORLOC:  cpu time    0.0024: real time    0.0024
    FORNL :  cpu time    0.2477: real time    0.2480
    STRESS:  cpu time    0.4178: real time    0.4189
    FORCOR:  cpu time    0.0451: real time    0.0465
    FORHAR:  cpu time    0.0117: real time    0.0117
    MIXING:  cpu time    0.0021: real time    0.0021
    OFIELD:  cpu time    0.0000: real time    0.0000

  FORCE on cell =-STRESS in cart. coord.  units (eV):
  Direction    XX          YY          ZZ          XY          YZ          ZX
  --------------------------------------------------------------------------------------
  Alpha Z     9.50422     9.50422     9.50422
  Ewald    1606.13909  1610.59190 -2064.01218     0.00000    -0.00000     0.00000
  Hartree  1727.11080  1728.75782 -1680.41499     0.00000    -0.00000     0.00000
  E(xc)     -77.66415   -77.67728   -78.88706     0.00000     0.00000     0.00000
  Local   -3585.98252 -3591.51394  3489.60068    -0.00000    -0.00000     0.00000
  n-local   162.51606   162.70235   167.20942    -0.40116    -0.00000     0.00000
  augment   -31.87674   -31.81965   -32.80217    -0.00000     0.00000     0.00000
  Kinetic   190.25120   189.45475   189.79879     5.52678    -0.00000    -0.00000
  Fock        0.00000     0.00000     0.00000     0.00000     0.00000     0.00000
  -------------------------------------------------------------------------------------
  Total      -0.00204     0.00018    -0.00329     0.00000     0.00000     0.00000
  in kB      -0.00868     0.00075    -0.01403     0.00000     0.00000     0.00000
  external pressure =       -0.01 kB  Pullay stress =        0.00 kB


 VOLUME and BASIS-vectors are now :
 -----------------------------------------------------------------------------
  energy-cutoff  :      600.00
  volume of cell :      376.22
      direct lattice vectors                 reciprocal lattice vectors
     4.382356765  0.000000000  0.000000000     0.228187720  0.000000000  0.000000000
     0.000000000  4.292477857  0.000000000     0.000000000  0.232965675  0.000000000
     0.000000000  0.000000000 20.000000000     0.000000000  0.000000000  0.050000000

  length of vectors
     4.382356765  4.292477857 20.000000000     0.228187720  0.232965675  0.050000000


 FORCES acting on ions
    electron-ion (+dipol)            ewald-force                    non-local-force                 convergence-correction
 -----------------------------------------------------------------------------------------------
   0.423E+01 -.811E-13 -.144E+03   -.572E+01 0.325E-15 0.148E+03   0.149E+01 0.278E-16 -.381E+01   -.331E-05 -.286E-15 0.166E-04
   0.423E+01 -.836E-13 0.144E+03   -.572E+01 0.159E-14 -.148E+03   0.149E+01 0.278E-16 0.381E+01   -.331E-05 0.395E-15 -.166E-04
   -.528E+01 0.828E-15 -.206E+03   0.572E+01 -.222E-14 0.208E+03   -.445E+00 0.000E+00 -.204E+01   0.217E-04 -.275E-14 0.519E-04
   -.528E+01 -.148E-12 0.206E+03   0.572E+01 -.578E-15 -.208E+03   -.445E+00 0.000E+00 0.204E+01   0.217E-04 -.433E-14 -.519E-04
 -----------------------------------------------------------------------------------------------
   -.209E+01 -.312E-12 -.765E-06   -.888E-14 -.884E-15 -.284E-13   0.209E+01 0.555E-16 0.000E+00   0.367E-04 -.698E-14 -.163E-10
 
 
 POSITION                                       TOTAL-FORCE (eV/Angst)
 -----------------------------------------------------------------------------------
      2.54722      3.21936     11.37486        -0.000497     -0.000000     -0.000335
      0.35604      1.07312      8.62514        -0.000497     -0.000000      0.000335
      0.14401      1.07312     11.34148         0.000497      0.000000     -0.000495
      2.33519      3.21936      8.65852         0.000497      0.000000      0.000495
 -----------------------------------------------------------------------------------
    total drift:                               -0.000225     -0.000000     -0.000001


--------------------------------------------------------------------------------------------------------



  FREE ENERGIE OF THE ION-ELECTRON SYSTEM (eV)
  ---------------------------------------------------
  free  energy   TOTEN  =       -16.26439688 eV

  energy  without entropy=      -16.26439688  energy(sigma->0) =      -16.26439688
 


--------------------------------------------------------------------------------------------------------


    POTLOK:  cpu time    0.0472: real time    0.0475


--------------------------------------------------------------------------------------------------------




--------------------------------------------------------------------------------------------------------


  
 reached required accuracy - stopping structural energy minimisation
 writing wavefunctions
     LOOP+:  cpu time   43.5694: real time   44.4241
    4ORBIT:  cpu time    0.0000: real time    0.0000

 total amount of memory used by VASP MPI-rank0    52047. kBytes
=======================================================================

   base      :      30000. kBytes
   nonl-proj :       7156. kBytes
   fftplans  :       2678. kBytes
   grid      :       4349. kBytes
   one-center:          8. kBytes
   wavefun   :       7856. kBytes
 
  
  
 General timing and accounting informations for this job:
 ========================================================
  
                  Total CPU time used (sec):       47.776
                            User time (sec):       47.137
                          System time (sec):        0.639
                         Elapsed time (sec):       52.321
  
                   Maximum memory used (kb):      220568.
                   Average memory used (kb):           0.
  
                          Minor page faults:        42324
                          Major page faults:           86
                 Voluntary context switches:         7427
