Automatically generated mesh
      25
Reciprocal lattice
    0.00000000000000    0.00000000000000    0.00000000000000             1
    0.20000000000000    0.00000000000001    0.00000000000000             1
    0.40000000000000    0.00000000000001    0.00000000000000             1
   -0.40000000000000    0.00000000000000    0.00000000000000             1
   -0.20000000000000    0.00000000000000    0.00000000000000             1
    0.00000000000000    0.20000000000000    0.00000000000000             1
    0.20000000000000    0.20000000000001    0.00000000000000             1
    0.40000000000000    0.20000000000001    0.00000000000000             1
   -0.40000000000000    0.20000000000000    0.00000000000000             1
   -0.20000000000000    0.20000000000000    0.00000000000000             1
    0.00000000000000    0.40000000000000    0.00000000000000             1
    0.20000000000000    0.40000000000001    0.00000000000000             1
    0.40000000000000    0.40000000000001    0.00000000000000             1
   -0.40000000000000    0.40000000000000    0.00000000000000             1
   -0.20000000000000    0.40000000000000    0.00000000000000             1
    0.00000000000000   -0.40000000000000    0.00000000000000             1
    0.20000000000000   -0.39999999999999    0.00000000000000             1
    0.40000000000000   -0.39999999999999    0.00000000000000             1
   -0.40000000000000   -0.40000000000000    0.00000000000000             1
   -0.20000000000000   -0.40000000000000    0.00000000000000             1
    0.00000000000000   -0.20000000000000    0.00000000000000             1
    0.20000000000000   -0.19999999999999    0.00000000000000             1
    0.40000000000000   -0.19999999999999    0.00000000000000             1
   -0.40000000000000   -0.20000000000000    0.00000000000000             1
   -0.20000000000000   -0.20000000000000    0.00000000000000             1
