 vasp.5.4.4.18Apr17-6-g9f103f2a35 (build Sep 16 2021 13:51:27) complex          
  
 executed on             LinuxIFC date 2023.03.16  12:57:39
 running on   24 total cores
 distrk:  each k-point on   24 cores,    1 groups
 distr:  one band on NCORES_PER_BAND=  24 cores,    1 groups


--------------------------------------------------------------------------------------------------------


 INCAR:
 POTCAR:    PAW_PBE Sn 08Apr2002                  
 POTCAR:    PAW_PBE Se 06Sep2000                  

 ----------------------------------------------------------------------------- 
|                                                                             |
|           W    W    AA    RRRRR   N    N  II  N    N   GGGG   !!!           |
|           W    W   A  A   R    R  NN   N  II  NN   N  G    G  !!!           |
|           W    W  A    A  R    R  N N  N  II  N N  N  G       !!!           |
|           W WW W  AAAAAA  RRRRR   N  N N  II  N  N N  G  GGG   !            |
|           WW  WW  A    A  R   R   N   NN  II  N   NN  G    G                |
|           W    W  A    A  R    R  N    N  II  N    N   GGGG   !!!           |
|                                                                             |
|      For optimal performance we recommend to set                            |
|        NCORE= 4 - approx SQRT( number of cores)                             |
|      NCORE specifies how many cores store one orbital (NPAR=cpu/NCORE).     |
|      This setting can  greatly improve the performance of VASP for DFT.     |
|      The default,   NCORE=1            might be grossly inefficient         |
|      on modern multi-core architectures or massively parallel machines.     |
|      Do your own testing !!!!                                               |
|      Unfortunately you need to use the default for GW and RPA calculations. |
|      (for HF NCORE is supported but not extensively tested yet)             |
|                                                                             |
 ----------------------------------------------------------------------------- 

 POTCAR:    PAW_PBE Sn 08Apr2002                  
   VRHFIN =Sn: s2p2                                                             
   LEXCH  = PE                                                                  
   EATOM  =    94.0860 eV,    6.9151 Ry                                         
                                                                                
   TITEL  = PAW_PBE Sn 08Apr2002                                                
   LULTRA =        F    use ultrasoft PP ?                                      
   IUNSCR =        1    unscreen: 0-lin 1-nonlin 2-no                           
   RPACOR =    2.000    partial core radius                                     
   POMASS =  118.710; ZVAL   =    4.000    mass and valenz                      
   RCORE  =    3.000    outmost cutoff radius                                   
   RWIGS  =    2.960; RWIGS  =    1.566    wigner-seitz radius (au A)           
   ENMAX  =  103.236; ENMIN  =   77.427 eV                                      
   ICORE  =        3    local potential                                         
   LCOR   =        T    correct aug charges                                     
   LPAW   =        T    paw PP                                                  
   EAUG   =  263.585                                                            
   DEXC   =    0.000                                                            
   RMAX   =    3.078    core radius for proj-oper                               
   RAUG   =    1.300    factor for augmentation sphere                          
   RDEP   =    3.022    radius for radial grids                                 
   RDEPT  =    2.655    core radius for aug-charge                              
                                                                                
   Atomic configuration                                                         
   13 entries                                                                   
     n  l   j            E        occ.                                          
     1  0  0.50    -29007.2859   2.0000                                         
     2  0  0.50     -4378.8056   2.0000                                         
     2  1  1.50     -3930.4293   6.0000                                         
     3  0  0.50      -845.0264   2.0000                                         
     3  1  1.50      -698.5725   6.0000                                         
     3  2  2.50      -473.2839  10.0000                                         
     4  0  0.50      -133.9036   2.0000                                         
     4  1  1.50       -89.6752   6.0000                                         
     4  2  2.50       -25.8375  10.0000                                         
     5  0  0.50       -10.5484   2.0000                                         
     5  1  0.50        -3.6940   2.0000                                         
     5  2  1.50        -1.3606   0.0000                                         
     4  3  2.50        -4.0817   0.0000                                         
   Description                                                                  
     l       E           TYP  RCUT    TYP  RCUT                                 
     0    -10.5483727     23  3.000                                             
     0     27.2116520     23  3.000                                             
     1     -3.6939829     23  3.000                                             
     1      1.9821976     23  3.000                                             
     2     -1.3605826     23  3.000                                             
     3     -2.7211652     23  3.000                                             
  local pseudopotential read in
  partial core-charges read in
  partial kinetic energy density read in
  atomic valenz-charges read in
  non local Contribution for L=           0  read in
    real space projection operators read in
  non local Contribution for L=           0  read in
    real space projection operators read in
  non local Contribution for L=           1  read in
    real space projection operators read in
  non local Contribution for L=           1  read in
    real space projection operators read in
  non local Contribution for L=           2  read in
    real space projection operators read in
    PAW grid and wavefunctions read in
 
   number of l-projection  operators is LMAX  =           5
   number of lm-projection operators is LMMAX =          13
 
 POTCAR:    PAW_PBE Se 06Sep2000                  
   VRHFIN =Se: s2p4                                                             
   LEXCH  = PE                                                                  
   EATOM  =   257.1286 eV,   18.8984 Ry                                         
                                                                                
   TITEL  = PAW_PBE Se 06Sep2000                                                
   LULTRA =        F    use ultrasoft PP ?                                      
   IUNSCR =        1    unscreen: 0-lin 1-nonlin 2-no                           
   RPACOR =    1.900    partial core radius                                     
   POMASS =   78.960; ZVAL   =    6.000    mass and valenz                      
   RCORE  =    2.100    outmost cutoff radius                                   
   RWIGS  =    2.200; RWIGS  =    1.164    wigner-seitz radius (au A)           
   ENMAX  =  211.555; ENMIN  =  158.666 eV                                      
   ICORE  =        3    local potential                                         
   LCOR   =        T    correct aug charges                                     
   LPAW   =        T    paw PP                                                  
   EAUG   =  446.842                                                            
   DEXC   =    0.000                                                            
   RMAX   =    2.147    core radius for proj-oper                               
   RAUG   =    1.300    factor for augmentation sphere                          
   RDEP   =    2.177    radius for radial grids                                 
   RDEPT  =    1.928    core radius for aug-charge                              
                                                                                
   Atomic configuration                                                         
   10 entries                                                                   
     n  l   j            E        occ.                                          
     1  0  0.50    -12503.4787   2.0000                                         
     2  0  0.50     -1606.9547   2.0000                                         
     2  1  1.50     -1413.3140   6.0000                                         
     3  0  0.50      -213.4885   2.0000                                         
     3  1  1.50      -152.9538   6.0000                                         
     3  2  2.50       -53.1221  10.0000                                         
     4  0  0.50       -17.2865   2.0000                                         
     4  1  0.50        -6.5110   4.0000                                         
     4  2  2.50        -6.8029   0.0000                                         
     4  3  2.50        -6.8029   0.0000                                         
   Description                                                                  
     l       E           TYP  RCUT    TYP  RCUT                                 
     0    -17.2865377     23  2.100                                             
     0    -15.3094411     23  2.100                                             
     1     -6.5110275     23  2.100                                             
     1     -0.0695192     23  2.100                                             
     2     -6.8029130     23  2.100                                             
     3     -1.3605826      7  2.100                                             
  local pseudopotential read in
  partial core-charges read in
  partial kinetic energy density read in
  atomic valenz-charges read in
  non local Contribution for L=           0  read in
    real space projection operators read in
  non local Contribution for L=           0  read in
    real space projection operators read in
  non local Contribution for L=           1  read in
    real space projection operators read in
  non local Contribution for L=           1  read in
    real space projection operators read in
  non local Contribution for L=           2  read in
    real space projection operators read in
    PAW grid and wavefunctions read in
 
   number of l-projection  operators is LMAX  =           5
   number of lm-projection operators is LMMAX =          13
 
 WARNING: PSMAXN for non-local potential too small
          PSMAXN should be >   12.5490833729506       NTYP=           1
  PAW_PBE Sn 08Apr2002                  :
 energy of atom  1       EATOM=  -94.0860
 kinetic energy error for atom=    0.0000 (will be added to EATOM!!)
  PAW_PBE Se 06Sep2000                  :
 energy of atom  2       EATOM= -257.1286
 kinetic energy error for atom=    0.0006 (will be added to EATOM!!)
 
 
 POSCAR:  POSCAR with strain of -0.010           
  positions in direct lattice
  No initial velocities read in
 exchange correlation table for  LEXCH =        8
   RHO(1)=    0.500       N(1)  =     2000
   RHO(2)=  100.500       N(2)  =     4000
 


--------------------------------------------------------------------------------------------------------


 ion  position               nearest neighbor table
   1  0.581  0.750  0.569-   4 2.72   3 2.90   3 2.90   3 3.21   3 3.21
   2  0.081  0.250  0.431-   3 2.72   4 2.90   4 2.90   4 3.21   4 3.21
   3  0.033  0.250  0.567-   2 2.72   1 2.90   1 2.90   1 3.21   1 3.21
   4  0.533  0.750  0.433-   1 2.72   2 2.90   2 2.90   2 3.21   2 3.21
 

IMPORTANT INFORMATION: All symmetrisations will be switched off!
NOSYMM: (Re-)initialisation of all symmetry stuff for point group C_1.

 
 
 KPOINTS: KMesh Grid                              

Automatic generation of k-mesh.
Space group operators:
 irot       det(A)        alpha          n_x          n_y          n_z        tau_x        tau_y        tau_z
    1     1.000000     0.000000     1.000000     0.000000     0.000000     0.000000     0.000000     0.000000
 
 Subroutine IBZKPT returns following result:
 ===========================================
 
 Found    113 irreducible k-points:
 
 Following reciprocal coordinates:
            Coordinates               Weight
  0.000000  0.000000  0.000000      1.000000
  0.066667  0.000000  0.000000      2.000000
  0.133333  0.000000  0.000000      2.000000
  0.200000  0.000000  0.000000      2.000000
  0.266667  0.000000  0.000000      2.000000
  0.333333  0.000000  0.000000      2.000000
  0.400000  0.000000  0.000000      2.000000
  0.466667  0.000000  0.000000      2.000000
  0.000000  0.066667  0.000000      2.000000
  0.066667  0.066667  0.000000      2.000000
  0.133333  0.066667  0.000000      2.000000
  0.200000  0.066667  0.000000      2.000000
  0.266667  0.066667  0.000000      2.000000
  0.333333  0.066667  0.000000      2.000000
  0.400000  0.066667  0.000000      2.000000
  0.466667  0.066667  0.000000      2.000000
 -0.466667  0.066667  0.000000      2.000000
 -0.400000  0.066667  0.000000      2.000000
 -0.333333  0.066667  0.000000      2.000000
 -0.266667  0.066667  0.000000      2.000000
 -0.200000  0.066667  0.000000      2.000000
 -0.133333  0.066667  0.000000      2.000000
 -0.066667  0.066667  0.000000      2.000000
  0.000000  0.133333  0.000000      2.000000
  0.066667  0.133333  0.000000      2.000000
  0.133333  0.133333  0.000000      2.000000
  0.200000  0.133333  0.000000      2.000000
  0.266667  0.133333  0.000000      2.000000
  0.333333  0.133333  0.000000      2.000000
  0.400000  0.133333  0.000000      2.000000
  0.466667  0.133333  0.000000      2.000000
 -0.466667  0.133333  0.000000      2.000000
 -0.400000  0.133333  0.000000      2.000000
 -0.333333  0.133333  0.000000      2.000000
 -0.266667  0.133333  0.000000      2.000000
 -0.200000  0.133333  0.000000      2.000000
 -0.133333  0.133333  0.000000      2.000000
 -0.066667  0.133333  0.000000      2.000000
  0.000000  0.200000  0.000000      2.000000
  0.066667  0.200000  0.000000      2.000000
  0.133333  0.200000  0.000000      2.000000
  0.200000  0.200000  0.000000      2.000000
  0.266667  0.200000  0.000000      2.000000
  0.333333  0.200000  0.000000      2.000000
  0.400000  0.200000  0.000000      2.000000
  0.466667  0.200000  0.000000      2.000000
 -0.466667  0.200000  0.000000      2.000000
 -0.400000  0.200000  0.000000      2.000000
 -0.333333  0.200000  0.000000      2.000000
 -0.266667  0.200000  0.000000      2.000000
 -0.200000  0.200000  0.000000      2.000000
 -0.133333  0.200000  0.000000      2.000000
 -0.066667  0.200000  0.000000      2.000000
  0.000000  0.266667  0.000000      2.000000
  0.066667  0.266667  0.000000      2.000000
  0.133333  0.266667  0.000000      2.000000
  0.200000  0.266667  0.000000      2.000000
  0.266667  0.266667  0.000000      2.000000
  0.333333  0.266667  0.000000      2.000000
  0.400000  0.266667  0.000000      2.000000
  0.466667  0.266667  0.000000      2.000000
 -0.466667  0.266667  0.000000      2.000000
 -0.400000  0.266667  0.000000      2.000000
 -0.333333  0.266667  0.000000      2.000000
 -0.266667  0.266667  0.000000      2.000000
 -0.200000  0.266667  0.000000      2.000000
 -0.133333  0.266667  0.000000      2.000000
 -0.066667  0.266667  0.000000      2.000000
  0.000000  0.333333  0.000000      2.000000
  0.066667  0.333333  0.000000      2.000000
  0.133333  0.333333  0.000000      2.000000
  0.200000  0.333333  0.000000      2.000000
  0.266667  0.333333  0.000000      2.000000
  0.333333  0.333333  0.000000      2.000000
  0.400000  0.333333  0.000000      2.000000
  0.466667  0.333333  0.000000      2.000000
 -0.466667  0.333333  0.000000      2.000000
 -0.400000  0.333333  0.000000      2.000000
 -0.333333  0.333333  0.000000      2.000000
 -0.266667  0.333333  0.000000      2.000000
 -0.200000  0.333333  0.000000      2.000000
 -0.133333  0.333333  0.000000      2.000000
 -0.066667  0.333333  0.000000      2.000000
  0.000000  0.400000  0.000000      2.000000
  0.066667  0.400000  0.000000      2.000000
  0.133333  0.400000  0.000000      2.000000
  0.200000  0.400000  0.000000      2.000000
  0.266667  0.400000  0.000000      2.000000
  0.333333  0.400000  0.000000      2.000000
  0.400000  0.400000  0.000000      2.000000
  0.466667  0.400000  0.000000      2.000000
 -0.466667  0.400000  0.000000      2.000000
 -0.400000  0.400000  0.000000      2.000000
 -0.333333  0.400000  0.000000      2.000000
 -0.266667  0.400000  0.000000      2.000000
 -0.200000  0.400000  0.000000      2.000000
 -0.133333  0.400000  0.000000      2.000000
 -0.066667  0.400000  0.000000      2.000000
  0.000000  0.466667  0.000000      2.000000
  0.066667  0.466667  0.000000      2.000000
  0.133333  0.466667  0.000000      2.000000
  0.200000  0.466667  0.000000      2.000000
  0.266667  0.466667  0.000000      2.000000
  0.333333  0.466667  0.000000      2.000000
  0.400000  0.466667  0.000000      2.000000
  0.466667  0.466667  0.000000      2.000000
 -0.466667  0.466667  0.000000      2.000000
 -0.400000  0.466667  0.000000      2.000000
 -0.333333  0.466667  0.000000      2.000000
 -0.266667  0.466667  0.000000      2.000000
 -0.200000  0.466667  0.000000      2.000000
 -0.133333  0.466667  0.000000      2.000000
 -0.066667  0.466667  0.000000      2.000000
 
 Following cartesian coordinates:
            Coordinates               Weight
  0.000000  0.000000  0.000000      1.000000
  0.015213  0.000000  0.000000      2.000000
  0.030425  0.000000  0.000000      2.000000
  0.045638  0.000000  0.000000      2.000000
  0.060850  0.000000  0.000000      2.000000
  0.076063  0.000000  0.000000      2.000000
  0.091275  0.000000  0.000000      2.000000
  0.106488  0.000000  0.000000      2.000000
  0.000000  0.015688  0.000000      2.000000
  0.015213  0.015688  0.000000      2.000000
  0.030425  0.015688  0.000000      2.000000
  0.045638  0.015688  0.000000      2.000000
  0.060850  0.015688  0.000000      2.000000
  0.076063  0.015688  0.000000      2.000000
  0.091275  0.015688  0.000000      2.000000
  0.106488  0.015688  0.000000      2.000000
 -0.106488  0.015688  0.000000      2.000000
 -0.091275  0.015688  0.000000      2.000000
 -0.076063  0.015688  0.000000      2.000000
 -0.060850  0.015688  0.000000      2.000000
 -0.045638  0.015688  0.000000      2.000000
 -0.030425  0.015688  0.000000      2.000000
 -0.015213  0.015688  0.000000      2.000000
  0.000000  0.031376  0.000000      2.000000
  0.015213  0.031376  0.000000      2.000000
  0.030425  0.031376  0.000000      2.000000
  0.045638  0.031376  0.000000      2.000000
  0.060850  0.031376  0.000000      2.000000
  0.076063  0.031376  0.000000      2.000000
  0.091275  0.031376  0.000000      2.000000
  0.106488  0.031376  0.000000      2.000000
 -0.106488  0.031376  0.000000      2.000000
 -0.091275  0.031376  0.000000      2.000000
 -0.076063  0.031376  0.000000      2.000000
 -0.060850  0.031376  0.000000      2.000000
 -0.045638  0.031376  0.000000      2.000000
 -0.030425  0.031376  0.000000      2.000000
 -0.015213  0.031376  0.000000      2.000000
  0.000000  0.047064  0.000000      2.000000
  0.015213  0.047064  0.000000      2.000000
  0.030425  0.047064  0.000000      2.000000
  0.045638  0.047064  0.000000      2.000000
  0.060850  0.047064  0.000000      2.000000
  0.076063  0.047064  0.000000      2.000000
  0.091275  0.047064  0.000000      2.000000
  0.106488  0.047064  0.000000      2.000000
 -0.106488  0.047064  0.000000      2.000000
 -0.091275  0.047064  0.000000      2.000000
 -0.076063  0.047064  0.000000      2.000000
 -0.060850  0.047064  0.000000      2.000000
 -0.045638  0.047064  0.000000      2.000000
 -0.030425  0.047064  0.000000      2.000000
 -0.015213  0.047064  0.000000      2.000000
  0.000000  0.062752  0.000000      2.000000
  0.015213  0.062752  0.000000      2.000000
  0.030425  0.062752  0.000000      2.000000
  0.045638  0.062752  0.000000      2.000000
  0.060850  0.062752  0.000000      2.000000
  0.076063  0.062752  0.000000      2.000000
  0.091275  0.062752  0.000000      2.000000
  0.106488  0.062752  0.000000      2.000000
 -0.106488  0.062752  0.000000      2.000000
 -0.091275  0.062752  0.000000      2.000000
 -0.076063  0.062752  0.000000      2.000000
 -0.060850  0.062752  0.000000      2.000000
 -0.045638  0.062752  0.000000      2.000000
 -0.030425  0.062752  0.000000      2.000000
 -0.015213  0.062752  0.000000      2.000000
  0.000000  0.078440  0.000000      2.000000
  0.015213  0.078440  0.000000      2.000000
  0.030425  0.078440  0.000000      2.000000
  0.045638  0.078440  0.000000      2.000000
  0.060850  0.078440  0.000000      2.000000
  0.076063  0.078440  0.000000      2.000000
  0.091275  0.078440  0.000000      2.000000
  0.106488  0.078440  0.000000      2.000000
 -0.106488  0.078440  0.000000      2.000000
 -0.091275  0.078440  0.000000      2.000000
 -0.076063  0.078440  0.000000      2.000000
 -0.060850  0.078440  0.000000      2.000000
 -0.045638  0.078440  0.000000      2.000000
 -0.030425  0.078440  0.000000      2.000000
 -0.015213  0.078440  0.000000      2.000000
  0.000000  0.094128  0.000000      2.000000
  0.015213  0.094128  0.000000      2.000000
  0.030425  0.094128  0.000000      2.000000
  0.045638  0.094128  0.000000      2.000000
  0.060850  0.094128  0.000000      2.000000
  0.076063  0.094128  0.000000      2.000000
  0.091275  0.094128  0.000000      2.000000
  0.106488  0.094128  0.000000      2.000000
 -0.106488  0.094128  0.000000      2.000000
 -0.091275  0.094128  0.000000      2.000000
 -0.076063  0.094128  0.000000      2.000000
 -0.060850  0.094128  0.000000      2.000000
 -0.045638  0.094128  0.000000      2.000000
 -0.030425  0.094128  0.000000      2.000000
 -0.015213  0.094128  0.000000      2.000000
  0.000000  0.109815  0.000000      2.000000
  0.015213  0.109815  0.000000      2.000000
  0.030425  0.109815  0.000000      2.000000
  0.045638  0.109815  0.000000      2.000000
  0.060850  0.109815  0.000000      2.000000
  0.076063  0.109815  0.000000      2.000000
  0.091275  0.109815  0.000000      2.000000
  0.106488  0.109815  0.000000      2.000000
 -0.106488  0.109815  0.000000      2.000000
 -0.091275  0.109815  0.000000      2.000000
 -0.076063  0.109815  0.000000      2.000000
 -0.060850  0.109815  0.000000      2.000000
 -0.045638  0.109815  0.000000      2.000000
 -0.030425  0.109815  0.000000      2.000000
 -0.015213  0.109815  0.000000      2.000000
 


--------------------------------------------------------------------------------------------------------




 Dimension of arrays:
   k-points           NKPTS =    113   k-points in BZ     NKDIM =    113   number of bands    NBANDS=     14
   number of dos      NEDOS =    301   number of ions     NIONS =      4
   non local maximal  LDIM  =      5   non local SUM 2l+1 LMDIM =     13
   total plane-waves  NPLWV = 207360
   max r-space proj   IRMAX =      1   max aug-charges    IRDMAX=  53783
   dimension x,y,z NGX =    36 NGY =   36 NGZ =  160
   dimension x,y,z NGXF=    72 NGYF=   72 NGZF=  320
   support grid    NGXF=    72 NGYF=   72 NGZF=  320
   ions per type =               2   2
   NGX,Y,Z   is equivalent  to a cutoff of  13.66, 14.08, 13.30 a.u.
   NGXF,Y,Z  is equivalent  to a cutoff of  27.31, 28.17, 26.60 a.u.

 SYSTEM =  SnSe                                    
 POSCAR =   POSCAR with strain of -0.010           

 Startparameter for this run:
   NWRITE =      2    write-flag & timer
   PREC   = accura    normal or accurate (medium, high low for compatibility)
   ISTART =      0    job   : 0-new  1-cont  2-samecut
   ICHARG =      2    charge: 1-file 2-atom 10-const
   ISPIN  =      1    spin polarized calculation?
   LNONCOLLINEAR =      F non collinear calculations
   LSORBIT =      F    spin-orbit coupling
   INIWAV =      1    electr: 0-lowe 1-rand  2-diag
   LASPH  =      F    aspherical Exc in radial PAW
   METAGGA=      F    non-selfconsistent MetaGGA calc.

 Electronic Relaxation 1
   ENCUT  =  600.0 eV  44.10 Ry    6.64 a.u.   8.75  8.49 39.94*2*pi/ulx,y,z
   ENINI  =  600.0     initial cutoff
   ENAUG  =  446.8 eV  augmentation charge cutoff
   NELM   =     60;   NELMIN=  2; NELMDL= -5     # of ELM steps 
   EDIFF  = 0.1E-05   stopping-criterion for ELM
   LREAL  =      F    real-space projection
   NLSPLINE    = F    spline interpolate recip. space projectors
   LCOMPAT=      F    compatible to vasp.4.4
   GGA_COMPAT  = T    GGA compatible to vasp.4.4-vasp.4.6
   LMAXPAW     = -100 max onsite density
   LMAXMIX     =    2 max onsite mixed and CHGCAR
   VOSKOWN=      0    Vosko Wilk Nusair interpolation
   ROPT   =    0.00000   0.00000
 Ionic relaxation
   EDIFFG = -.1E-02   stopping-criterion for IOM
   NSW    =    100    number of steps for IOM
   NBLOCK =      1;   KBLOCK =    100    inner block; outer block 
   IBRION =      2    ionic relax: 0-MD 1-quasi-New 2-CG
   NFREE  =      1    steps in history (QN), initial steepest desc. (CG)
   ISIF   =      2    stress and relaxation
   IWAVPR =     11    prediction:  0-non 1-charg 2-wave 3-comb
   ISYM   =      0    0-nonsym 1-usesym 2-fastsym
   LCORR  =      T    Harris-Foulkes like correction to forces

   POTIM  = 0.5000    time-step for ionic-motion
   TEIN   =    0.0    initial temperature
   TEBEG  =    0.0;   TEEND  =   0.0 temperature during run
   SMASS  =  -3.00    Nose mass-parameter (am)
   estimated Nose-frequenzy (Omega)   =  0.10E-29 period in steps =****** mass=  -0.439E-27a.u.
   SCALEE = 1.0000    scale energy and forces
   NPACO  =    256;   APACO  = 16.0  distance and # of slots for P.C.
   PSTRESS=    0.0 pullay stress

  Mass of Ions in am
   POMASS = 118.71 78.96
  Ionic Valenz
   ZVAL   =   4.00  6.00
  Atomic Wigner-Seitz radii
   RWIGS  =  -1.00 -1.00
  virtual crystal weights 
   VCA    =   1.00  1.00
   NELECT =      20.0000    total number of electrons
   NUPDOWN=      -1.0000    fix difference up-down

 DOS related values:
   EMIN   =  10.00;   EMAX   =-10.00  energy-range for DOS
   EFERMI =   0.00
   ISMEAR =     0;   SIGMA  =   0.10  broadening in eV -4-tet -1-fermi 0-gaus

 Electronic relaxation 2 (details)
   IALGO  =     38    algorithm
   LDIAG  =      T    sub-space diagonalisation (order eigenvalues)
   LSUBROT=      F    optimize rotation matrix (better conditioning)
   TURBO    =      0    0=normal 1=particle mesh
   IRESTART =      0    0=no restart 2=restart with 2 vectors
   NREBOOT  =      0    no. of reboots
   NMIN     =      0    reboot dimension
   EREF     =   0.00    reference energy to select bands
   IMIX   =      4    mixing-type and parameters
     AMIX     =   0.40;   BMIX     =  1.00
     AMIX_MAG =   1.60;   BMIX_MAG =  1.00
     AMIN     =   0.10
     WC   =   100.;   INIMIX=   1;  MIXPRE=   1;  MAXMIX= -45

 Intra band minimization:
   WEIMIN = 0.0010     energy-eigenvalue tresh-hold
   EBREAK =  0.18E-07  absolut break condition
   DEPER  =   0.30     relativ break condition  

   TIME   =   0.40     timestep for ELM

  volume/ion in A,a.u.               =      93.12       628.37
  Fermi-wavevector in a.u.,A,eV,Ry     =   0.617624  1.167141  5.190078  0.381460
  Thomas-Fermi vector in A             =   1.675777
 
 Write flags
   LWAVE        =      T    write WAVECAR
   LDOWNSAMPLE  =      F    k-point downsampling of WAVECAR
   LCHARG       =      T    write CHGCAR
   LVTOT        =      F    write LOCPOT, total local potential
   LVHAR        =      F    write LOCPOT, Hartree potential only
   LELF         =      F    write electronic localiz. function (ELF)
   LORBIT       =      0    0 simple, 1 ext, 2 COOP (PROOUT), +10 PAW based schemes


 Dipole corrections
   LMONO  =      F    monopole corrections only (constant potential shift)
   LDIPOL =      F    correct potential (dipole corrections)
   IDIPOL =      0    1-x, 2-y, 3-z, 4-all directions 
   EPSILON=  1.0000000 bulk dielectric constant

 Exchange correlation treatment:
   GGA     =    PE    GGA type
   LEXCH   =     8    internal setting for exchange type
   VOSKOWN=      0    Vosko Wilk Nusair interpolation
   LHFCALC =     F    Hartree Fock is set to
   LHFONE  =     F    Hartree Fock one center treatment
   AEXX    =    0.0000 exact exchange contribution

 Linear response parameters
   LEPSILON=     F    determine dielectric tensor
   LRPA    =     F    only Hartree local field effects (RPA)
   LNABLA  =     F    use nabla operator in PAW spheres
   LVEL    =     F    velocity operator in full k-point grid
   LINTERFAST=   F  fast interpolation
   KINTER  =     0    interpolate to denser k-point grid
   CSHIFT  =0.1000    complex shift for real part using Kramers Kronig
   OMEGAMAX=  -1.0    maximum frequency
   DEG_THRESHOLD= 0.2000000E-02 threshold for treating states as degnerate
   RTIME   =   -0.100 relaxation time in fs
  (WPLASMAI=    0.000 imaginary part of plasma frequency in eV, 0.658/RTIME)
   DFIELD  = 0.0000000 0.0000000 0.0000000 field for delta impulse in time
 
 Orbital magnetization related:
   ORBITALMAG=     F  switch on orbital magnetization
   LCHIMAG   =     F  perturbation theory with respect to B field
   DQ        =  0.001000  dq finite difference perturbation B field
   LLRAUG    =     F  two centre corrections for induced B field



--------------------------------------------------------------------------------------------------------


 conjugate gradient relaxation of ions
 charge density and potential will be updated during run
 non-spin polarized calculation
 Variant of blocked Davidson
 Davidson routine will perform the subspace rotation
 perform sub-space diagonalisation
    after iterative eigenvector-optimisation
 modified Broyden-mixing scheme, WC =      100.0
 initial mixing is a Kerker type mixing with AMIX =  0.4000 and BMIX =      1.0000
 Hartree-type preconditioning will be used
 using additional bands            4
 reciprocal scheme for non local part
 use partial core corrections
 calculate Harris-corrections to forces 
   (improved forces if not selfconsistent)
 use gradient corrections 
 use of overlap-Matrix (Vanderbilt PP)
 Gauss-broadening in eV      SIGMA  =   0.10


--------------------------------------------------------------------------------------------------------


  energy-cutoff  :      600.00
  volume of cell :      372.46
      direct lattice vectors                 reciprocal lattice vectors
     4.382356765  0.000000000  0.000000000     0.228187720  0.000000000  0.000000000
     0.000000000  4.249553079  0.000000000     0.000000000  0.235318863  0.000000000
     0.000000000  0.000000000 20.000000000     0.000000000  0.000000000  0.050000000

  length of vectors
     4.382356765  4.249553079 20.000000000     0.228187720  0.235318863  0.050000000


 
 k-points in units of 2pi/SCALE and weight: KMesh Grid                              
   0.00000000  0.00000000  0.00000000       0.004
   0.01521251  0.00000000  0.00000000       0.009
   0.03042503  0.00000000  0.00000000       0.009
   0.04563754  0.00000000  0.00000000       0.009
   0.06085006  0.00000000  0.00000000       0.009
   0.07606257  0.00000000  0.00000000       0.009
   0.09127509  0.00000000  0.00000000       0.009
   0.10648760  0.00000000  0.00000000       0.009
   0.00000000  0.01568792  0.00000000       0.009
   0.01521251  0.01568792  0.00000000       0.009
   0.03042503  0.01568792  0.00000000       0.009
   0.04563754  0.01568792  0.00000000       0.009
   0.06085006  0.01568792  0.00000000       0.009
   0.07606257  0.01568792  0.00000000       0.009
   0.09127509  0.01568792  0.00000000       0.009
   0.10648760  0.01568792  0.00000000       0.009
  -0.10648760  0.01568792  0.00000000       0.009
  -0.09127509  0.01568792  0.00000000       0.009
  -0.07606257  0.01568792  0.00000000       0.009
  -0.06085006  0.01568792  0.00000000       0.009
  -0.04563754  0.01568792  0.00000000       0.009
  -0.03042503  0.01568792  0.00000000       0.009
  -0.01521251  0.01568792  0.00000000       0.009
   0.00000000  0.03137585  0.00000000       0.009
   0.01521251  0.03137585  0.00000000       0.009
   0.03042503  0.03137585  0.00000000       0.009
   0.04563754  0.03137585  0.00000000       0.009
   0.06085006  0.03137585  0.00000000       0.009
   0.07606257  0.03137585  0.00000000       0.009
   0.09127509  0.03137585  0.00000000       0.009
   0.10648760  0.03137585  0.00000000       0.009
  -0.10648760  0.03137585  0.00000000       0.009
  -0.09127509  0.03137585  0.00000000       0.009
  -0.07606257  0.03137585  0.00000000       0.009
  -0.06085006  0.03137585  0.00000000       0.009
  -0.04563754  0.03137585  0.00000000       0.009
  -0.03042503  0.03137585  0.00000000       0.009
  -0.01521251  0.03137585  0.00000000       0.009
   0.00000000  0.04706377  0.00000000       0.009
   0.01521251  0.04706377  0.00000000       0.009
   0.03042503  0.04706377  0.00000000       0.009
   0.04563754  0.04706377  0.00000000       0.009
   0.06085006  0.04706377  0.00000000       0.009
   0.07606257  0.04706377  0.00000000       0.009
   0.09127509  0.04706377  0.00000000       0.009
   0.10648760  0.04706377  0.00000000       0.009
  -0.10648760  0.04706377  0.00000000       0.009
  -0.09127509  0.04706377  0.00000000       0.009
  -0.07606257  0.04706377  0.00000000       0.009
  -0.06085006  0.04706377  0.00000000       0.009
  -0.04563754  0.04706377  0.00000000       0.009
  -0.03042503  0.04706377  0.00000000       0.009
  -0.01521251  0.04706377  0.00000000       0.009
   0.00000000  0.06275170  0.00000000       0.009
   0.01521251  0.06275170  0.00000000       0.009
   0.03042503  0.06275170  0.00000000       0.009
   0.04563754  0.06275170  0.00000000       0.009
   0.06085006  0.06275170  0.00000000       0.009
   0.07606257  0.06275170  0.00000000       0.009
   0.09127509  0.06275170  0.00000000       0.009
   0.10648760  0.06275170  0.00000000       0.009
  -0.10648760  0.06275170  0.00000000       0.009
  -0.09127509  0.06275170  0.00000000       0.009
  -0.07606257  0.06275170  0.00000000       0.009
  -0.06085006  0.06275170  0.00000000       0.009
  -0.04563754  0.06275170  0.00000000       0.009
  -0.03042503  0.06275170  0.00000000       0.009
  -0.01521251  0.06275170  0.00000000       0.009
   0.00000000  0.07843962  0.00000000       0.009
   0.01521251  0.07843962  0.00000000       0.009
   0.03042503  0.07843962  0.00000000       0.009
   0.04563754  0.07843962  0.00000000       0.009
   0.06085006  0.07843962  0.00000000       0.009
   0.07606257  0.07843962  0.00000000       0.009
   0.09127509  0.07843962  0.00000000       0.009
   0.10648760  0.07843962  0.00000000       0.009
  -0.10648760  0.07843962  0.00000000       0.009
  -0.09127509  0.07843962  0.00000000       0.009
  -0.07606257  0.07843962  0.00000000       0.009
  -0.06085006  0.07843962  0.00000000       0.009
  -0.04563754  0.07843962  0.00000000       0.009
  -0.03042503  0.07843962  0.00000000       0.009
  -0.01521251  0.07843962  0.00000000       0.009
   0.00000000  0.09412755  0.00000000       0.009
   0.01521251  0.09412755  0.00000000       0.009
   0.03042503  0.09412755  0.00000000       0.009
   0.04563754  0.09412755  0.00000000       0.009
   0.06085006  0.09412755  0.00000000       0.009
   0.07606257  0.09412755  0.00000000       0.009
   0.09127509  0.09412755  0.00000000       0.009
   0.10648760  0.09412755  0.00000000       0.009
  -0.10648760  0.09412755  0.00000000       0.009
  -0.09127509  0.09412755  0.00000000       0.009
  -0.07606257  0.09412755  0.00000000       0.009
  -0.06085006  0.09412755  0.00000000       0.009
  -0.04563754  0.09412755  0.00000000       0.009
  -0.03042503  0.09412755  0.00000000       0.009
  -0.01521251  0.09412755  0.00000000       0.009
   0.00000000  0.10981547  0.00000000       0.009
   0.01521251  0.10981547  0.00000000       0.009
   0.03042503  0.10981547  0.00000000       0.009
   0.04563754  0.10981547  0.00000000       0.009
   0.06085006  0.10981547  0.00000000       0.009
   0.07606257  0.10981547  0.00000000       0.009
   0.09127509  0.10981547  0.00000000       0.009
   0.10648760  0.10981547  0.00000000       0.009
  -0.10648760  0.10981547  0.00000000       0.009
  -0.09127509  0.10981547  0.00000000       0.009
  -0.07606257  0.10981547  0.00000000       0.009
  -0.06085006  0.10981547  0.00000000       0.009
  -0.04563754  0.10981547  0.00000000       0.009
  -0.03042503  0.10981547  0.00000000       0.009
  -0.01521251  0.10981547  0.00000000       0.009
 
 k-points in reciprocal lattice and weights: KMesh Grid                              
   0.00000000  0.00000000  0.00000000       0.004
   0.06666667  0.00000000  0.00000000       0.009
   0.13333333  0.00000000  0.00000000       0.009
   0.20000000  0.00000000  0.00000000       0.009
   0.26666667  0.00000000  0.00000000       0.009
   0.33333333  0.00000000  0.00000000       0.009
   0.40000000  0.00000000  0.00000000       0.009
   0.46666667  0.00000000  0.00000000       0.009
   0.00000000  0.06666667  0.00000000       0.009
   0.06666667  0.06666667  0.00000000       0.009
   0.13333333  0.06666667  0.00000000       0.009
   0.20000000  0.06666667  0.00000000       0.009
   0.26666667  0.06666667  0.00000000       0.009
   0.33333333  0.06666667  0.00000000       0.009
   0.40000000  0.06666667  0.00000000       0.009
   0.46666667  0.06666667  0.00000000       0.009
  -0.46666667  0.06666667  0.00000000       0.009
  -0.40000000  0.06666667  0.00000000       0.009
  -0.33333333  0.06666667  0.00000000       0.009
  -0.26666667  0.06666667  0.00000000       0.009
  -0.20000000  0.06666667  0.00000000       0.009
  -0.13333333  0.06666667  0.00000000       0.009
  -0.06666667  0.06666667  0.00000000       0.009
   0.00000000  0.13333333  0.00000000       0.009
   0.06666667  0.13333333  0.00000000       0.009
   0.13333333  0.13333333  0.00000000       0.009
   0.20000000  0.13333333  0.00000000       0.009
   0.26666667  0.13333333  0.00000000       0.009
   0.33333333  0.13333333  0.00000000       0.009
   0.40000000  0.13333333  0.00000000       0.009
   0.46666667  0.13333333  0.00000000       0.009
  -0.46666667  0.13333333  0.00000000       0.009
  -0.40000000  0.13333333  0.00000000       0.009
  -0.33333333  0.13333333  0.00000000       0.009
  -0.26666667  0.13333333  0.00000000       0.009
  -0.20000000  0.13333333  0.00000000       0.009
  -0.13333333  0.13333333  0.00000000       0.009
  -0.06666667  0.13333333  0.00000000       0.009
   0.00000000  0.20000000  0.00000000       0.009
   0.06666667  0.20000000  0.00000000       0.009
   0.13333333  0.20000000  0.00000000       0.009
   0.20000000  0.20000000  0.00000000       0.009
   0.26666667  0.20000000  0.00000000       0.009
   0.33333333  0.20000000  0.00000000       0.009
   0.40000000  0.20000000  0.00000000       0.009
   0.46666667  0.20000000  0.00000000       0.009
  -0.46666667  0.20000000  0.00000000       0.009
  -0.40000000  0.20000000  0.00000000       0.009
  -0.33333333  0.20000000  0.00000000       0.009
  -0.26666667  0.20000000  0.00000000       0.009
  -0.20000000  0.20000000  0.00000000       0.009
  -0.13333333  0.20000000  0.00000000       0.009
  -0.06666667  0.20000000  0.00000000       0.009
   0.00000000  0.26666667  0.00000000       0.009
   0.06666667  0.26666667  0.00000000       0.009
   0.13333333  0.26666667  0.00000000       0.009
   0.20000000  0.26666667  0.00000000       0.009
   0.26666667  0.26666667  0.00000000       0.009
   0.33333333  0.26666667  0.00000000       0.009
   0.40000000  0.26666667  0.00000000       0.009
   0.46666667  0.26666667  0.00000000       0.009
  -0.46666667  0.26666667  0.00000000       0.009
  -0.40000000  0.26666667  0.00000000       0.009
  -0.33333333  0.26666667  0.00000000       0.009
  -0.26666667  0.26666667  0.00000000       0.009
  -0.20000000  0.26666667  0.00000000       0.009
  -0.13333333  0.26666667  0.00000000       0.009
  -0.06666667  0.26666667  0.00000000       0.009
   0.00000000  0.33333333  0.00000000       0.009
   0.06666667  0.33333333  0.00000000       0.009
   0.13333333  0.33333333  0.00000000       0.009
   0.20000000  0.33333333  0.00000000       0.009
   0.26666667  0.33333333  0.00000000       0.009
   0.33333333  0.33333333  0.00000000       0.009
   0.40000000  0.33333333  0.00000000       0.009
   0.46666667  0.33333333  0.00000000       0.009
  -0.46666667  0.33333333  0.00000000       0.009
  -0.40000000  0.33333333  0.00000000       0.009
  -0.33333333  0.33333333  0.00000000       0.009
  -0.26666667  0.33333333  0.00000000       0.009
  -0.20000000  0.33333333  0.00000000       0.009
  -0.13333333  0.33333333  0.00000000       0.009
  -0.06666667  0.33333333  0.00000000       0.009
   0.00000000  0.40000000  0.00000000       0.009
   0.06666667  0.40000000  0.00000000       0.009
   0.13333333  0.40000000  0.00000000       0.009
   0.20000000  0.40000000  0.00000000       0.009
   0.26666667  0.40000000  0.00000000       0.009
   0.33333333  0.40000000  0.00000000       0.009
   0.40000000  0.40000000  0.00000000       0.009
   0.46666667  0.40000000  0.00000000       0.009
  -0.46666667  0.40000000  0.00000000       0.009
  -0.40000000  0.40000000  0.00000000       0.009
  -0.33333333  0.40000000  0.00000000       0.009
  -0.26666667  0.40000000  0.00000000       0.009
  -0.20000000  0.40000000  0.00000000       0.009
  -0.13333333  0.40000000  0.00000000       0.009
  -0.06666667  0.40000000  0.00000000       0.009
   0.00000000  0.46666667  0.00000000       0.009
   0.06666667  0.46666667  0.00000000       0.009
   0.13333333  0.46666667  0.00000000       0.009
   0.20000000  0.46666667  0.00000000       0.009
   0.26666667  0.46666667  0.00000000       0.009
   0.33333333  0.46666667  0.00000000       0.009
   0.40000000  0.46666667  0.00000000       0.009
   0.46666667  0.46666667  0.00000000       0.009
  -0.46666667  0.46666667  0.00000000       0.009
  -0.40000000  0.46666667  0.00000000       0.009
  -0.33333333  0.46666667  0.00000000       0.009
  -0.26666667  0.46666667  0.00000000       0.009
  -0.20000000  0.46666667  0.00000000       0.009
  -0.13333333  0.46666667  0.00000000       0.009
  -0.06666667  0.46666667  0.00000000       0.009
 
 position of ions in fractional coordinates (direct lattice) 
   0.58124336  0.75000000  0.56874314
   0.08124336  0.25000000  0.43125686
   0.03286064  0.25000000  0.56707387
   0.53286061  0.75000000  0.43292613
 
 position of ions in cartesian coordinates  (Angst):
   2.54721576  3.18716481 11.37486283
   0.35603738  1.06238827  8.62513717
   0.14400706  1.06238827 11.34147733
   2.33518532  3.18716481  8.65852267
 


--------------------------------------------------------------------------------------------------------


 k-point  1 :   0.0000 0.0000 0.0000  plane waves:   12427
 k-point  2 :   0.0667 0.0000 0.0000  plane waves:   12435
 k-point  3 :   0.1333 0.0000 0.0000  plane waves:   12459
 k-point  4 :   0.2000 0.0000 0.0000  plane waves:   12415
 k-point  5 :   0.2667 0.0000 0.0000  plane waves:   12422
 k-point  6 :   0.3333 0.0000 0.0000  plane waves:   12478
 k-point  7 :   0.4000 0.0000 0.0000  plane waves:   12498
 k-point  8 :   0.4667 0.0000 0.0000  plane waves:   12498
 k-point  9 :   0.0000 0.0667 0.0000  plane waves:   12471
 k-point 10 :   0.0667 0.0667 0.0000  plane waves:   12465
 k-point 11 :   0.1333 0.0667 0.0000  plane waves:   12432
 k-point 12 :   0.2000 0.0667 0.0000  plane waves:   12428
 k-point 13 :   0.2667 0.0667 0.0000  plane waves:   12422
 k-point 14 :   0.3333 0.0667 0.0000  plane waves:   12446
 k-point 15 :   0.4000 0.0667 0.0000  plane waves:   12482
 k-point 16 :   0.4667 0.0667 0.0000  plane waves:   12466
 k-point 17 :  -0.4667 0.0667 0.0000  plane waves:   12466
 k-point 18 :  -0.4000 0.0667 0.0000  plane waves:   12482
 k-point 19 :  -0.3333 0.0667 0.0000  plane waves:   12446
 k-point 20 :  -0.2667 0.0667 0.0000  plane waves:   12422
 k-point 21 :  -0.2000 0.0667 0.0000  plane waves:   12428
 k-point 22 :  -0.1333 0.0667 0.0000  plane waves:   12432
 k-point 23 :  -0.0667 0.0667 0.0000  plane waves:   12465
 k-point 24 :   0.0000 0.1333 0.0000  plane waves:   12457
 k-point 25 :   0.0667 0.1333 0.0000  plane waves:   12461
 k-point 26 :   0.1333 0.1333 0.0000  plane waves:   12433
 k-point 27 :   0.2000 0.1333 0.0000  plane waves:   12420
 k-point 28 :   0.2667 0.1333 0.0000  plane waves:   12418
 k-point 29 :   0.3333 0.1333 0.0000  plane waves:   12436
 k-point 30 :   0.4000 0.1333 0.0000  plane waves:   12447
 k-point 31 :   0.4667 0.1333 0.0000  plane waves:   12462
 k-point 32 :  -0.4667 0.1333 0.0000  plane waves:   12462
 k-point 33 :  -0.4000 0.1333 0.0000  plane waves:   12447
 k-point 34 :  -0.3333 0.1333 0.0000  plane waves:   12436
 k-point 35 :  -0.2667 0.1333 0.0000  plane waves:   12418
 k-point 36 :  -0.2000 0.1333 0.0000  plane waves:   12420
 k-point 37 :  -0.1333 0.1333 0.0000  plane waves:   12433
 k-point 38 :  -0.0667 0.1333 0.0000  plane waves:   12461
 k-point 39 :   0.0000 0.2000 0.0000  plane waves:   12437
 k-point 40 :   0.0667 0.2000 0.0000  plane waves:   12446
 k-point 41 :   0.1333 0.2000 0.0000  plane waves:   12448
 k-point 42 :   0.2000 0.2000 0.0000  plane waves:   12435
 k-point 43 :   0.2667 0.2000 0.0000  plane waves:   12424
 k-point 44 :   0.3333 0.2000 0.0000  plane waves:   12441
 k-point 45 :   0.4000 0.2000 0.0000  plane waves:   12423
 k-point 46 :   0.4667 0.2000 0.0000  plane waves:   12438
 k-point 47 :  -0.4667 0.2000 0.0000  plane waves:   12438
 k-point 48 :  -0.4000 0.2000 0.0000  plane waves:   12423
 k-point 49 :  -0.3333 0.2000 0.0000  plane waves:   12441
 k-point 50 :  -0.2667 0.2000 0.0000  plane waves:   12424
 k-point 51 :  -0.2000 0.2000 0.0000  plane waves:   12435
 k-point 52 :  -0.1333 0.2000 0.0000  plane waves:   12448
 k-point 53 :  -0.0667 0.2000 0.0000  plane waves:   12446
 k-point 54 :   0.0000 0.2667 0.0000  plane waves:   12451
 k-point 55 :   0.0667 0.2667 0.0000  plane waves:   12426
 k-point 56 :   0.1333 0.2667 0.0000  plane waves:   12432
 k-point 57 :   0.2000 0.2667 0.0000  plane waves:   12436
 k-point 58 :   0.2667 0.2667 0.0000  plane waves:   12428
 k-point 59 :   0.3333 0.2667 0.0000  plane waves:   12427
 k-point 60 :   0.4000 0.2667 0.0000  plane waves:   12435
 k-point 61 :   0.4667 0.2667 0.0000  plane waves:   12447
 k-point 62 :  -0.4667 0.2667 0.0000  plane waves:   12447
 k-point 63 :  -0.4000 0.2667 0.0000  plane waves:   12435
 k-point 64 :  -0.3333 0.2667 0.0000  plane waves:   12427
 k-point 65 :  -0.2667 0.2667 0.0000  plane waves:   12428
 k-point 66 :  -0.2000 0.2667 0.0000  plane waves:   12436
 k-point 67 :  -0.1333 0.2667 0.0000  plane waves:   12432
 k-point 68 :  -0.0667 0.2667 0.0000  plane waves:   12426
 k-point 69 :   0.0000 0.3333 0.0000  plane waves:   12427
 k-point 70 :   0.0667 0.3333 0.0000  plane waves:   12430
 k-point 71 :   0.1333 0.3333 0.0000  plane waves:   12421
 k-point 72 :   0.2000 0.3333 0.0000  plane waves:   12427
 k-point 73 :   0.2667 0.3333 0.0000  plane waves:   12427
 k-point 74 :   0.3333 0.3333 0.0000  plane waves:   12414
 k-point 75 :   0.4000 0.3333 0.0000  plane waves:   12432
 k-point 76 :   0.4667 0.3333 0.0000  plane waves:   12406
 k-point 77 :  -0.4667 0.3333 0.0000  plane waves:   12406
 k-point 78 :  -0.4000 0.3333 0.0000  plane waves:   12432
 k-point 79 :  -0.3333 0.3333 0.0000  plane waves:   12414
 k-point 80 :  -0.2667 0.3333 0.0000  plane waves:   12427
 k-point 81 :  -0.2000 0.3333 0.0000  plane waves:   12427
 k-point 82 :  -0.1333 0.3333 0.0000  plane waves:   12421
 k-point 83 :  -0.0667 0.3333 0.0000  plane waves:   12430
 k-point 84 :   0.0000 0.4000 0.0000  plane waves:   12405
 k-point 85 :   0.0667 0.4000 0.0000  plane waves:   12412
 k-point 86 :   0.1333 0.4000 0.0000  plane waves:   12432
 k-point 87 :   0.2000 0.4000 0.0000  plane waves:   12424
 k-point 88 :   0.2667 0.4000 0.0000  plane waves:   12396
 k-point 89 :   0.3333 0.4000 0.0000  plane waves:   12401
 k-point 90 :   0.4000 0.4000 0.0000  plane waves:   12406
 k-point 91 :   0.4667 0.4000 0.0000  plane waves:   12414
 k-point 92 :  -0.4667 0.4000 0.0000  plane waves:   12414
 k-point 93 :  -0.4000 0.4000 0.0000  plane waves:   12406
 k-point 94 :  -0.3333 0.4000 0.0000  plane waves:   12401
 k-point 95 :  -0.2667 0.4000 0.0000  plane waves:   12396
 k-point 96 :  -0.2000 0.4000 0.0000  plane waves:   12424
 k-point 97 :  -0.1333 0.4000 0.0000  plane waves:   12432
 k-point 98 :  -0.0667 0.4000 0.0000  plane waves:   12412
 k-point 99 :   0.0000 0.4667 0.0000  plane waves:   12377
 k-point ** :   0.0667 0.4667 0.0000  plane waves:   12392
 k-point ** :   0.1333 0.4667 0.0000  plane waves:   12406
 k-point ** :   0.2000 0.4667 0.0000  plane waves:   12399
 k-point ** :   0.2667 0.4667 0.0000  plane waves:   12395
 k-point ** :   0.3333 0.4667 0.0000  plane waves:   12385
 k-point ** :   0.4000 0.4667 0.0000  plane waves:   12388
 k-point ** :   0.4667 0.4667 0.0000  plane waves:   12400
 k-point ** :  -0.4667 0.4667 0.0000  plane waves:   12400
 k-point ** :  -0.4000 0.4667 0.0000  plane waves:   12388
 k-point ** :  -0.3333 0.4667 0.0000  plane waves:   12385
 k-point ** :  -0.2667 0.4667 0.0000  plane waves:   12395
 k-point ** :  -0.2000 0.4667 0.0000  plane waves:   12399
 k-point ** :  -0.1333 0.4667 0.0000  plane waves:   12406
 k-point ** :  -0.0667 0.4667 0.0000  plane waves:   12392

 maximum and minimum number of plane-waves per node :       542      494

 maximum number of plane-waves:     12498
 maximum index in each direction: 
   IXMAX=    9   IYMAX=    8   IZMAX=   39
   IXMIN=   -9   IYMIN=   -8   IZMIN=  -39


 parallel 3D FFT for wavefunctions:
    minimum data exchange during FFTs selected (reduces bandwidth)
 parallel 3D FFT for charge:
    minimum data exchange during FFTs selected (reduces bandwidth)


 total amount of memory used by VASP MPI-rank0    62535. kBytes
=======================================================================

   base      :      30000. kBytes
   nonl-proj :      12137. kBytes
   fftplans  :       2677. kBytes
   grid      :       4349. kBytes
   one-center:          8. kBytes
   wavefun   :      13364. kBytes
 
     INWAV:  cpu time    0.0000: real time    0.0000
 Broyden mixing: mesh for mixing (old mesh)
   NGX = 17   NGY = 17   NGZ = 79
  (NGX  = 72   NGY  = 72   NGZ  =320)
  gives a total of  22831 points

 initial charge density was supplied:
 charge density of overlapping atoms calculated
 number of electron      20.0000000 magnetization 
 keeping initial charge density in first step


--------------------------------------------------------------------------------------------------------


 Maximum index for augmentation-charges         2246 (set IRDMAX)


--------------------------------------------------------------------------------------------------------


 First call to EWALD:  gamma=   0.246
 Maximum number of real-space cells 4x 4x 1
 Maximum number of reciprocal cells 2x 2x 7

    FEWALD:  cpu time    0.0015: real time    0.0024


--------------------------------------- Iteration      1(   1)  ---------------------------------------


    POTLOK:  cpu time    0.0616: real time    0.2077
    SETDIJ:  cpu time    0.0050: real time    0.0053
     EDDAV:  cpu time    2.7280: real time    2.7409
       DOS:  cpu time    0.0061: real time    0.0061
    --------------------------------------------
      LOOP:  cpu time    2.8008: real time    2.9600

 eigenvalue-minimisations  :  3164
 total energy-change (2. order) : 0.1449250E+03  (-0.6340144E+03)
 number of electron      20.0000000 magnetization 
 augmentation part       20.0000000 magnetization 

 Free energy of the ion-electron system (eV)
  ---------------------------------------------------
  alpha Z        PSCENC =         9.60021974
  Ewald energy   TEWEN  =      1168.99755439
  -Hartree energ DENC   =     -1771.07830420
  -exchange      EXHF   =         0.00000000
  -V(xc)+E(xc)   XCENC  =      -238.51793793
  PAW double counting   =       799.43158084     -524.17639913
  entropy T*S    EENTRO =        -0.00915506
  eigenvalues    EBANDS =        -1.75041924
  atomic energy  EATOM  =       702.42789710
  Solvation  Ediel_sol  =         0.00000000
  ---------------------------------------------------
  free energy    TOTEN  =       144.92503652 eV

  energy without entropy =      144.93419159  energy(sigma->0) =      144.92961406


--------------------------------------------------------------------------------------------------------




--------------------------------------- Iteration      1(   2)  ---------------------------------------


     EDDAV:  cpu time    3.8715: real time    3.8843
       DOS:  cpu time    0.0062: real time    0.0062
    --------------------------------------------
      LOOP:  cpu time    3.8777: real time    3.8905

 eigenvalue-minimisations  :  5234
 total energy-change (2. order) :-0.1404962E+03  (-0.1364841E+03)
 number of electron      20.0000000 magnetization 
 augmentation part       20.0000000 magnetization 

 Free energy of the ion-electron system (eV)
  ---------------------------------------------------
  alpha Z        PSCENC =         9.60021974
  Ewald energy   TEWEN  =      1168.99755439
  -Hartree energ DENC   =     -1771.07830420
  -exchange      EXHF   =         0.00000000
  -V(xc)+E(xc)   XCENC  =      -238.51793793
  PAW double counting   =       799.43158084     -524.17639913
  entropy T*S    EENTRO =        -0.00100204
  eigenvalues    EBANDS =      -142.25482013
  atomic energy  EATOM  =       702.42789710
  Solvation  Ediel_sol  =         0.00000000
  ---------------------------------------------------
  free energy    TOTEN  =         4.42878866 eV

  energy without entropy =        4.42979070  energy(sigma->0) =        4.42928968


--------------------------------------------------------------------------------------------------------




--------------------------------------- Iteration      1(   3)  ---------------------------------------


     EDDAV:  cpu time    3.1161: real time    3.1283
       DOS:  cpu time    0.0043: real time    0.0043
    --------------------------------------------
      LOOP:  cpu time    3.1204: real time    3.1327

 eigenvalue-minimisations  :  4018
 total energy-change (2. order) :-0.2042915E+02  (-0.2028338E+02)
 number of electron      20.0000000 magnetization 
 augmentation part       20.0000000 magnetization 

 Free energy of the ion-electron system (eV)
  ---------------------------------------------------
  alpha Z        PSCENC =         9.60021974
  Ewald energy   TEWEN  =      1168.99755439
  -Hartree energ DENC   =     -1771.07830420
  -exchange      EXHF   =         0.00000000
  -V(xc)+E(xc)   XCENC  =      -238.51793793
  PAW double counting   =       799.43158084     -524.17639913
  entropy T*S    EENTRO =        -0.00000000
  eigenvalues    EBANDS =      -162.68496858
  atomic energy  EATOM  =       702.42789710
  Solvation  Ediel_sol  =         0.00000000
  ---------------------------------------------------
  free energy    TOTEN  =       -16.00035776 eV

  energy without entropy =      -16.00035776  energy(sigma->0) =      -16.00035776


--------------------------------------------------------------------------------------------------------




--------------------------------------- Iteration      1(   4)  ---------------------------------------


     EDDAV:  cpu time    3.4544: real time    3.4676
       DOS:  cpu time    0.0043: real time    0.0044
    --------------------------------------------
      LOOP:  cpu time    3.4588: real time    3.4722

 eigenvalue-minimisations  :  4540
 total energy-change (2. order) :-0.7659110E+00  (-0.7636085E+00)
 number of electron      20.0000000 magnetization 
 augmentation part       20.0000000 magnetization 

 Free energy of the ion-electron system (eV)
  ---------------------------------------------------
  alpha Z        PSCENC =         9.60021974
  Ewald energy   TEWEN  =      1168.99755439
  -Hartree energ DENC   =     -1771.07830420
  -exchange      EXHF   =         0.00000000
  -V(xc)+E(xc)   XCENC  =      -238.51793793
  PAW double counting   =       799.43158084     -524.17639913
  entropy T*S    EENTRO =        -0.00000000
  eigenvalues    EBANDS =      -163.45087954
  atomic energy  EATOM  =       702.42789710
  Solvation  Ediel_sol  =         0.00000000
  ---------------------------------------------------
  free energy    TOTEN  =       -16.76626871 eV

  energy without entropy =      -16.76626871  energy(sigma->0) =      -16.76626871


--------------------------------------------------------------------------------------------------------




--------------------------------------- Iteration      1(   5)  ---------------------------------------


     EDDAV:  cpu time    3.2161: real time    3.2290
       DOS:  cpu time    0.0044: real time    0.0044
    CHARGE:  cpu time    0.2228: real time    0.2232
    MIXING:  cpu time    0.0017: real time    0.0019
    --------------------------------------------
      LOOP:  cpu time    3.4450: real time    3.4582

 eigenvalue-minimisations  :  4170
 total energy-change (2. order) :-0.1743473E-01  (-0.1742222E-01)
 number of electron      20.0000000 magnetization 
 augmentation part       -4.5256701 magnetization 

 Broyden mixing:
  rms(total) = 0.45631E+00    rms(broyden)= 0.45631E+00
  rms(prec ) = 0.49557E+00
  weight for this iteration     100.00

 Free energy of the ion-electron system (eV)
  ---------------------------------------------------
  alpha Z        PSCENC =         9.60021974
  Ewald energy   TEWEN  =      1168.99755439
  -Hartree energ DENC   =     -1771.07830420
  -exchange      EXHF   =         0.00000000
  -V(xc)+E(xc)   XCENC  =      -238.51793793
  PAW double counting   =       799.43158084     -524.17639913
  entropy T*S    EENTRO =        -0.00000000
  eigenvalues    EBANDS =      -163.46831427
  atomic energy  EATOM  =       702.42789710
  Solvation  Ediel_sol  =         0.00000000
  ---------------------------------------------------
  free energy    TOTEN  =       -16.78370344 eV

  energy without entropy =      -16.78370344  energy(sigma->0) =      -16.78370344


--------------------------------------------------------------------------------------------------------




--------------------------------------- Iteration      1(   6)  ---------------------------------------


    POTLOK:  cpu time    0.0431: real time    0.0433
    SETDIJ:  cpu time    0.0039: real time    0.0049
     EDDAV:  cpu time    3.0379: real time    3.0481
       DOS:  cpu time    0.0045: real time    0.0045
    CHARGE:  cpu time    0.2331: real time    0.2334
    MIXING:  cpu time    0.0016: real time    0.0018
    --------------------------------------------
      LOOP:  cpu time    3.3240: real time    3.3360

 eigenvalue-minimisations  :  3946
 total energy-change (2. order) : 0.4791086E+00  (-0.1198797E+00)
 number of electron      20.0000000 magnetization 
 augmentation part       -4.4934978 magnetization 

 Broyden mixing:
  rms(total) = 0.28072E+00    rms(broyden)= 0.28072E+00
  rms(prec ) = 0.28981E+00
  weight for this iteration     100.00

 eigenvalues of (default mixing * dielectric matrix)
  average eigenvalue GAMMA=   1.8404
  1.8404

 Free energy of the ion-electron system (eV)
  ---------------------------------------------------
  alpha Z        PSCENC =         9.60021974
  Ewald energy   TEWEN  =      1168.99755439
  -Hartree energ DENC   =     -1778.92419564
  -exchange      EXHF   =         0.00000000
  -V(xc)+E(xc)   XCENC  =      -238.03757168
  PAW double counting   =       926.81500813     -651.74752254
  entropy T*S    EENTRO =        -0.00000000
  eigenvalues    EBANDS =      -155.43598435
  atomic energy  EATOM  =       702.42789710
  Solvation  Ediel_sol  =         0.00000000
  ---------------------------------------------------
  free energy    TOTEN  =       -16.30459486 eV

  energy without entropy =      -16.30459486  energy(sigma->0) =      -16.30459486


--------------------------------------------------------------------------------------------------------




--------------------------------------- Iteration      1(   7)  ---------------------------------------


    POTLOK:  cpu time    0.0430: real time    0.0433
    SETDIJ:  cpu time    0.0038: real time    0.0038
     EDDAV:  cpu time    3.2177: real time    3.2300
       DOS:  cpu time    0.0048: real time    0.0048
    CHARGE:  cpu time    0.2250: real time    0.2254
    MIXING:  cpu time    0.0016: real time    0.0018
    --------------------------------------------
      LOOP:  cpu time    3.4959: real time    3.5090

 eigenvalue-minimisations  :  4110
 total energy-change (2. order) : 0.2895047E-01  (-0.3201423E-01)
 number of electron      20.0000000 magnetization 
 augmentation part       -4.4842757 magnetization 

 Broyden mixing:
  rms(total) = 0.10331E+00    rms(broyden)= 0.10331E+00
  rms(prec ) = 0.10880E+00
  weight for this iteration     100.00

 eigenvalues of (default mixing * dielectric matrix)
  average eigenvalue GAMMA=   1.7380
  1.3792  2.0967

 Free energy of the ion-electron system (eV)
  ---------------------------------------------------
  alpha Z        PSCENC =         9.60021974
  Ewald energy   TEWEN  =      1168.99755439
  -Hartree energ DENC   =     -1784.13911502
  -exchange      EXHF   =         0.00000000
  -V(xc)+E(xc)   XCENC  =      -237.70316339
  PAW double counting   =      1074.18541025     -799.26663159
  entropy T*S    EENTRO =        -0.00000000
  eigenvalues    EBANDS =      -150.37781587
  atomic energy  EATOM  =       702.42789710
  Solvation  Ediel_sol  =         0.00000000
  ---------------------------------------------------
  free energy    TOTEN  =       -16.27564439 eV

  energy without entropy =      -16.27564439  energy(sigma->0) =      -16.27564439


--------------------------------------------------------------------------------------------------------




--------------------------------------- Iteration      1(   8)  ---------------------------------------


    POTLOK:  cpu time    0.0432: real time    0.0434
    SETDIJ:  cpu time    0.0038: real time    0.0038
     EDDAV:  cpu time    3.3801: real time    3.3937
       DOS:  cpu time    0.0047: real time    0.0047
    CHARGE:  cpu time    0.2221: real time    0.2224
    MIXING:  cpu time    0.0017: real time    0.0017
    --------------------------------------------
      LOOP:  cpu time    3.6556: real time    3.6697

 eigenvalue-minimisations  :  4456
 total energy-change (2. order) : 0.1004415E-01  (-0.4008017E-02)
 number of electron      20.0000000 magnetization 
 augmentation part       -4.4884447 magnetization 

 Broyden mixing:
  rms(total) = 0.20502E-01    rms(broyden)= 0.20502E-01
  rms(prec ) = 0.27949E-01
  weight for this iteration     100.00

 eigenvalues of (default mixing * dielectric matrix)
  average eigenvalue GAMMA=   1.7187
  2.5422  1.3070  1.3070

 Free energy of the ion-electron system (eV)
  ---------------------------------------------------
  alpha Z        PSCENC =         9.60021974
  Ewald energy   TEWEN  =      1168.99755439
  -Hartree energ DENC   =     -1785.80974152
  -exchange      EXHF   =         0.00000000
  -V(xc)+E(xc)   XCENC  =      -237.62782389
  PAW double counting   =      1139.24699945     -864.36741408
  entropy T*S    EENTRO =        -0.00000000
  eigenvalues    EBANDS =      -148.73329143
  atomic energy  EATOM  =       702.42789710
  Solvation  Ediel_sol  =         0.00000000
  ---------------------------------------------------
  free energy    TOTEN  =       -16.26560024 eV

  energy without entropy =      -16.26560024  energy(sigma->0) =      -16.26560024


--------------------------------------------------------------------------------------------------------




--------------------------------------- Iteration      1(   9)  ---------------------------------------


    POTLOK:  cpu time    0.0431: real time    0.0433
    SETDIJ:  cpu time    0.0038: real time    0.0038
     EDDAV:  cpu time    3.2902: real time    3.3005
       DOS:  cpu time    0.0046: real time    0.0045
    CHARGE:  cpu time    0.2219: real time    0.2223
    MIXING:  cpu time    0.0016: real time    0.0016
    --------------------------------------------
      LOOP:  cpu time    3.5652: real time    3.5760

 eigenvalue-minimisations  :  4334
 total energy-change (2. order) : 0.3804369E-02  (-0.6774374E-03)
 number of electron      20.0000000 magnetization 
 augmentation part       -4.4864720 magnetization 

 Broyden mixing:
  rms(total) = 0.10122E-01    rms(broyden)= 0.10122E-01
  rms(prec ) = 0.15690E-01
  weight for this iteration     100.00

 eigenvalues of (default mixing * dielectric matrix)
  average eigenvalue GAMMA=   1.7025
  2.2111  2.2111  1.1939  1.1939

 Free energy of the ion-electron system (eV)
  ---------------------------------------------------
  alpha Z        PSCENC =         9.60021974
  Ewald energy   TEWEN  =      1168.99755439
  -Hartree energ DENC   =     -1787.82964350
  -exchange      EXHF   =         0.00000000
  -V(xc)+E(xc)   XCENC  =      -237.55342348
  PAW double counting   =      1158.02675845     -883.15990774
  entropy T*S    EENTRO =        -0.00000000
  eigenvalues    EBANDS =      -146.77125085
  atomic energy  EATOM  =       702.42789710
  Solvation  Ediel_sol  =         0.00000000
  ---------------------------------------------------
  free energy    TOTEN  =       -16.26179587 eV

  energy without entropy =      -16.26179587  energy(sigma->0) =      -16.26179587


--------------------------------------------------------------------------------------------------------




--------------------------------------- Iteration      1(  10)  ---------------------------------------


    POTLOK:  cpu time    0.0434: real time    0.0436
    SETDIJ:  cpu time    0.0037: real time    0.0037
     EDDAV:  cpu time    3.3329: real time    3.3440
       DOS:  cpu time    0.0046: real time    0.0046
    CHARGE:  cpu time    0.2217: real time    0.2220
    MIXING:  cpu time    0.0018: real time    0.0017
    --------------------------------------------
      LOOP:  cpu time    3.6079: real time    3.6197

 eigenvalue-minimisations  :  4334
 total energy-change (2. order) : 0.1248030E-02  (-0.1197879E-03)
 number of electron      20.0000000 magnetization 
 augmentation part       -4.4852271 magnetization 

 Broyden mixing:
  rms(total) = 0.52553E-02    rms(broyden)= 0.52553E-02
  rms(prec ) = 0.94959E-02
  weight for this iteration     100.00

 eigenvalues of (default mixing * dielectric matrix)
  average eigenvalue GAMMA=   1.8782
  3.3844  2.6011  1.2483  1.2483  0.9089

 Free energy of the ion-electron system (eV)
  ---------------------------------------------------
  alpha Z        PSCENC =         9.60021974
  Ewald energy   TEWEN  =      1168.99755439
  -Hartree energ DENC   =     -1789.09058155
  -exchange      EXHF   =         0.00000000
  -V(xc)+E(xc)   XCENC  =      -237.54312003
  PAW double counting   =      1147.14212942     -872.26455337
  entropy T*S    EENTRO =        -0.00000000
  eigenvalues    EBANDS =      -145.53009355
  atomic energy  EATOM  =       702.42789710
  Solvation  Ediel_sol  =         0.00000000
  ---------------------------------------------------
  free energy    TOTEN  =       -16.26054784 eV

  energy without entropy =      -16.26054784  energy(sigma->0) =      -16.26054784


--------------------------------------------------------------------------------------------------------




--------------------------------------- Iteration      1(  11)  ---------------------------------------


    POTLOK:  cpu time    0.0434: real time    0.0436
    SETDIJ:  cpu time    0.0038: real time    0.0038
     EDDAV:  cpu time    3.3480: real time    3.3576
       DOS:  cpu time    0.0046: real time    0.0047
    CHARGE:  cpu time    0.2286: real time    0.2289
    MIXING:  cpu time    0.0019: real time    0.0019
    --------------------------------------------
      LOOP:  cpu time    3.6303: real time    3.6404

 eigenvalue-minimisations  :  4292
 total energy-change (2. order) : 0.7386870E-03  (-0.1320823E-03)
 number of electron      20.0000000 magnetization 
 augmentation part       -4.4837885 magnetization 

 Broyden mixing:
  rms(total) = 0.33739E-02    rms(broyden)= 0.33739E-02
  rms(prec ) = 0.50405E-02
  weight for this iteration     100.00

 eigenvalues of (default mixing * dielectric matrix)
  average eigenvalue GAMMA=   1.8551
  3.4054  2.2231  2.2231  1.2004  1.2004  0.8781

 Free energy of the ion-electron system (eV)
  ---------------------------------------------------
  alpha Z        PSCENC =         9.60021974
  Ewald energy   TEWEN  =      1168.99755439
  -Hartree energ DENC   =     -1790.74038696
  -exchange      EXHF   =         0.00000000
  -V(xc)+E(xc)   XCENC  =      -237.51076863
  PAW double counting   =      1148.67085303     -873.79235109
  entropy T*S    EENTRO =        -0.00000000
  eigenvalues    EBANDS =      -143.91282675
  atomic energy  EATOM  =       702.42789710
  Solvation  Ediel_sol  =         0.00000000
  ---------------------------------------------------
  free energy    TOTEN  =       -16.25980915 eV

  energy without entropy =      -16.25980915  energy(sigma->0) =      -16.25980915


--------------------------------------------------------------------------------------------------------




--------------------------------------- Iteration      1(  12)  ---------------------------------------


    POTLOK:  cpu time    0.0442: real time    0.0445
    SETDIJ:  cpu time    0.0038: real time    0.0038
     EDDAV:  cpu time    2.9421: real time    2.9499
       DOS:  cpu time    0.0047: real time    0.0047
    CHARGE:  cpu time    0.2331: real time    0.2334
    MIXING:  cpu time    0.0020: real time    0.0020
    --------------------------------------------
      LOOP:  cpu time    3.2299: real time    3.2382

 eigenvalue-minimisations  :  3580
 total energy-change (2. order) :-0.8479787E-03  (-0.3272525E-04)
 number of electron      20.0000000 magnetization 
 augmentation part       -4.4831455 magnetization 

 Broyden mixing:
  rms(total) = 0.19981E-02    rms(broyden)= 0.19981E-02
  rms(prec ) = 0.29304E-02
  weight for this iteration     100.00

 eigenvalues of (default mixing * dielectric matrix)
  average eigenvalue GAMMA=   2.0712
  4.5936  3.1004  2.5077  1.2162  1.2162  1.0257  0.8385

 Free energy of the ion-electron system (eV)
  ---------------------------------------------------
  alpha Z        PSCENC =         9.60021974
  Ewald energy   TEWEN  =      1168.99755439
  -Hartree energ DENC   =     -1791.37257261
  -exchange      EXHF   =         0.00000000
  -V(xc)+E(xc)   XCENC  =      -237.50108482
  PAW double counting   =      1150.75685774     -875.88148480
  entropy T*S    EENTRO =        -0.00000000
  eigenvalues    EBANDS =      -143.28804387
  atomic energy  EATOM  =       702.42789710
  Solvation  Ediel_sol  =         0.00000000
  ---------------------------------------------------
  free energy    TOTEN  =       -16.26065713 eV

  energy without entropy =      -16.26065713  energy(sigma->0) =      -16.26065713


--------------------------------------------------------------------------------------------------------




--------------------------------------- Iteration      1(  13)  ---------------------------------------


    POTLOK:  cpu time    0.0451: real time    0.0453
    SETDIJ:  cpu time    0.0039: real time    0.0050
     EDDAV:  cpu time    2.9932: real time    3.0030
       DOS:  cpu time    0.0044: real time    0.0044
    CHARGE:  cpu time    0.2215: real time    0.2219
    MIXING:  cpu time    0.0019: real time    0.0019
    --------------------------------------------
      LOOP:  cpu time    3.2700: real time    3.2814

 eigenvalue-minimisations  :  3716
 total energy-change (2. order) :-0.4164403E-03  (-0.8309181E-05)
 number of electron      20.0000000 magnetization 
 augmentation part       -4.4829626 magnetization 

 Broyden mixing:
  rms(total) = 0.12355E-02    rms(broyden)= 0.12355E-02
  rms(prec ) = 0.15942E-02
  weight for this iteration     100.00

 eigenvalues of (default mixing * dielectric matrix)
  average eigenvalue GAMMA=   2.2326
  5.5874  3.3044  2.4722  2.1982  1.1663  1.1663  1.0557  0.9106

 Free energy of the ion-electron system (eV)
  ---------------------------------------------------
  alpha Z        PSCENC =         9.60021974
  Ewald energy   TEWEN  =      1168.99755439
  -Hartree energ DENC   =     -1791.77201434
  -exchange      EXHF   =         0.00000000
  -V(xc)+E(xc)   XCENC  =      -237.50022515
  PAW double counting   =      1149.43961738     -874.56286455
  entropy T*S    EENTRO =        -0.00000000
  eigenvalues    EBANDS =      -142.89125815
  atomic energy  EATOM  =       702.42789710
  Solvation  Ediel_sol  =         0.00000000
  ---------------------------------------------------
  free energy    TOTEN  =       -16.26107357 eV

  energy without entropy =      -16.26107357  energy(sigma->0) =      -16.26107357


--------------------------------------------------------------------------------------------------------




--------------------------------------- Iteration      1(  14)  ---------------------------------------


    POTLOK:  cpu time    0.0457: real time    0.0459
    SETDIJ:  cpu time    0.0037: real time    0.0038
     EDDAV:  cpu time    3.1460: real time    3.1549
       DOS:  cpu time    0.0046: real time    0.0047
    CHARGE:  cpu time    0.2287: real time    0.2290
    MIXING:  cpu time    0.0021: real time    0.0021
    --------------------------------------------
      LOOP:  cpu time    3.4308: real time    3.4402

 eigenvalue-minimisations  :  3956
 total energy-change (2. order) :-0.2637246E-03  (-0.4474827E-05)
 number of electron      20.0000000 magnetization 
 augmentation part       -4.4829440 magnetization 

 Broyden mixing:
  rms(total) = 0.41989E-03    rms(broyden)= 0.41989E-03
  rms(prec ) = 0.63590E-03
  weight for this iteration     100.00

 eigenvalues of (default mixing * dielectric matrix)
  average eigenvalue GAMMA=   2.2419
  6.7289  3.0686  2.5305  2.5305  1.1924  1.1924  1.0573  0.9383  0.9383

 Free energy of the ion-electron system (eV)
  ---------------------------------------------------
  alpha Z        PSCENC =         9.60021974
  Ewald energy   TEWEN  =      1168.99755439
  -Hartree energ DENC   =     -1791.98065769
  -exchange      EXHF   =         0.00000000
  -V(xc)+E(xc)   XCENC  =      -237.50014081
  PAW double counting   =      1149.70676093     -874.82936081
  entropy T*S    EENTRO =        -0.00000000
  eigenvalues    EBANDS =      -142.68361016
  atomic energy  EATOM  =       702.42789710
  Solvation  Ediel_sol  =         0.00000000
  ---------------------------------------------------
  free energy    TOTEN  =       -16.26133730 eV

  energy without entropy =      -16.26133730  energy(sigma->0) =      -16.26133730


--------------------------------------------------------------------------------------------------------




--------------------------------------- Iteration      1(  15)  ---------------------------------------


    POTLOK:  cpu time    0.0460: real time    0.0462
    SETDIJ:  cpu time    0.0038: real time    0.0039
     EDDAV:  cpu time    3.0075: real time    3.0168
       DOS:  cpu time    0.0047: real time    0.0047
    CHARGE:  cpu time    0.2301: real time    0.2304
    MIXING:  cpu time    0.0021: real time    0.0021
    --------------------------------------------
      LOOP:  cpu time    3.2941: real time    3.3040

 eigenvalue-minimisations  :  3776
 total energy-change (2. order) :-0.5526884E-04  (-0.2115267E-06)
 number of electron      20.0000000 magnetization 
 augmentation part       -4.4829612 magnetization 

 Broyden mixing:
  rms(total) = 0.35537E-03    rms(broyden)= 0.35537E-03
  rms(prec ) = 0.52290E-03
  weight for this iteration     100.00

 eigenvalues of (default mixing * dielectric matrix)
  average eigenvalue GAMMA=   2.3609
  6.5386  4.2921  2.7150  2.7150  1.9767  1.1444  1.1444  1.2129  0.9349  0.9349

 Free energy of the ion-electron system (eV)
  ---------------------------------------------------
  alpha Z        PSCENC =         9.60021974
  Ewald energy   TEWEN  =      1168.99755439
  -Hartree energ DENC   =     -1791.99570575
  -exchange      EXHF   =         0.00000000
  -V(xc)+E(xc)   XCENC  =      -237.50043895
  PAW double counting   =      1149.55057002     -874.67307039
  entropy T*S    EENTRO =        -0.00000000
  eigenvalues    EBANDS =      -142.66841872
  atomic energy  EATOM  =       702.42789710
  Solvation  Ediel_sol  =         0.00000000
  ---------------------------------------------------
  free energy    TOTEN  =       -16.26139257 eV

  energy without entropy =      -16.26139257  energy(sigma->0) =      -16.26139257


--------------------------------------------------------------------------------------------------------




--------------------------------------- Iteration      1(  16)  ---------------------------------------


    POTLOK:  cpu time    0.0446: real time    0.0448
    SETDIJ:  cpu time    0.0038: real time    0.0038
     EDDAV:  cpu time    2.7183: real time    2.7238
       DOS:  cpu time    0.0044: real time    0.0044
    CHARGE:  cpu time    0.2177: real time    0.2179
    MIXING:  cpu time    0.0021: real time    0.0021
    --------------------------------------------
      LOOP:  cpu time    2.9909: real time    2.9968

 eigenvalue-minimisations  :  3468
 total energy-change (2. order) :-0.4719759E-04  (-0.8532559E-06)
 number of electron      20.0000000 magnetization 
 augmentation part       -4.4829714 magnetization 

 Broyden mixing:
  rms(total) = 0.13205E-03    rms(broyden)= 0.13205E-03
  rms(prec ) = 0.23044E-03
  weight for this iteration     100.00

 eigenvalues of (default mixing * dielectric matrix)
  average eigenvalue GAMMA=   2.2834
  6.7886  4.5234  2.6443  2.6443  2.2694  1.1603  1.1603  1.1973  0.9349  0.9349
  0.8601

 Free energy of the ion-electron system (eV)
  ---------------------------------------------------
  alpha Z        PSCENC =         9.60021974
  Ewald energy   TEWEN  =      1168.99755439
  -Hartree energ DENC   =     -1792.04934415
  -exchange      EXHF   =         0.00000000
  -V(xc)+E(xc)   XCENC  =      -237.50054683
  PAW double counting   =      1149.36790727     -874.49040516
  entropy T*S    EENTRO =        -0.00000000
  eigenvalues    EBANDS =      -142.61472213
  atomic energy  EATOM  =       702.42789710
  Solvation  Ediel_sol  =         0.00000000
  ---------------------------------------------------
  free energy    TOTEN  =       -16.26143976 eV

  energy without entropy =      -16.26143976  energy(sigma->0) =      -16.26143976


--------------------------------------------------------------------------------------------------------




--------------------------------------- Iteration      1(  17)  ---------------------------------------


    POTLOK:  cpu time    0.0427: real time    0.0428
    SETDIJ:  cpu time    0.0037: real time    0.0037
     EDDAV:  cpu time    2.7244: real time    2.7298
       DOS:  cpu time    0.0044: real time    0.0044
    CHARGE:  cpu time    0.2291: real time    0.2293
    MIXING:  cpu time    0.0025: real time    0.0025
    --------------------------------------------
[...]
  band No.  band energies     occupation 
      1     -14.5405      2.00000
      2     -14.2810      2.00000
      3      -8.8071      2.00000
      4      -8.5821      2.00000
      5      -6.0925      2.00000
      6      -5.1159      2.00000
      7      -4.8260      2.00000
      8      -4.0678      2.00000
      9      -3.8643      2.00000
     10      -3.0730      2.00000
     11       0.1540      0.00000
     12       1.1053      0.00000
     13       1.2082      0.00000
     14       1.6113      0.00000

 k-point    96 :      -0.2000    0.4000    0.0000
  band No.  band energies     occupation 
      1     -14.6114      2.00000
      2     -14.3044      2.00000
      3      -8.9733      2.00000
      4      -8.6851      2.00000
      5      -5.6513      2.00000
      6      -4.8173      2.00000
      7      -4.5615      2.00000
      8      -3.9295      2.00000
      9      -3.4939      2.00000
     10      -2.6883      2.00000
     11      -0.3319      0.00000
     12       0.5850      0.00000
     13       0.7246      0.00000
     14       1.2569      0.00000

 k-point    97 :      -0.1333    0.4000    0.0000
  band No.  band energies     occupation 
      1     -14.6681      2.00000
      2     -14.3276      2.00000
      3      -9.1020      2.00000
      4      -8.7700      2.00000
      5      -5.1280      2.00000
      6      -4.7515      2.00000
      7      -4.1498      2.00000
      8      -3.8856      2.00000
      9      -2.9183      2.00000
     10      -2.4473      2.00000
     11      -0.6283      0.00000
     12      -0.1587      0.00000
     13       0.5000      0.00000
     14       0.8213      0.00000

 k-point    98 :      -0.0667    0.4000    0.0000
  band No.  band energies     occupation 
      1     -14.7046      2.00000
      2     -14.3443      2.00000
      3      -9.1825      2.00000
      4      -8.8253      2.00000
      5      -4.7566      2.00000
      6      -4.5839      2.00000
      7      -3.9174      2.00000
      8      -3.7355      2.00000
      9      -2.6165      2.00000
     10      -2.3305      2.00000
     11      -0.7653      0.00000
     12      -0.3780      0.00000
     13       0.2431      0.00000
     14       0.3802      0.00000

 k-point    99 :       0.0000    0.4667    0.0000
  band No.  band energies     occupation 
      1     -14.5688      2.00000
      2     -14.4425      2.00000
      3      -9.1959      2.00000
      4      -9.0701      2.00000
      5      -4.5112      2.00000
      6      -4.2865      2.00000
      7      -3.8494      2.00000
      8      -3.6496      2.00000
      9      -2.5320      2.00000
     10      -2.1804      2.00000
     11      -0.9059      0.00000
     12      -0.4549      0.00000
     13      -0.0801      0.00000
     14       0.1239      0.00000

 k-point   100 :       0.0667    0.4667    0.0000
  band No.  band energies     occupation 
      1     -14.5585      2.00000
      2     -14.4344      2.00000
      3      -9.1677      2.00000
      4      -9.0448      2.00000
      5      -4.5256      2.00000
      6      -4.4097      2.00000
      7      -3.9935      2.00000
      8      -3.8628      2.00000
      9      -2.4446      2.00000
     10      -2.3447      2.00000
     11      -0.8121      0.00000
     12      -0.7022      0.00000
     13       0.2950      0.00000
     14       0.6001      0.00000

 k-point   101 :       0.1333    0.4667    0.0000
  band No.  band energies     occupation 
      1     -14.5286      2.00000
      2     -14.4115      2.00000
      3      -9.0842      2.00000
      4      -8.9701      2.00000
      5      -4.8407      2.00000
      6      -4.6422      2.00000
      7      -4.2334      2.00000
      8      -4.0979      2.00000
      9      -2.8305      2.00000
     10      -2.6135      2.00000
     11      -0.5520      0.00000
     12      -0.3118      0.00000
     13       0.8041      0.00000
     14       0.9064      0.00000

 k-point   102 :       0.2000    0.4667    0.0000
  band No.  band energies     occupation 
      1     -14.4832      2.00000
      2     -14.3776      2.00000
      3      -8.9491      2.00000
      4      -8.8503      2.00000
      5      -5.3639      2.00000
      6      -5.0310      2.00000
      7      -4.4171      2.00000
      8      -4.1734      2.00000
      9      -3.3565      2.00000
     10      -3.0503      2.00000
     11      -0.0074      0.00000
     12       0.3562      0.00000
     13       1.0312      0.00000
     14       1.2559      0.00000

 k-point   103 :       0.2667    0.4667    0.0000
  band No.  band energies     occupation 
      1     -14.4282      2.00000
      2     -14.3391      2.00000
      3      -8.7703      2.00000
      4      -8.6940      2.00000
      5      -5.8457      2.00000
      6      -5.4954      2.00000
      7      -4.6225      2.00000
      8      -4.3505      2.00000
      9      -3.6968      2.00000
     10      -3.4200      2.00000
     11       0.5177      0.00000
     12       0.8800      0.00000
     13       1.4469      0.00000
     14       1.6864      0.00000

 k-point   104 :       0.3333    0.4667    0.0000
  band No.  band energies     occupation 
      1     -14.3716      2.00000
      2     -14.3036      2.00000
      3      -8.5643      2.00000
      4      -8.5170      2.00000
      5      -6.2396      2.00000
      6      -5.9176      2.00000
      7      -4.9372      2.00000
      8      -4.6675      2.00000
      9      -3.7977      2.00000
     10      -3.5972      2.00000
     11       0.8669      0.00000
     12       1.1434      0.00000
     13       2.0292      0.00000
     14       2.2899      0.00000

 k-point   105 :       0.4000    0.4667    0.0000
  band No.  band energies     occupation 
      1     -14.3220      2.00000
      2     -14.2793      2.00000
      3      -8.3654      2.00000
      4      -8.3474      2.00000
      5      -6.5117      2.00000
      6      -6.2719      2.00000
      7      -5.2036      2.00000
      8      -5.0019      2.00000
      9      -3.7872      2.00000
     10      -3.6655      2.00000
     11       1.1051      0.00000
     12       1.2776      0.00000
     13       2.5430      0.00000
     14       2.7666      0.00000

 k-point   106 :       0.4667    0.4667    0.0000
  band No.  band energies     occupation 
      1     -14.2874      2.00000
      2     -14.2728      2.00000
      3      -8.2352      2.00000
      4      -8.2333      2.00000
      5      -6.6180      2.00000
      6      -6.5263      2.00000
      7      -5.3130      2.00000
      8      -5.2378      2.00000
      9      -3.7475      2.00000
     10      -3.7064      2.00000
     11       1.2609      0.00000
     12       1.3195      0.00000
     13       2.7231      0.00000
     14       2.8083      0.00000

 k-point   107 :      -0.4667    0.4667    0.0000
  band No.  band energies     occupation 
      1     -14.2874      2.00000
      2     -14.2728      2.00000
      3      -8.2352      2.00000
      4      -8.2333      2.00000
      5      -6.6180      2.00000
      6      -6.5263      2.00000
      7      -5.3130      2.00000
      8      -5.2378      2.00000
      9      -3.7475      2.00000
     10      -3.7064      2.00000
     11       1.2609      0.00000
     12       1.3195      0.00000
     13       2.7231      0.00000
     14       2.8083      0.00000

 k-point   108 :      -0.4000    0.4667    0.0000
  band No.  band energies     occupation 
      1     -14.3220      2.00000
      2     -14.2793      2.00000
      3      -8.3654      2.00000
      4      -8.3474      2.00000
      5      -6.5117      2.00000
      6      -6.2719      2.00000
      7      -5.2036      2.00000
      8      -5.0019      2.00000
      9      -3.7872      2.00000
     10      -3.6655      2.00000
     11       1.1051      0.00000
     12       1.2776      0.00000
     13       2.5430      0.00000
     14       2.7666      0.00000

 k-point   109 :      -0.3333    0.4667    0.0000
  band No.  band energies     occupation 
      1     -14.3716      2.00000
      2     -14.3036      2.00000
      3      -8.5643      2.00000
      4      -8.5170      2.00000
      5      -6.2396      2.00000
      6      -5.9176      2.00000
      7      -4.9372      2.00000
      8      -4.6675      2.00000
      9      -3.7977      2.00000
     10      -3.5972      2.00000
     11       0.8669      0.00000
     12       1.1434      0.00000
     13       2.0292      0.00000
     14       2.2899      0.00000

 k-point   110 :      -0.2667    0.4667    0.0000
  band No.  band energies     occupation 
      1     -14.4282      2.00000
      2     -14.3391      2.00000
      3      -8.7703      2.00000
      4      -8.6940      2.00000
      5      -5.8457      2.00000
      6      -5.4954      2.00000
      7      -4.6225      2.00000
      8      -4.3505      2.00000
      9      -3.6968      2.00000
     10      -3.4200      2.00000
     11       0.5177      0.00000
     12       0.8800      0.00000
     13       1.4469      0.00000
     14       1.6864      0.00000

 k-point   111 :      -0.2000    0.4667    0.0000
  band No.  band energies     occupation 
      1     -14.4832      2.00000
      2     -14.3776      2.00000
      3      -8.9491      2.00000
      4      -8.8503      2.00000
      5      -5.3639      2.00000
      6      -5.0310      2.00000
      7      -4.4171      2.00000
      8      -4.1734      2.00000
      9      -3.3565      2.00000
     10      -3.0503      2.00000
     11      -0.0074      0.00000
     12       0.3562      0.00000
     13       1.0312      0.00000
     14       1.2559      0.00000

 k-point   112 :      -0.1333    0.4667    0.0000
  band No.  band energies     occupation 
      1     -14.5286      2.00000
      2     -14.4115      2.00000
      3      -9.0842      2.00000
      4      -8.9701      2.00000
      5      -4.8407      2.00000
      6      -4.6422      2.00000
      7      -4.2334      2.00000
      8      -4.0979      2.00000
      9      -2.8305      2.00000
     10      -2.6135      2.00000
     11      -0.5520      0.00000
     12      -0.3118      0.00000
     13       0.8041      0.00000
     14       0.9064      0.00000

 k-point   113 :      -0.0667    0.4667    0.0000
  band No.  band energies     occupation 
      1     -14.5585      2.00000
      2     -14.4344      2.00000
      3      -9.1677      2.00000
      4      -9.0448      2.00000
      5      -4.5256      2.00000
      6      -4.4097      2.00000
      7      -3.9935      2.00000
      8      -3.8628      2.00000
      9      -2.4446      2.00000
     10      -2.3447      2.00000
     11      -0.8121      0.00000
     12      -0.7022      0.00000
     13       0.2950      0.00000
     14       0.6001      0.00000


--------------------------------------------------------------------------------------------------------


 soft charge-density along one line, spin component           1
         0         1         2         3         4         5         6         7         8         9
 total charge-density along one line
 
 pseudopotential strength for first ion, spin component:           1
 30.067 -23.425   0.000  -0.089   0.034   0.000  -0.140   0.053
-23.425  28.111  -0.000   0.050  -0.019  -0.000   0.082  -0.031
  0.000  -0.000   6.329   0.000  -0.000   9.791   0.000  -0.000
 -0.089   0.050   0.000   6.326   0.002   0.000   9.787   0.003
  0.034  -0.019  -0.000   0.002   6.328  -0.000   0.003   9.789
  0.000  -0.000   9.791   0.000  -0.000  15.218   0.000  -0.000
 -0.140   0.082   0.000   9.787   0.003   0.000  15.211   0.004
  0.053  -0.031  -0.000   0.003   9.789  -0.000   0.004  15.216
 -0.000   0.000   0.007  -0.000   0.000   0.011  -0.000   0.000
  0.000  -0.000  -0.020   0.000  -0.000  -0.031   0.000  -0.000
 -0.002   0.003  -0.000  -0.023  -0.004  -0.000  -0.035  -0.006
  0.003  -0.002  -0.000   0.008  -0.020  -0.000   0.013  -0.031
 -0.001   0.000  -0.000  -0.000   0.008  -0.000  -0.000   0.013
 total augmentation occupancy for first ion, spin component:           1
  2.025  -0.015  -0.000   0.238  -0.084  -0.000  -0.043   0.015  -0.000   0.000   0.023   0.002  -0.001
 -0.015   0.009   0.000  -0.073   0.026  -0.000   0.018  -0.006   0.000  -0.000  -0.002   0.001  -0.000
 -0.000   0.000   1.528   0.000   0.000  -0.412  -0.000  -0.000   0.120  -0.043  -0.000   0.000   0.000
  0.238  -0.073   0.000   1.832  -0.004  -0.000  -0.485  -0.012  -0.000   0.000  -0.265  -0.016  -0.001
 -0.084   0.026   0.000  -0.004   1.524  -0.000  -0.013  -0.407   0.000  -0.000  -0.076  -0.045  -0.004
 -0.000  -0.000  -0.412  -0.000  -0.000   0.120   0.000   0.000  -0.032   0.012   0.000   0.000  -0.000
 -0.043   0.018  -0.000  -0.485  -0.013   0.000   0.140   0.007   0.000  -0.000   0.074   0.004   0.000
  0.015  -0.006  -0.000  -0.012  -0.407   0.000   0.007   0.118  -0.000   0.000   0.020   0.012   0.002
 -0.000   0.000   0.120  -0.000   0.000  -0.032   0.000  -0.000   0.079   0.000   0.000   0.000   0.000
  0.000  -0.000  -0.043   0.000  -0.000   0.012  -0.000   0.000   0.000   0.021  -0.000   0.000  -0.000
  0.023  -0.002  -0.000  -0.265  -0.076   0.000   0.074   0.020   0.000  -0.000   0.079   0.006   0.001
  0.002   0.001   0.000  -0.016  -0.045   0.000   0.004   0.012   0.000   0.000   0.006   0.022   0.000
 -0.001  -0.000   0.000  -0.001  -0.004  -0.000   0.000   0.002   0.000  -0.000   0.001   0.000   0.017


------------------------ aborting loop because EDIFF is reached ----------------------------------------


    CHARGE:  cpu time    0.2230: real time    0.2233
    FORLOC:  cpu time    0.0025: real time    0.0025
    FORNL :  cpu time    0.4131: real time    0.4135
    STRESS:  cpu time    0.7233: real time    0.7252
    FORCOR:  cpu time    0.0465: real time    0.0466
    FORHAR:  cpu time    0.0119: real time    0.0119
    MIXING:  cpu time    0.0010: real time    0.0010
    OFIELD:  cpu time    0.0000: real time    0.0000

  FORCE on cell =-STRESS in cart. coord.  units (eV):
  Direction    XX          YY          ZZ          XY          YZ          ZX
  --------------------------------------------------------------------------------------
  Alpha Z     9.60022     9.60022     9.60022
  Ewald    1624.78442  1627.15493 -2084.25140     0.00000     0.00000    -0.00000
  Hartree  1743.48209  1745.02965 -1697.51707     0.00000     0.00000    -0.00000
  E(xc)     -77.74065   -77.76697   -78.94497    -0.00000     0.00000     0.00000
  Local   -3621.08941 -3624.62747  3526.72404    -0.00000    -0.00000     0.00000
  n-local   162.84450   162.95021   167.20179     0.00000    -0.00000    -0.00000
  augment   -31.87765   -31.84987   -32.78125    -0.00000     0.00000    -0.00000
  Kinetic   190.21155   190.02018   189.96721    -0.00000    -0.00000     0.00000
  Fock        0.00000     0.00000     0.00000     0.00000     0.00000     0.00000
  -------------------------------------------------------------------------------------
  Total       0.21508     0.51089    -0.00143     0.00000    -0.00000    -0.00000
  in kB       0.92519     2.19764    -0.00613     0.00000    -0.00000    -0.00000
  external pressure =        1.04 kB  Pullay stress =        0.00 kB


 VOLUME and BASIS-vectors are now :
 -----------------------------------------------------------------------------
  energy-cutoff  :      600.00
  volume of cell :      372.46
      direct lattice vectors                 reciprocal lattice vectors
     4.382356765  0.000000000  0.000000000     0.228187720  0.000000000  0.000000000
     0.000000000  4.249553079  0.000000000     0.000000000  0.235318863  0.000000000
     0.000000000  0.000000000 20.000000000     0.000000000  0.000000000  0.050000000

  length of vectors
     4.382356765  4.249553079 20.000000000     0.228187720  0.235318863  0.050000000


 FORCES acting on ions
    electron-ion (+dipol)            ewald-force                    non-local-force                 convergence-correction
 -----------------------------------------------------------------------------------------------
   0.413E+01 0.276E-06 -.146E+03   -.556E+01 -.378E-06 0.150E+03   0.142E+01 0.938E-07 -.382E+01   0.146E-04 0.371E-08 -.456E-03
   0.413E+01 -.479E-07 0.146E+03   -.556E+01 0.604E-07 -.150E+03   0.142E+01 -.764E-08 0.382E+01   0.146E-04 0.818E-09 0.459E-03
   -.513E+01 -.435E-06 -.208E+03   0.556E+01 0.459E-06 0.210E+03   -.430E+00 -.124E-07 -.202E+01   -.520E-03 0.148E-07 -.159E-02
   -.513E+01 0.112E-06 0.208E+03   0.556E+01 -.141E-06 -.210E+03   -.430E+00 0.204E-07 0.202E+01   -.519E-03 0.922E-08 0.160E-02
 -----------------------------------------------------------------------------------------------
   -.199E+01 -.949E-07 -.112E-04   0.000E+00 -.124E-14 0.000E+00   0.199E+01 0.942E-07 0.232E-05   -.101E-02 0.285E-07 0.912E-05
 
 
 POSITION                                       TOTAL-FORCE (eV/Angst)
 -----------------------------------------------------------------------------------
      2.53975      3.18716     11.37902        -0.000179     -0.000000     -0.000712
      0.34857      1.06239      8.62098        -0.000179     -0.000000      0.000710
      0.15147      1.06239     11.34123         0.000179      0.000000      0.000744
      2.34265      3.18716      8.65877         0.000179     -0.000000     -0.000742
 -----------------------------------------------------------------------------------
    total drift:                               -0.000288      0.000000      0.000000


--------------------------------------------------------------------------------------------------------



  FREE ENERGIE OF THE ION-ELECTRON SYSTEM (eV)
  ---------------------------------------------------
  free  energy   TOTEN  =       -16.26183633 eV

  energy  without entropy=      -16.26183633  energy(sigma->0) =      -16.26183633
 
 d Force = 0.4283945E-06[ 0.358E-06, 0.499E-06]  d Energy = 0.4285703E-06-0.176E-09
 d Force = 0.4202772E-01[ 0.420E-01, 0.420E-01]  d Ewald  = 0.4202772E-01-0.603E-10


--------------------------------------------------------------------------------------------------------


    POTLOK:  cpu time    0.0491: real time    0.0492


--------------------------------------------------------------------------------------------------------


 Conjugate gradient step on ions:
 trial-energy change:   -0.000000  1 .order   -0.000000   -0.000000   -0.000000
  (g-gl).g = 0.476E-06      g.g   = 0.180E-06  gl.gl    = 0.305E-04
 g(Force)  = 0.180E-06   g(Stress)= 0.000E+00 ortho     = 0.271E-07
 gamma     =   0.01559
 trial     =   2.76425
 opt step  =   9.74821  (harmonic =   9.74821) maximal distance =0.00050471
 next E    =   -16.261837   (d E  =  -0.00000)


--------------------------------------------------------------------------------------------------------


  
 reached required accuracy - stopping structural energy minimisation
 writing wavefunctions
     LOOP+:  cpu time    8.7897: real time    9.0726
    4ORBIT:  cpu time    0.0000: real time    0.0000

 total amount of memory used by VASP MPI-rank0    62535. kBytes
=======================================================================

   base      :      30000. kBytes
   nonl-proj :      12137. kBytes
   fftplans  :       2677. kBytes
   grid      :       4349. kBytes
   one-center:          8. kBytes
   wavefun   :      13364. kBytes
 
  
  
 General timing and accounting informations for this job:
 ========================================================
  
                  Total CPU time used (sec):      213.648
                            User time (sec):      212.761
                          System time (sec):        0.887
                         Elapsed time (sec):      224.747
  
                   Maximum memory used (kb):      209048.
                   Average memory used (kb):           0.
  
                          Minor page faults:       147604
                          Major page faults:          126
                 Voluntary context switches:        11593
