 
             +---------------------------------------------------+
             |                                                   |
             |                   WANNIER90                       |
             |                                                   |
             +---------------------------------------------------+
             |                                                   |
             |        Welcome to the Maximally-Localized         |
             |        Generalized Wannier Functions code         |
             |            http://www.wannier.org                 |
             |                                                   |
             |                                                   |
             |  Wannier90 Developer Group:                       |
             |    Giovanni Pizzi    (EPFL)                       |
             |    Valerio Vitale    (Cambridge)                  |
             |    David Vanderbilt  (Rutgers University)         |
             |    Nicola Marzari    (EPFL)                       |
             |    Ivo Souza         (Universidad del Pais Vasco) |
             |    Arash A. Mostofi  (Imperial College London)    |
             |    Jonathan R. Yates (University of Oxford)       |
             |                                                   |
             |  For the full list of Wannier90 3.x authors,      |
             |  please check the code documentation and the      |
             |  README on the GitHub page of the code            |
             |                                                   |
             |                                                   |
             |  Please cite                                      |
             |                                                   |
             |  [ref] "An updated version of Wannier90:          |
             |        A Tool for Obtaining Maximally Localised   |
             |        Wannier Functions", A. A. Mostofi,         |
             |        J. R. Yates, G. Pizzi, Y. S. Lee,          |
             |        I. Souza, D. Vanderbilt and N. Marzari,    |
             |        Comput. Phys. Commun. 185, 2309 (2014)     |
             |        http://dx.doi.org/10.1016/j.cpc.2014.05.003|
             |                                                   |
             |  in any publications arising from the use of      |
             |  this code. For the method please cite            |
             |                                                   |
             |  [ref] "Maximally Localized Generalised Wannier   |
             |         Functions for Composite Energy Bands"     |
             |         N. Marzari and D. Vanderbilt              |
             |         Phys. Rev. B 56 12847 (1997)              |
             |                                                   |
             |  [ref] "Maximally Localized Wannier Functions     |
             |         for Entangled Energy Bands"               |
             |         I. Souza, N. Marzari and D. Vanderbilt    |
             |         Phys. Rev. B 65 035109 (2001)             |
             |                                                   |
             |                                                   |
             | Copyright (c) 1996-2019                           |
             |        The Wannier90 Developer Group and          |
             |        individual contributors                    |
             |                                                   |
             |      Release: 3.0.0       27th February 2019      |
             |                                                   |
             | This program is free software; you can            |
             | redistribute it and/or modify it under the terms  |
             | of the GNU General Public License as published by |
             | the Free Software Foundation; either version 2 of |
             | the License, or (at your option) any later version|
             |                                                   |
             | This program is distributed in the hope that it   |
             | will be useful, but WITHOUT ANY WARRANTY; without |
             | even the implied warranty of MERCHANTABILITY or   |
             | FITNESS FOR A PARTICULAR PURPOSE. See the GNU     |
             | General Public License for more details.          |
             |                                                   |
             | You should have received a copy of the GNU General|
             | Public License along with this program; if not,   |
             | write to the Free Software Foundation, Inc.,      |
             | 675 Mass Ave, Cambridge, MA 02139, USA.           |
             |                                                   |
             +---------------------------------------------------+
             |    Execution started on 11May2023 at 13:46:05     |
             +---------------------------------------------------+
 
 ******************************************************************************
 * -> Using CODATA 2006 constant values                                       *
 *    (http://physics.nist.gov/cuu/Constants/index.html)                      *
 * -> Using Bohr value from CODATA                                            *
 ******************************************************************************
 

 Running in parallel on   4 CPUs

 
                                    ------
                                    SYSTEM
                                    ------
 
                              Lattice Vectors (Ang)
                    a_1    -2.475359   0.000000   2.475359
                    a_2     0.000000   2.475359   2.475359
                    a_3    -2.475359   2.475359   0.000000
 
                   Unit Cell Volume:      30.33503  (Ang^3)
 
                        Reciprocal-Space Vectors (Ang^-1)
                    b_1    -1.269146  -1.269146   1.269146
                    b_2     1.269146   1.269146   1.269146
                    b_3    -1.269146   1.269146  -1.269146
  
 *----------------------------------------------------------------------------*
 |   Site       Fractional Coordinate          Cartesian Coordinate (Ang)     |
 +----------------------------------------------------------------------------+
 | Pb   1   0.00000   0.00000   0.00000   |    0.00000   0.00000   0.00000    |
 *----------------------------------------------------------------------------*
                                ------------
                                K-POINT GRID
                                ------------
  
             Grid size =  8 x  8 x  8      Total points =  512
  
  
 *---------------------------------- MAIN ------------------------------------*
 |  Number of Wannier Functions               :                 9             |
 |  Number of Objective Wannier Functions     :                 9             |
 |  Number of input Bloch states              :                13             |
 |  Output verbosity (1=low, 5=high)          :                 1             |
 |  Timing Level (1=low, 5=high)              :                 1             |
 |  Optimisation (0=memory, 3=speed)          :                 3             |
 |  Length Unit                               :               Ang             |
 |  Post-processing setup (write *.nnkp)      :                 F             |
 |  Using Gamma-only branch of algorithms     :                 F             |
 |  Wavefunction (UNK) file-type              :       unformatted             |
 |  Wavefunction spin channel                 :                up             |
 *----------------------------------------------------------------------------*
 *------------------------------- WANNIERISE ---------------------------------*
 |  Total number of iterations                :               200             |
 |  Number of CG steps before reset           :                 5             |
 |  Trial step length for line search         :             2.000             |
 |  Convergence tolerence                     :         0.100E-09             |
 |  Convergence window                        :                -1             |
 |  Iterations between writing output         :                 1             |
 |  Iterations between backing up to disk     :               100             |
 |  Write r^2_nm to file                      :                 F             |
 |  Write xyz WF centres to file              :                 F             |
 |  Write on-site energies <0n|H|0n> to file  :                 F             |
 |  Use guiding centre to control phases      :                 F             |
 |  Use phases for initial projections        :                 F             |
 *----------------------------------------------------------------------------*
 *------------------------------- DISENTANGLE --------------------------------*
 |  Using band disentanglement                :                 T             |
 |  Total number of iterations                :                50             |
 |  Mixing ratio                              :             1.000             |
 |  Convergence tolerence                     :         1.000E-10             |
 |  Convergence window                        :                 3             |
 *----------------------------------------------------------------------------*
 *-------------------------------- PLOTTING ----------------------------------*
 |  Plotting Wannier functions                :                 T             |
 |   Size of supercell for plotting           :     3x    3x    3             |
 |   Plotting mode (molecule or crystal)      :           crystal             |
 |   Plotting format                          :          xcrysden             |
 *----------------------------------------------------------------------------*
 |  Plotting Fermi surface                    :                 T             |
 |   Number of plotting points (along b_1)    :                50             |
 |   Plotting format                          :          xcrysden             |
 *----------------------------------------------------------------------------*
 |  Plotting interpolated bandstructure       :                 T             |
 |   Number of K-path sections                :                 5             |
 |   Divisions along first K-path section     :               100             |
 |   Output format                            :           gnuplot             |
 |   Output mode                              :               s-k             |
 *----------------------------------------------------------------------------*
 |   K-space path sections:                                                   |
 |    From: G       0.000  0.000  0.000     To: X       0.500  0.500  0.000   |
 |    From: X       0.500  0.500  0.000     To: W       0.500  0.750  0.250   |
 |    From: W       0.500  0.750  0.250     To: L       0.000  0.500  0.000   |
 |    From: L       0.000  0.500  0.000     To: G       0.000  0.000  0.000   |
 |    From: G       0.000  0.000  0.000     To: K       0.000  0.500 -0.500   |
 *----------------------------------------------------------------------------*
 Time to read parameters        0.060 (sec)

 *---------------------------------- K-MESH ----------------------------------*
 +----------------------------------------------------------------------------+
 |                    Distance to Nearest-Neighbour Shells                    |
 |                    ------------------------------------                    |
 |          Shell             Distance (Ang^-1)          Multiplicity         |
 |          -----             -----------------          ------------         |
 |             1                   0.274778                      8            |
 |             2                   0.317287                      6            |
 |             3                   0.448711                     12            |
 |             4                   0.526160                     24            |
 |             5                   0.549557                      8            |
 |             6                   0.634573                      6            |
 |             7                   0.691510                     24            |
 |             8                   0.709474                     24            |
 |             9                   0.777190                     24            |
 |            10                   0.824335                     32            |
 |            11                   0.897422                     12            |
 |            12                   0.938546                     48            |
 |            13                   0.951860                     30            |
 |            14                   1.003348                     24            |
 |            15                   1.040294                     24            |
 |            16                   1.052321                     24            |
 |            17                   1.099113                      8            |
 |            18                   1.132940                     48            |
 |            19                   1.143993                     24            |
 |            20                   1.187178                     48            |
 |            21                   1.218562                     72            |
 |            22                   1.269146                      6            |
 |            23                   1.298551                     24            |
 |            24                   1.308206                     48            |
 |            25                   1.346133                     36            |
 |            26                   1.373891                     56            |
 |            27                   1.383020                     24            |
 |            28                   1.418949                     24            |
 |            29                   1.445309                     72            |
 |            30                   1.453990                     48            |
 |            31                   1.488206                     24            |
 |            32                   1.513361                     48            |
 |            33                   1.554381                     24            |
 |            34                   1.578481                     72            |
 |            35                   1.586433                     30            |
 |            36                   1.617851                     72            |
 +----------------------------------------------------------------------------+
 | The b-vectors are chosen automatically                                     |
 | The following shells are used:   1                                         |
 +----------------------------------------------------------------------------+
 |                        Shell   # Nearest-Neighbours                        |
 |                        -----   --------------------                        |
 |                          1               8                                 |
 +----------------------------------------------------------------------------+
 | Completeness relation is fully satisfied [Eq. (B1), PRB 56, 12847 (1997)]  |
 +----------------------------------------------------------------------------+
 |                  b_k Vectors (Ang^-1) and Weights (Ang^2)                  |
 |                  ----------------------------------------                  |
 |            No.         b_k(x)      b_k(y)      b_k(z)        w_b           |
 |            ---        --------------------------------     --------        |
 |             1        -0.158643    0.158643   -0.158643     4.966684        |
 |             2         0.158643    0.158643    0.158643     4.966684        |
 |             3        -0.158643   -0.158643    0.158643     4.966684        |
 |             4        -0.158643    0.158643    0.158643     4.966684        |
 |             5         0.158643   -0.158643    0.158643     4.966684        |
 |             6        -0.158643   -0.158643   -0.158643     4.966684        |
 |             7         0.158643    0.158643   -0.158643     4.966684        |
 |             8         0.158643   -0.158643   -0.158643     4.966684        |
 +----------------------------------------------------------------------------+
 |                           b_k Directions (Ang^-1)                          |
 |                           -----------------------                          |
 |            No.           x           y           z                         |
 |            ---        --------------------------------                     |
 |             1        -0.158643    0.158643   -0.158643                     |
 |             2         0.158643    0.158643    0.158643                     |
 |             3        -0.158643   -0.158643    0.158643                     |
 |             4        -0.158643    0.158643    0.158643                     |
 +----------------------------------------------------------------------------+
  
 Time to get kmesh              0.250 (sec)
 *============================================================================*
 |                              MEMORY ESTIMATE                               |
 |         Maximum RAM allocated during each phase of the calculation         |
 *============================================================================*
 |                        Disentanglement           18.45 Mb                  |
 |                            Wannierise:           15.23 Mb                  |
 |                          plot_wannier:           15.23 Mb                  |
 *----------------------------------------------------------------------------*
  
 Starting a new Wannier90 calculation ...


 Reading overlaps from ex3.mmn    :  Created on 11May2023 at 13:44:38

 Reading projections from ex3.amn :  Created on 11May2023 at 13:44:22

 Time to read overlaps          0.410 (sec)

 *------------------------------- DISENTANGLE --------------------------------*
 +----------------------------------------------------------------------------+
 |                              Energy  Windows                               |
 |                              ---------------                               |
 |                   Outer:   -5.97702  to   38.00000  (eV)                   |
 |                   Inner:   -5.97702  to   16.00000  (eV)                   |
 +----------------------------------------------------------------------------+
   Number of target bands to extract:    9

                   Unitarised projection of Wannier functions                  
                   ------------------------------------------                  
   A_mn = <psi_m|g_n> --> S = A.A^+ --> U = S^-1/2.A
   In dis_project... done
   Using an inner window (linner = T)
   In dis_proj_froz... done

                   Extraction of optimally-connected subspace                  
                   ------------------------------------------                  
 +---------------------------------------------------------------------+<-- DIS
 |  Iter     Omega_I(i-1)      Omega_I(i)      Delta (frac.)    Time   |<-- DIS
 +---------------------------------------------------------------------+<-- DIS
       1      10.88834697      10.51900306       3.511E-02      0.00    <-- DIS
       2      10.51165167      10.50292711       8.307E-04      0.01    <-- DIS
       3      10.50243382      10.50190571       5.029E-05      0.01    <-- DIS
       4      10.50181204      10.50172218       8.556E-06      0.02    <-- DIS
       5      10.50169750      10.50167568       2.078E-06      0.02    <-- DIS
       6      10.50166858      10.50166301       5.303E-07      0.03    <-- DIS
       7      10.50166084      10.50165945       1.322E-07      0.04    <-- DIS
       8      10.50165873      10.50165841       3.048E-08      0.04    <-- DIS
       9      10.50165815      10.50165809       5.610E-09      0.05    <-- DIS
      10      10.50165798      10.50165798       1.824E-10      0.05    <-- DIS
      11      10.50165794      10.50165794      -6.323E-10      0.06    <-- DIS
      12      10.50165792      10.50165793      -5.203E-10      0.06    <-- DIS
      13      10.50165792      10.50165792      -3.201E-10      0.07    <-- DIS
      14      10.50165792      10.50165792      -1.789E-10      0.08    <-- DIS
      15      10.50165791      10.50165792      -9.592E-11      0.08    <-- DIS
      16      10.50165791      10.50165792      -5.045E-11      0.09    <-- DIS
      17      10.50165791      10.50165791      -2.629E-11      0.10    <-- DIS

             <<<      Delta < 1.000E-10  over  3 iterations     >>>
             <<< Disentanglement convergence criteria satisfied >>>

        Final Omega_I    10.50165791 (Ang^2)

 +----------------------------------------------------------------------------+

 Time to disentangle bands      0.188 (sec)

 Writing checkpoint file ex3.chk... done

 
 *------------------------------- WANNIERISE ---------------------------------*
 +--------------------------------------------------------------------+<-- CONV
 | Iter  Delta Spread     RMS Gradient      Spread (Ang^2)      Time  |<-- CONV
 +--------------------------------------------------------------------+<-- CONV
 
 ------------------------------------------------------------------------------
 Initial State
  WF centre and spread    1  (  0.375532,  0.375531,  0.375228 )     2.70102653
  WF centre and spread    2  (  0.375603, -0.375429, -0.375389 )     2.70108617
  WF centre and spread    3  ( -0.375655,  0.375357, -0.375309 )     2.70093525
  WF centre and spread    4  ( -0.375368, -0.375440,  0.375328 )     2.70070649
  WF centre and spread    5  (  0.000000,  0.000000, -0.000000 )     0.63170219
  WF centre and spread    6  (  0.000001, -0.000000,  0.000002 )     0.62742794
  WF centre and spread    7  ( -0.000000,  0.000001, -0.000002 )     0.62738421
  WF centre and spread    8  ( -0.000000, -0.000000,  0.000000 )     0.63171478
  WF centre and spread    9  ( -0.000001, -0.000002,  0.000000 )     0.62737461
  Sum of centres and spreads (  0.000112,  0.000019, -0.000141 )    13.94935817
 
      0     0.139E+02     0.0000000000       13.9493581655       0.24  <-- CONV
        O_D=      0.0718365 O_OD=      3.3758637 O_TOT=     13.9493582 <-- SPRD
 ------------------------------------------------------------------------------
 Cycle:      1
  WF centre and spread    1  (  0.374797,  0.374806,  0.374493 )     2.63470665
  WF centre and spread    2  (  0.374872, -0.374688, -0.374665 )     2.63475555
  WF centre and spread    3  ( -0.374932,  0.374614, -0.374581 )     2.63462003
  WF centre and spread    4  ( -0.374623, -0.374712,  0.374611 )     2.63439163
  WF centre and spread    5  (  0.000000,  0.000000, -0.000000 )     0.58864470
  WF centre and spread    6  ( -0.000001,  0.000000, -0.000004 )     0.58601701
  WF centre and spread    7  ( -0.000000, -0.000003,  0.000003 )     0.58595731
  WF centre and spread    8  ( -0.000000, -0.000000,  0.000000 )     0.58862602
  WF centre and spread    9  (  0.000002,  0.000003,  0.000000 )     0.58592808
  Sum of centres and spreads (  0.000114,  0.000020, -0.000143 )    13.47364698
 
      1    -0.476E+00     0.2958350833       13.4736469791       0.25  <-- CONV
        O_D=      0.0320698 O_OD=      2.9399192 O_TOT=     13.4736470 <-- SPRD
 Delta: O_D= -0.3976673E-01 O_OD= -0.4359445E+00 O_TOT= -0.4757112E+00 <-- DLTA
 ------------------------------------------------------------------------------
 Cycle:      2
  WF centre and spread    1  (  0.374194,  0.374216,  0.373893 )     2.59846908
  WF centre and spread    2  (  0.374271, -0.374083, -0.374074 )     2.59851846
  WF centre and spread    3  ( -0.374341,  0.374006, -0.373986 )     2.59838238
  WF centre and spread    4  ( -0.374013, -0.374119,  0.374026 )     2.59813865
  WF centre and spread    5  (  0.000000,  0.000000, -0.000000 )     0.57116968
  WF centre and spread    6  ( -0.000001, -0.000000, -0.000007 )     0.56846976
  WF centre and spread    7  ( -0.000000, -0.000004,  0.000005 )     0.56834435
  WF centre and spread    8  ( -0.000000, -0.000000, -0.000000 )     0.57114615
  WF centre and spread    9  (  0.000003,  0.000004, -0.000000 )     0.56831484
  Sum of centres and spreads (  0.000112,  0.000019, -0.000143 )    13.24095337
 
      2    -0.233E+00     0.2760795275       13.2409533660       0.26  <-- CONV
        O_D=      0.0129678 O_OD=      2.7263277 O_TOT=     13.2409534 <-- SPRD
 Delta: O_D= -0.1910203E-01 O_OD= -0.2135916E+00 O_TOT= -0.2326936E+00 <-- DLTA
 ------------------------------------------------------------------------------
 Cycle:      3
  WF centre and spread    1  (  0.374299,  0.374328,  0.373996 )     2.58153768
  WF centre and spread    2  (  0.374378, -0.374185, -0.374186 )     2.58158863
  WF centre and spread    3  ( -0.374455,  0.374104, -0.374094 )     2.58146741
  WF centre and spread    4  ( -0.374110, -0.374228,  0.374141 )     2.58124234
  WF centre and spread    5  (  0.000000, -0.000000,  0.000000 )     0.56214302
  WF centre and spread    6  ( -0.000001, -0.000000, -0.000006 )     0.56159631
  WF centre and spread    7  ( -0.000000, -0.000004,  0.000005 )     0.56156540
  WF centre and spread    8  ( -0.000000,  0.000000, -0.000000 )     0.56213321
  WF centre and spread    9  (  0.000002,  0.000004,  0.000000 )     0.56155545
  Sum of centres and spreads (  0.000112,  0.000018, -0.000143 )    13.13482945
 
      3    -0.106E+00     0.2207878453       13.1348294512       0.28  <-- CONV
        O_D=      0.0064356 O_OD=      2.6267360 O_TOT=     13.1348295 <-- SPRD
 Delta: O_D= -0.6532205E-02 O_OD= -0.9959171E-01 O_TOT= -0.1061239E+00 <-- DLTA
 ------------------------------------------------------------------------------
 Cycle:      4
  WF centre and spread    1  (  0.374907,  0.374942,  0.374601 )     2.57423046
  WF centre and spread    2  (  0.374988, -0.374790, -0.374798 )     2.57428308
  WF centre and spread    3  ( -0.375071,  0.374707, -0.374703 )     2.57416284
  WF centre and spread    4  ( -0.374712, -0.374841,  0.374757 )     2.57394616
  WF centre and spread    5  ( -0.000000, -0.000000,  0.000000 )     0.55878936
  WF centre and spread    6  ( -0.000001, -0.000000, -0.000006 )     0.55928891
  WF centre and spread    7  ( -0.000000, -0.000004,  0.000005 )     0.55928360
  WF centre and spread    8  ( -0.000000,  0.000000, -0.000000 )     0.55878964
  WF centre and spread    9  (  0.000002,  0.000004,  0.000001 )     0.55927137
  Sum of centres and spreads (  0.000113,  0.000019, -0.000143 )    13.09204542
 
      4    -0.428E-01     0.1367113371       13.0920454180       0.29  <-- CONV
        O_D=      0.0048255 O_OD=      2.5855620 O_TOT=     13.0920454 <-- SPRD
 Delta: O_D= -0.1610097E-02 O_OD= -0.4117394E-01 O_TOT= -0.4278403E-01 <-- DLTA
 ------------------------------------------------------------------------------
 Cycle:      5
  WF centre and spread    1  (  0.375786,  0.375828,  0.375477 )     2.57065833
  WF centre and spread    2  (  0.375869, -0.375666, -0.375680 )     2.57071044
  WF centre and spread    3  ( -0.375958,  0.375581, -0.375583 )     2.57059133
  WF centre and spread    4  ( -0.375585, -0.375724,  0.375642 )     2.57037563
  WF centre and spread    5  ( -0.000000, -0.000000,  0.000000 )     0.55756834
  WF centre and spread    6  ( -0.000001, -0.000000, -0.000005 )     0.55893108
  WF centre and spread    7  ( -0.000000, -0.000004,  0.000005 )     0.55893620
  WF centre and spread    8  ( -0.000000,  0.000000, -0.000000 )     0.55757037
  WF centre and spread    9  (  0.000002,  0.000004,  0.000001 )     0.55892188
  Sum of centres and spreads (  0.000113,  0.000019, -0.000143 )    13.07426360
 
      5    -0.178E-01     0.0856839333       13.0742635987       0.30  <-- CONV
        O_D=      0.0047378 O_OD=      2.5678679 O_TOT=     13.0742636 <-- SPRD
 Delta: O_D= -0.8770198E-04 O_OD= -0.1769412E-01 O_TOT= -0.1778182E-01 <-- DLTA
 ------------------------------------------------------------------------------
 Cycle:      6
  WF centre and spread    1  (  0.377414,  0.377467,  0.377099 )     2.56627943
  WF centre and spread    2  (  0.377500, -0.377289, -0.377314 )     2.56632817
  WF centre and spread    3  ( -0.377599,  0.377200, -0.377211 )     2.56620996
  WF centre and spread    4  ( -0.377202, -0.377359,  0.377281 )     2.56599533
  WF centre and spread    5  ( -0.000000, -0.000001,  0.000000 )     0.55712678
  WF centre and spread    6  ( -0.000001, -0.000000, -0.000004 )     0.55987021
  WF centre and spread    7  ( -0.000001, -0.000003,  0.000004 )     0.55987787
  WF centre and spread    8  ( -0.000000,  0.000001, -0.000000 )     0.55712576
  WF centre and spread    9  (  0.000002,  0.000003,  0.000001 )     0.55985532
  Sum of centres and spreads (  0.000112,  0.000019, -0.000143 )    13.05866883
 
      6    -0.156E-01     0.0653257681       13.0586688328       0.31  <-- CONV
        O_D=      0.0041494 O_OD=      2.5528615 O_TOT=     13.0586688 <-- SPRD
 Delta: O_D= -0.5883998E-03 O_OD= -0.1500637E-01 O_TOT= -0.1559477E-01 <-- DLTA
 ------------------------------------------------------------------------------
 Cycle:      7
  WF centre and spread    1  (  0.377743,  0.377799,  0.377427 )     2.56470330
  WF centre and spread    2  (  0.377831, -0.377617, -0.377645 )     2.56475248
  WF centre and spread    3  ( -0.377931,  0.377527, -0.377541 )     2.56463496
  WF centre and spread    4  ( -0.377529, -0.377690,  0.377614 )     2.56442021
  WF centre and spread    5  ( -0.000000, -0.000001,  0.000000 )     0.55662637
  WF centre and spread    6  ( -0.000001, -0.000000, -0.000003 )     0.55984537
  WF centre and spread    7  ( -0.000001, -0.000003,  0.000004 )     0.55985861
  WF centre and spread    8  ( -0.000000,  0.000001, -0.000000 )     0.55662641
  WF centre and spread    9  (  0.000001,  0.000003,  0.000002 )     0.55983653
  Sum of centres and spreads (  0.000113,  0.000019, -0.000143 )    13.05130424
 
      7    -0.736E-02     0.0667962781       13.0513042376       0.32  <-- CONV
        O_D=      0.0038332 O_OD=      2.5458131 O_TOT=     13.0513042 <-- SPRD
 Delta: O_D= -0.3161396E-03 O_OD= -0.7048456E-02 O_TOT= -0.7364595E-02 <-- DLTA
 ------------------------------------------------------------------------------
 Cycle:      8
  WF centre and spread    1  (  0.378844,  0.378908,  0.378523 )     2.56179278
  WF centre and spread    2  (  0.378934, -0.378714, -0.378750 )     2.56184218
  WF centre and spread    3  ( -0.379043,  0.378621, -0.378643 )     2.56172563
  WF centre and spread    4  ( -0.378621, -0.378796,  0.378723 )     2.56150838
  WF centre and spread    5  ( -0.000001, -0.000001,  0.000000 )     0.55663129
  WF centre and spread    6  ( -0.000001, -0.000000, -0.000002 )     0.56111773
  WF centre and spread    7  ( -0.000001, -0.000002,  0.000003 )     0.56113804
  WF centre and spread    8  (  0.000000,  0.000001, -0.000000 )     0.55663067
  WF centre and spread    9  (  0.000001,  0.000002,  0.000002 )     0.56110723
  Sum of centres and spreads (  0.000113,  0.000019, -0.000144 )    13.04349393
 
      8    -0.781E-02     0.0453600130       13.0434939346       0.33  <-- CONV
        O_D=      0.0039020 O_OD=      2.5379340 O_TOT=     13.0434939 <-- SPRD
 Delta: O_D=  0.6874339E-04 O_OD= -0.7879046E-02 O_TOT= -0.7810303E-02 <-- DLTA
 ------------------------------------------------------------------------------
 Cycle:      9
  WF centre and spread    1  (  0.381843,  0.381931,  0.381510 )     2.55382169
  WF centre and spread    2  (  0.381940, -0.381701, -0.381762 )     2.55387141
  WF centre and spread    3  ( -0.382070,  0.381600, -0.381643 )     2.55375502
  WF centre and spread    4  ( -0.381596, -0.381809,  0.381746 )     2.55352870
  WF centre and spread    5  ( -0.000001, -0.000002,  0.000001 )     0.55747807
  WF centre and spread    6  ( -0.000000, -0.000001,  0.000001 )     0.56622845
  WF centre and spread    7  ( -0.000001, -0.000000,  0.000001 )     0.56626647
  WF centre and spread    8  (  0.000000,  0.000002, -0.000000 )     0.55747433
  WF centre and spread    9  ( -0.000000, -0.000000,  0.000002 )     0.56619970
  Sum of centres and spreads (  0.000114,  0.000019, -0.000144 )    13.02862384
 
      9    -0.149E-01     0.0539768109       13.0286238399       0.34  <-- CONV
        O_D=      0.0042413 O_OD=      2.5227247 O_TOT=     13.0286238 <-- SPRD
 Delta: O_D=  0.3392786E-03 O_OD= -0.1520937E-01 O_TOT= -0.1487009E-01 <-- DLTA
 ------------------------------------------------------------------------------
 Cycle:     10
  WF centre and spread    1  (  0.389082,  0.389233,  0.388719 )     2.52924000
  WF centre and spread    2  (  0.389198, -0.388913, -0.389036 )     2.52929336
  WF centre and spread    3  ( -0.389383,  0.388789, -0.388889 )     2.52916994
  WF centre and spread    4  ( -0.388775, -0.389087,  0.389050 )     2.52893209
  WF centre and spread    5  ( -0.000002, -0.000005,  0.000002 )     0.55944694
  WF centre and spread    6  (  0.000002, -0.000001,  0.000012 )     0.58632837
  WF centre and spread    7  ( -0.000002,  0.000006, -0.000007 )     0.58644572
  WF centre and spread    8  (  0.000001,  0.000004, -0.000000 )     0.55943913
  WF centre and spread    9  ( -0.000004, -0.000007,  0.000004 )     0.58624610
  Sum of centres and spreads (  0.000115,  0.000020, -0.000146 )    12.99454164
 
     10    -0.341E-01     0.0790342938       12.9945416384       0.35  <-- CONV
        O_D=      0.0070413 O_OD=      2.4858424 O_TOT=     12.9945416 <-- SPRD
 Delta: O_D=  0.2800066E-02 O_OD= -0.3688227E-01 O_TOT= -0.3408220E-01 <-- DLTA
 ------------------------------------------------------------------------------
 Cycle:     11
  WF centre and spread    1  (  0.399901,  0.400156,  0.399484 )     2.46844697
  WF centre and spread    2  (  0.400047, -0.399681, -0.399912 )     2.46854313
  WF centre and spread    3  ( -0.400327,  0.399521, -0.399717 )     2.46837514
  WF centre and spread    4  ( -0.399490, -0.399970,  0.399977 )     2.46817782
  WF centre and spread    5  ( -0.000005, -0.000010,  0.000003 )     0.56155281
  WF centre and spread    6  (  0.000009, -0.000002,  0.000038 )     0.64644004
  WF centre and spread    7  ( -0.000004,  0.000023, -0.000029 )     0.64668969
  WF centre and spread    8  (  0.000002,  0.000009, -0.000000 )     0.56155272
  WF centre and spread    9  ( -0.000013, -0.000025,  0.000006 )     0.64631821
  Sum of centres and spreads (  0.000119,  0.000022, -0.000150 )    12.93609654
 
     11    -0.584E-01     0.1187831830       12.9360965359       0.36  <-- CONV
        O_D=      0.0114639 O_OD=      2.4229747 O_TOT=     12.9360965 <-- SPRD
 Delta: O_D=  0.4422537E-02 O_OD= -0.6286764E-01 O_TOT= -0.5844510E-01 <-- DLTA
 ------------------------------------------------------------------------------
 Cycle:     12
  WF centre and spread    1  (  0.407277,  0.407622,  0.406814 )     2.39100346
  WF centre and spread    2  (  0.407447, -0.407013, -0.407335 )     2.39119467
  WF centre and spread    3  ( -0.407810,  0.406822, -0.407100 )     2.39093239
  WF centre and spread    4  ( -0.406780, -0.407402,  0.407448 )     2.39084600
  WF centre and spread    5  ( -0.000008, -0.000014,  0.000005 )     0.56112855
  WF centre and spread    6  (  0.000019, -0.000003,  0.000069 )     0.73193136
  WF centre and spread    7  ( -0.000005,  0.000044, -0.000059 )     0.73223438
  WF centre and spread    8  (  0.000003,  0.000013, -0.000000 )     0.56114265
  WF centre and spread    9  ( -0.000023, -0.000047,  0.000009 )     0.73180198
  Sum of centres and spreads (  0.000119,  0.000022, -0.000150 )    12.88221543
 
     12    -0.539E-01     0.1332874085       12.8822154348       0.37  <-- CONV
        O_D=      0.0123254 O_OD=      2.3682321 O_TOT=     12.8822154 <-- SPRD
 Delta: O_D=  0.8615767E-03 O_OD= -0.5474268E-01 O_TOT= -0.5388110E-01 <-- DLTA
 ------------------------------------------------------------------------------
 Cycle:     13
  WF centre and spread    1  (  0.407303,  0.407650,  0.406840 )     2.38686774
  WF centre and spread    2  (  0.407474, -0.407040, -0.407362 )     2.38710446
  WF centre and spread    3  ( -0.407838,  0.406848, -0.407127 )     2.38679432
  WF centre and spread    4  ( -0.406805, -0.407430,  0.407476 )     2.38677535
  WF centre and spread    5  ( -0.000008, -0.000015,  0.000005 )     0.55921103
  WF centre and spread    6  (  0.000019, -0.000003,  0.000070 )     0.73186636
  WF centre and spread    7  ( -0.000005,  0.000045, -0.000060 )     0.73219136
  WF centre and spread    8  (  0.000003,  0.000013, -0.000000 )     0.55922136
  WF centre and spread    9  ( -0.000024, -0.000047,  0.000009 )     0.73173891
  Sum of centres and spreads (  0.000118,  0.000021, -0.000149 )    12.86177089
 
     13    -0.204E-01     0.1095236278       12.8617708922       0.38  <-- CONV
        O_D=      0.0097890 O_OD=      2.3503240 O_TOT=     12.8617709 <-- SPRD
 Delta: O_D= -0.2536456E-02 O_OD= -0.1790809E-01 O_TOT= -0.2044454E-01 <-- DLTA
 ------------------------------------------------------------------------------
 Cycle:     14
  WF centre and spread    1  (  0.407341,  0.407692,  0.406877 )     2.37977657
  WF centre and spread    2  (  0.407513, -0.407078, -0.407401 )     2.38001662
  WF centre and spread    3  ( -0.407882,  0.406884, -0.407164 )     2.37971074
  WF centre and spread    4  ( -0.406840, -0.407471,  0.407518 )     2.37966562
  WF centre and spread    5  ( -0.000009, -0.000016,  0.000005 )     0.55701050
  WF centre and spread    6  (  0.000020, -0.000003,  0.000072 )     0.73427912
  WF centre and spread    7  ( -0.000006,  0.000047, -0.000063 )     0.73437476
  WF centre and spread    8  (  0.000003,  0.000015, -0.000000 )     0.55701178
  WF centre and spread    9  ( -0.000025, -0.000049,  0.000009 )     0.73420741
  Sum of centres and spreads (  0.000116,  0.000020, -0.000147 )    12.83605314
 
     14    -0.257E-01     0.0867585797       12.8360531350       0.39  <-- CONV
        O_D=      0.0065884 O_OD=      2.3278068 O_TOT=     12.8360531 <-- SPRD
 Delta: O_D= -0.3200585E-02 O_OD= -0.2251717E-01 O_TOT= -0.2571776E-01 <-- DLTA
 ------------------------------------------------------------------------------
 Cycle:     15
  WF centre and spread    1  (  0.407362,  0.407716,  0.406897 )     2.37552598
  WF centre and spread    2  (  0.407536, -0.407098, -0.407424 )     2.37567508
  WF centre and spread    3  ( -0.407908,  0.406902, -0.407185 )     2.37546899
  WF centre and spread    4  ( -0.406858, -0.407494,  0.407542 )     2.37526846
  WF centre and spread    5  ( -0.000009, -0.000017,  0.000006 )     0.55646967
  WF centre and spread    6  (  0.000021, -0.000003,  0.000075 )     0.73656482
  WF centre and spread    7  ( -0.000006,  0.000049, -0.000065 )     0.73653867
  WF centre and spread    8  (  0.000003,  0.000015, -0.000000 )     0.55646952
  WF centre and spread    9  ( -0.000025, -0.000051,  0.000009 )     0.73652229
  Sum of centres and spreads (  0.000115,  0.000020, -0.000146 )    12.82450348
 
     15    -0.115E-01     0.0752453091       12.8245034800       0.40  <-- CONV
        O_D=      0.0048500 O_OD=      2.3179956 O_TOT=     12.8245035 <-- SPRD
 Delta: O_D= -0.1738449E-02 O_OD= -0.9811206E-02 O_TOT= -0.1154966E-01 <-- DLTA
 ------------------------------------------------------------------------------
 Cycle:     16
  WF centre and spread    1  (  0.407408,  0.407766,  0.406942 )     2.37339315
  WF centre and spread    2  (  0.407584, -0.407144, -0.407473 )     2.37351542
  WF centre and spread    3  ( -0.407959,  0.406947, -0.407232 )     2.37333869
  WF centre and spread    4  ( -0.406902, -0.407542,  0.407591 )     2.37309103
  WF centre and spread    5  ( -0.000009, -0.000017,  0.000006 )     0.55630244
  WF centre and spread    6  (  0.000021, -0.000003,  0.000077 )     0.73828965
  WF centre and spread    7  ( -0.000006,  0.000050, -0.000067 )     0.73825925
  WF centre and spread    8  (  0.000004,  0.000016, -0.000000 )     0.55630287
  WF centre and spread    9  ( -0.000026, -0.000052,  0.000010 )     0.73825288
  Sum of centres and spreads (  0.000116,  0.000020, -0.000147 )    12.82074537
 
     16    -0.376E-02     0.0424514353       12.8207453737       0.41  <-- CONV
        O_D=      0.0046341 O_OD=      2.3144534 O_TOT=     12.8207454 <-- SPRD
 Delta: O_D= -0.2158609E-03 O_OD= -0.3542245E-02 O_TOT= -0.3758106E-02 <-- DLTA
 ------------------------------------------------------------------------------
 Cycle:     17
  WF centre and spread    1  (  0.407491,  0.407852,  0.407022 )     2.37154906
  WF centre and spread    2  (  0.407668, -0.407226, -0.407556 )     2.37166300
  WF centre and spread    3  ( -0.408046,  0.407027, -0.407314 )     2.37149507
  WF centre and spread    4  ( -0.406981, -0.407626,  0.407676 )     2.37123024
  WF centre and spread    5  ( -0.000010, -0.000018,  0.000006 )     0.55627738
  WF centre and spread    6  (  0.000022, -0.000003,  0.000079 )     0.74018401
  WF centre and spread    7  ( -0.000006,  0.000052, -0.000069 )     0.74015835
  WF centre and spread    8  (  0.000004,  0.000017, -0.000000 )     0.55627781
  WF centre and spread    9  ( -0.000027, -0.000054,  0.000010 )     0.74014662
  Sum of centres and spreads (  0.000116,  0.000020, -0.000147 )    12.81898153
 
     17    -0.176E-02     0.0272091055       12.8189815337       0.42  <-- CONV
        O_D=      0.0045450 O_OD=      2.3127786 O_TOT=     12.8189815 <-- SPRD
 Delta: O_D= -0.8909171E-04 O_OD= -0.1674748E-02 O_TOT= -0.1763840E-02 <-- DLTA
 ------------------------------------------------------------------------------
 Cycle:     18
  WF centre and spread    1  (  0.407597,  0.407963,  0.407127 )     2.36979164
  WF centre and spread    2  (  0.407776, -0.407333, -0.407665 )     2.36989795
  WF centre and spread    3  ( -0.408158,  0.407131, -0.407420 )     2.36973819
  WF centre and spread    4  ( -0.407084, -0.407735,  0.407786 )     2.36945823
  WF centre and spread    5  ( -0.000010, -0.000019,  0.000006 )     0.55628362
  WF centre and spread    6  (  0.000023, -0.000003,  0.000081 )     0.74222181
  WF centre and spread    7  ( -0.000006,  0.000053, -0.000072 )     0.74219675
  WF centre and spread    8  (  0.000004,  0.000018, -0.000000 )     0.55628391
  WF centre and spread    9  ( -0.000027, -0.000056,  0.000010 )     0.74218324
  Sum of centres and spreads (  0.000115,  0.000020, -0.000146 )    12.81805534
 
     18    -0.926E-03     0.0198904205       12.8180553375       0.43  <-- CONV
        O_D=      0.0045064 O_OD=      2.3118910 O_TOT=     12.8180553 <-- SPRD
 Delta: O_D= -0.3856090E-04 O_OD= -0.8876353E-03 O_TOT= -0.9261962E-03 <-- DLTA
 ------------------------------------------------------------------------------
 Cycle:     19
  WF centre and spread    1  (  0.407646,  0.408013,  0.407175 )     2.36910722
  WF centre and spread    2  (  0.407825, -0.407381, -0.407714 )     2.36921951
  WF centre and spread    3  ( -0.408209,  0.407179, -0.407468 )     2.36905353
  WF centre and spread    4  ( -0.407131, -0.407784,  0.407836 )     2.36878234
  WF centre and spread    5  ( -0.000010, -0.000019,  0.000006 )     0.55624592
  WF centre and spread    6  (  0.000023, -0.000003,  0.000082 )     0.74296046
  WF centre and spread    7  ( -0.000006,  0.000054, -0.000072 )     0.74293599
  WF centre and spread    8  (  0.000004,  0.000018, -0.000000 )     0.55624616
  WF centre and spread    9  ( -0.000028, -0.000056,  0.000010 )     0.74292111
  Sum of centres and spreads (  0.000115,  0.000020, -0.000146 )    12.81747224
 
     19    -0.583E-03     0.0181064103       12.8174722350       0.44  <-- CONV
        O_D=      0.0044875 O_OD=      2.3113268 O_TOT=     12.8174722 <-- SPRD
 Delta: O_D= -0.1892573E-04 O_OD= -0.5641768E-03 O_TOT= -0.5831025E-03 <-- DLTA
 ------------------------------------------------------------------------------
 Cycle:     20
  WF centre and spread    1  (  0.407835,  0.408208,  0.407361 )     2.36657529
  WF centre and spread    2  (  0.408017, -0.407569, -0.407906 )     2.36669152
  WF centre and spread    3  ( -0.408406,  0.407364, -0.407657 )     2.36652117
  WF centre and spread    4  ( -0.407314, -0.407976,  0.408029 )     2.36625487
  WF centre and spread    5  ( -0.000011, -0.000021,  0.000007 )     0.55621859
  WF centre and spread    6  (  0.000025, -0.000003,  0.000085 )     0.74602989
  WF centre and spread    7  ( -0.000007,  0.000057, -0.000076 )     0.74599992
  WF centre and spread    8  (  0.000005,  0.000019, -0.000000 )     0.55621849
  WF centre and spread    9  ( -0.000029, -0.000059,  0.000011 )     0.74598842
  Sum of centres and spreads (  0.000115,  0.000020, -0.000146 )    12.81649815
 
     20    -0.974E-03     0.0154182294       12.8164981470       0.45  <-- CONV
        O_D=      0.0045206 O_OD=      2.3103197 O_TOT=     12.8164981 <-- SPRD
 Delta: O_D=  0.3305519E-04 O_OD= -0.1007143E-02 O_TOT= -0.9740880E-03 <-- DLTA
 ------------------------------------------------------------------------------
 Cycle:     21
  WF centre and spread    1  (  0.408247,  0.408635,  0.407766 )     2.36069401
  WF centre and spread    2  (  0.408434, -0.407979, -0.408324 )     2.36081304
  WF centre and spread    3  ( -0.408837,  0.407767, -0.408068 )     2.36063821
  WF centre and spread    4  ( -0.407712, -0.408396,  0.408453 )     2.36037456
  WF centre and spread    5  ( -0.000013, -0.000024,  0.000007 )     0.55625333
  WF centre and spread    6  (  0.000028, -0.000004,  0.000094 )     0.75330205
  WF centre and spread    7  ( -0.000008,  0.000063, -0.000085 )     0.75326291
  WF centre and spread    8  (  0.000006,  0.000022, -0.000000 )     0.55625276
  WF centre and spread    9  ( -0.000031, -0.000065,  0.000012 )     0.75325419
  Sum of centres and spreads (  0.000115,  0.000019, -0.000145 )    12.81484506
 
     21    -0.165E-02     0.0197009006       12.8148450614       0.46  <-- CONV
        O_D=      0.0045614 O_OD=      2.3086258 O_TOT=     12.8148451 <-- SPRD
 Delta: O_D=  0.4081775E-04 O_OD= -0.1693903E-02 O_TOT= -0.1653086E-02 <-- DLTA
 ------------------------------------------------------------------------------
 Cycle:     22
  WF centre and spread    1  (  0.409005,  0.409424,  0.408510 )     2.34856592
  WF centre and spread    2  (  0.409204, -0.408732, -0.409095 )     2.34869489
  WF centre and spread    3  ( -0.409635,  0.408506, -0.408824 )     2.34850663
  WF centre and spread    4  ( -0.408442, -0.409170,  0.409234 )     2.34825675
  WF centre and spread    5  ( -0.000016, -0.000030,  0.000009 )     0.55629678
  WF centre and spread    6  (  0.000035, -0.000004,  0.000110 )     0.76848343
  WF centre and spread    7  ( -0.000009,  0.000075, -0.000103 )     0.76844350
  WF centre and spread    8  (  0.000008,  0.000028, -0.000000 )     0.55629653
  WF centre and spread    9  ( -0.000036, -0.000077,  0.000015 )     0.76842512
  Sum of centres and spreads (  0.000114,  0.000019, -0.000145 )    12.81196954
 
     22    -0.288E-02     0.0251436480       12.8119695367       0.47  <-- CONV
        O_D=      0.0049581 O_OD=      2.3053536 O_TOT=     12.8119695 <-- SPRD
 Delta: O_D=  0.3966737E-03 O_OD= -0.3272198E-02 O_TOT= -0.2875525E-02 <-- DLTA
 ------------------------------------------------------------------------------
 Cycle:     23
  WF centre and spread    1  (  0.409991,  0.410454,  0.409474 )     2.32963836
  WF centre and spread    2  (  0.410206, -0.409709, -0.410100 )     2.32976592
  WF centre and spread    3  ( -0.410678,  0.409462, -0.409806 )     2.32957459
  WF centre and spread    4  ( -0.409385, -0.410178,  0.410254 )     2.32932509
  WF centre and spread    5  ( -0.000020, -0.000039,  0.000011 )     0.55636461
  WF centre and spread    6  (  0.000045, -0.000005,  0.000135 )     0.79234646
  WF centre and spread    7  ( -0.000012,  0.000094, -0.000131 )     0.79232119
  WF centre and spread    8  (  0.000011,  0.000037, -0.000000 )     0.55636491
  WF centre and spread    9  ( -0.000044, -0.000096,  0.000019 )     0.79226804
  Sum of centres and spreads (  0.000114,  0.000019, -0.000144 )    12.80796916
 
     23    -0.400E-02     0.0329071482       12.8079691559       0.48  <-- CONV
        O_D=      0.0052797 O_OD=      2.3010315 O_TOT=     12.8079692 <-- SPRD
 Delta: O_D=  0.3216526E-03 O_OD= -0.4322033E-02 O_TOT= -0.4000381E-02 <-- DLTA
 ------------------------------------------------------------------------------
 Cycle:     24
  WF centre and spread    1  (  0.410591,  0.411088,  0.410058 )     2.31510962
  WF centre and spread    2  (  0.410819, -0.410304, -0.410715 )     2.31522807
  WF centre and spread    3  ( -0.411322,  0.410041, -0.410404 )     2.31504410
  WF centre and spread    4  ( -0.409953, -0.410796,  0.410881 )     2.31478592
  WF centre and spread    5  ( -0.000024, -0.000046,  0.000012 )     0.55639027
  WF centre and spread    6  (  0.000052, -0.000006,  0.000153 )     0.81078799
  WF centre and spread    7  ( -0.000014,  0.000108, -0.000151 )     0.81075811
  WF centre and spread    8  (  0.000014,  0.000044, -0.000000 )     0.55639071
  WF centre and spread    9  ( -0.000050, -0.000110,  0.000022 )     0.81069868
  Sum of centres and spreads (  0.000113,  0.000019, -0.000144 )    12.80519347
 
     24    -0.278E-02     0.0327564177       12.8051934737       0.49  <-- CONV
        O_D=      0.0053189 O_OD=      2.2982166 O_TOT=     12.8051935 <-- SPRD
 Delta: O_D=  0.3922984E-04 O_OD= -0.2814912E-02 O_TOT= -0.2775682E-02 <-- DLTA
 ------------------------------------------------------------------------------
 Cycle:     25
  WF centre and spread    1  (  0.410590,  0.411089,  0.410056 )     2.31434659
  WF centre and spread    2  (  0.410819, -0.410302, -0.410715 )     2.31446207
  WF centre and spread    3  ( -0.411323,  0.410038, -0.410403 )     2.31428168
  WF centre and spread    4  ( -0.409951, -0.410797,  0.410881 )     2.31402113
  WF centre and spread    5  ( -0.000024, -0.000046,  0.000012 )     0.55626148
  WF centre and spread    6  (  0.000052, -0.000006,  0.000154 )     0.81127669
  WF centre and spread    7  ( -0.000014,  0.000109, -0.000151 )     0.81123238
  WF centre and spread    8  (  0.000014,  0.000044, -0.000000 )     0.55626170
  WF centre and spread    9  ( -0.000050, -0.000110,  0.000022 )     0.81119183
  Sum of centres and spreads (  0.000113,  0.000019, -0.000143 )    12.80333554
 
     25    -0.186E-02     0.0350246684       12.8033355443       0.51  <-- CONV
        O_D=      0.0050634 O_OD=      2.2966142 O_TOT=     12.8033355 <-- SPRD
 Delta: O_D= -0.2555532E-03 O_OD= -0.1602376E-02 O_TOT= -0.1857929E-02 <-- DLTA
 ------------------------------------------------------------------------------
 Cycle:     26
  WF centre and spread    1  (  0.410592,  0.411097,  0.410055 )     2.31259548
  WF centre and spread    2  (  0.410822, -0.410302, -0.410719 )     2.31270610
  WF centre and spread    3  ( -0.411332,  0.410036, -0.410404 )     2.31253109
  WF centre and spread    4  ( -0.409947, -0.410802,  0.410888 )     2.31227197
  WF centre and spread    5  ( -0.000024, -0.000047,  0.000012 )     0.55618914
  WF centre and spread    6  (  0.000053, -0.000006,  0.000156 )     0.81303567
  WF centre and spread    7  ( -0.000015,  0.000110, -0.000154 )     0.81297245
  WF centre and spread    8  (  0.000014,  0.000045, -0.000000 )     0.55618884
  WF centre and spread    9  ( -0.000051, -0.000112,  0.000022 )     0.81295544
  Sum of centres and spreads (  0.000113,  0.000019, -0.000143 )    12.80144617
 
     26    -0.189E-02     0.0242387877       12.8014461702       0.52  <-- CONV
        O_D=      0.0047937 O_OD=      2.2949946 O_TOT=     12.8014462 <-- SPRD
 Delta: O_D= -0.2697091E-03 O_OD= -0.1619665E-02 O_TOT= -0.1889374E-02 <-- DLTA
 ------------------------------------------------------------------------------
 Cycle:     27
  WF centre and spread    1  (  0.410606,  0.411116,  0.410065 )     2.31099351
  WF centre and spread    2  (  0.410838, -0.410314, -0.410735 )     2.31109579
  WF centre and spread    3  ( -0.411353,  0.410046, -0.410417 )     2.31092983
  WF centre and spread    4  ( -0.409956, -0.410820,  0.410907 )     2.31066457
  WF centre and spread    5  ( -0.000025, -0.000048,  0.000012 )     0.55620841
  WF centre and spread    6  (  0.000054, -0.000006,  0.000159 )     0.81481108
  WF centre and spread    7  ( -0.000015,  0.000112, -0.000156 )     0.81473917
  WF centre and spread    8  (  0.000015,  0.000046, -0.000000 )     0.55620814
  WF centre and spread    9  ( -0.000051, -0.000114,  0.000022 )     0.81473269
  Sum of centres and spreads (  0.000113,  0.000019, -0.000144 )    12.80038319
 
     27    -0.106E-02     0.0213376832       12.8003831911       0.53  <-- CONV
        O_D=      0.0046191 O_OD=      2.2941062 O_TOT=     12.8003832 <-- SPRD
 Delta: O_D= -0.1745955E-03 O_OD= -0.8883836E-03 O_TOT= -0.1062979E-02 <-- DLTA
 ------------------------------------------------------------------------------
 Cycle:     28
  WF centre and spread    1  (  0.410629,  0.411145,  0.410086 )     2.30981728
  WF centre and spread    2  (  0.410863, -0.410336, -0.410761 )     2.30991612
  WF centre and spread    3  ( -0.411383,  0.410065, -0.410440 )     2.30975389
  WF centre and spread    4  ( -0.409974, -0.410846,  0.410935 )     2.30948760
  WF centre and spread    5  ( -0.000025, -0.000048,  0.000012 )     0.55621799
  WF centre and spread    6  (  0.000055, -0.000006,  0.000161 )     0.81622166
  WF centre and spread    7  ( -0.000015,  0.000114, -0.000159 )     0.81614924
  WF centre and spread    8  (  0.000015,  0.000047, -0.000000 )     0.55621802
  WF centre and spread    9  ( -0.000052, -0.000115,  0.000022 )     0.81614424
  Sum of centres and spreads (  0.000113,  0.000019, -0.000144 )    12.79992606
 
     28    -0.457E-03     0.0139851563       12.7999260553       0.54  <-- CONV
        O_D=      0.0046146 O_OD=      2.2936536 O_TOT=     12.7999261 <-- SPRD
 Delta: O_D= -0.4531923E-05 O_OD= -0.4526039E-03 O_TOT= -0.4571358E-03 <-- DLTA
 ------------------------------------------------------------------------------
 Cycle:     29
  WF centre and spread    1  (  0.410663,  0.411184,  0.410116 )     2.30863453
  WF centre and spread    2  (  0.410898, -0.410367, -0.410796 )     2.30873171
  WF centre and spread    3  ( -0.411423,  0.410094, -0.410473 )     2.30857115
  WF centre and spread    4  ( -0.410002, -0.410883,  0.410973 )     2.30830617
  WF centre and spread    5  ( -0.000025, -0.000049,  0.000012 )     0.55622330
  WF centre and spread    6  (  0.000056, -0.000006,  0.000163 )     0.81770617
  WF centre and spread    7  ( -0.000015,  0.000116, -0.000161 )     0.81763392
  WF centre and spread    8  (  0.000015,  0.000048, -0.000000 )     0.55622349
  WF centre and spread    9  ( -0.000053, -0.000117,  0.000023 )     0.81762832
  Sum of centres and spreads (  0.000114,  0.000019, -0.000144 )    12.79965876
 
     29    -0.267E-03     0.0100802957       12.7996587586       0.55  <-- CONV
        O_D=      0.0046185 O_OD=      2.2933824 O_TOT=     12.7996588 <-- SPRD
 Delta: O_D=  0.3917522E-05 O_OD= -0.2712142E-03 O_TOT= -0.2672967E-03 <-- DLTA
 ------------------------------------------------------------------------------
 Cycle:     30
  WF centre and spread    1  (  0.410701,  0.411229,  0.410151 )     2.30750777
  WF centre and spread    2  (  0.410938, -0.410404, -0.410837 )     2.30760217
  WF centre and spread    3  ( -0.411469,  0.410128, -0.410511 )     2.30744458
  WF centre and spread    4  ( -0.410035, -0.410925,  0.411016 )     2.30717839
  WF centre and spread    5  ( -0.000026, -0.000050,  0.000012 )     0.55622053
  WF centre and spread    6  (  0.000057, -0.000006,  0.000166 )     0.81915858
  WF centre and spread    7  ( -0.000015,  0.000118, -0.000164 )     0.81908568
  WF centre and spread    8  (  0.000016,  0.000049, -0.000000 )     0.55622076
  WF centre and spread    9  ( -0.000054, -0.000119,  0.000023 )     0.81907987
  Sum of centres and spreads (  0.000114,  0.000019, -0.000144 )    12.79949834
 
     30    -0.160E-03     0.0081679206       12.7994983380       0.56  <-- CONV
        O_D=      0.0046273 O_OD=      2.2932132 O_TOT=     12.7994983 <-- SPRD
 Delta: O_D=  0.8782389E-05 O_OD= -0.1692030E-03 O_TOT= -0.1604206E-03 <-- DLTA
 ------------------------------------------------------------------------------
 Cycle:     31
  WF centre and spread    1  (  0.410715,  0.411244,  0.410164 )     2.30720052
  WF centre and spread    2  (  0.410952, -0.410417, -0.410852 )     2.30729569
  WF centre and spread    3  ( -0.411485,  0.410141, -0.410525 )     2.30713740
  WF centre and spread    4  ( -0.410047, -0.410940,  0.411032 )     2.30687256
  WF centre and spread    5  ( -0.000026, -0.000051,  0.000012 )     0.55620746
  WF centre and spread    6  (  0.000057, -0.000006,  0.000167 )     0.81953400
  WF centre and spread    7  ( -0.000015,  0.000119, -0.000165 )     0.81946086
  WF centre and spread    8  (  0.000016,  0.000049, -0.000000 )     0.55620766
  WF centre and spread    9  ( -0.000054, -0.000120,  0.000023 )     0.81945495
  Sum of centres and spreads (  0.000114,  0.000019, -0.000144 )    12.79937111
 
     31    -0.127E-03     0.0086034370       12.7993711095       0.57  <-- CONV
        O_D=      0.0046211 O_OD=      2.2930921 O_TOT=     12.7993711 <-- SPRD
 Delta: O_D= -0.6158897E-05 O_OD= -0.1210696E-03 O_TOT= -0.1272285E-03 <-- DLTA
 ------------------------------------------------------------------------------
 Cycle:     32
  WF centre and spread    1  (  0.410763,  0.411299,  0.410208 )     2.30611395
  WF centre and spread    2  (  0.411002, -0.410463, -0.410902 )     2.30620912
  WF centre and spread    3  ( -0.411541,  0.410184, -0.410572 )     2.30605111
  WF centre and spread    4  ( -0.410089, -0.410992,  0.411085 )     2.30578673
  WF centre and spread    5  ( -0.000026, -0.000052,  0.000012 )     0.55618629
  WF centre and spread    6  (  0.000058, -0.000006,  0.000170 )     0.82093616
  WF centre and spread    7  ( -0.000015,  0.000121, -0.000168 )     0.82086143
  WF centre and spread    8  (  0.000017,  0.000050, -0.000000 )     0.55618636
  WF centre and spread    9  ( -0.000055, -0.000122,  0.000023 )     0.82085584
  Sum of centres and spreads (  0.000114,  0.000019, -0.000144 )    12.79918699
 
     32    -0.184E-03     0.0069722430       12.7991869912       0.58  <-- CONV
        O_D=      0.0046261 O_OD=      2.2929029 O_TOT=     12.7991870 <-- SPRD
 Delta: O_D=  0.5039561E-05 O_OD= -0.1891579E-03 O_TOT= -0.1841183E-03 <-- DLTA
 ------------------------------------------------------------------------------
 Cycle:     33
  WF centre and spread    1  (  0.410863,  0.411413,  0.410301 )     2.30369542
  WF centre and spread    2  (  0.411107, -0.410559, -0.411008 )     2.30379067
  WF centre and spread    3  ( -0.411658,  0.410274, -0.410671 )     2.30363297
  WF centre and spread    4  ( -0.410176, -0.411100,  0.411197 )     2.30336900
  WF centre and spread    5  ( -0.000027, -0.000054,  0.000013 )     0.55616477
  WF centre and spread    6  (  0.000061, -0.000006,  0.000176 )     0.82408159
  WF centre and spread    7  ( -0.000016,  0.000126, -0.000175 )     0.82400403
  WF centre and spread    8  (  0.000018,  0.000053, -0.000000 )     0.55616463
  WF centre and spread    9  ( -0.000057, -0.000127,  0.000024 )     0.82399821
  Sum of centres and spreads (  0.000114,  0.000019, -0.000145 )    12.79890130
 
     33    -0.286E-03     0.0083453577       12.7989012998       0.59  <-- CONV
        O_D=      0.0046372 O_OD=      2.2926062 O_TOT=     12.7989013 <-- SPRD
 Delta: O_D=  0.1106502E-04 O_OD= -0.2967563E-03 O_TOT= -0.2856913E-03 <-- DLTA
 ------------------------------------------------------------------------------
 Cycle:     34
  WF centre and spread    1  (  0.411051,  0.411629,  0.410472 )     2.29872962
  WF centre and spread    2  (  0.411303, -0.410738, -0.411207 )     2.29882633
  WF centre and spread    3  ( -0.411880,  0.410442, -0.410857 )     2.29866805
  WF centre and spread    4  ( -0.410338, -0.411304,  0.411409 )     2.29840481
  WF centre and spread    5  ( -0.000030, -0.000058,  0.000013 )     0.55613290
  WF centre and spread    6  (  0.000066, -0.000007,  0.000189 )     0.83056311
  WF centre and spread    7  ( -0.000016,  0.000136, -0.000190 )     0.83048175
  WF centre and spread    8  (  0.000020,  0.000058, -0.000000 )     0.55613277
  WF centre and spread    9  ( -0.000061, -0.000137,  0.000025 )     0.83047504
  Sum of centres and spreads (  0.000114,  0.000019, -0.000145 )    12.79841437
 
     34    -0.487E-03     0.0104535809       12.7984143704       0.60  <-- CONV
        O_D=      0.0047254 O_OD=      2.2920310 O_TOT=     12.7984144 <-- SPRD
 Delta: O_D=  0.8823260E-04 O_OD= -0.5751620E-03 O_TOT= -0.4869294E-03 <-- DLTA
 ------------------------------------------------------------------------------
 Cycle:     35
  WF centre and spread    1  (  0.411306,  0.411927,  0.410704 )     2.29096879
  WF centre and spread    2  (  0.411571, -0.410981, -0.411479 )     2.29106665
  WF centre and spread    3  ( -0.412188,  0.410666, -0.411108 )     2.29090895
  WF centre and spread    4  ( -0.410553, -0.411585,  0.411700 )     2.29064177
  WF centre and spread    5  ( -0.000033, -0.000065,  0.000014 )     0.55611130
  WF centre and spread    6  (  0.000074, -0.000007,  0.000210 )     0.84070106
  WF centre and spread    7  ( -0.000017,  0.000151, -0.000212 )     0.84061630
  WF centre and spread    8  (  0.000023,  0.000065, -0.000000 )     0.55611135
  WF centre and spread    9  ( -0.000067, -0.000152,  0.000026 )     0.84060557
  Sum of centres and spreads (  0.000115,  0.000019, -0.000146 )    12.79773172
 
     35    -0.683E-03     0.0135171086       12.7977317217       0.61  <-- CONV
        O_D=      0.0048111 O_OD=      2.2912627 O_TOT=     12.7977317 <-- SPRD
 Delta: O_D=  0.8565026E-04 O_OD= -0.7682990E-03 O_TOT= -0.6826487E-03 <-- DLTA
 ------------------------------------------------------------------------------
 Cycle:     36
  WF centre and spread    1  (  0.411490,  0.412147,  0.410868 )     2.28422022
  WF centre and spread    2  (  0.411765, -0.411154, -0.411678 )     2.28431954
  WF centre and spread    3  ( -0.412417,  0.410823, -0.411289 )     2.28416207
  WF centre and spread    4  ( -0.410703, -0.411790,  0.411914 )     2.28388966
  WF centre and spread    5  ( -0.000036, -0.000071,  0.000015 )     0.55611074
  WF centre and spread    6  (  0.000081, -0.000007,  0.000227 )     0.84952186
  WF centre and spread    7  ( -0.000018,  0.000165, -0.000231 )     0.84943392
  WF centre and spread    8  (  0.000026,  0.000072, -0.000000 )     0.55611090
  WF centre and spread    9  ( -0.000073, -0.000165,  0.000028 )     0.84942061
  Sum of centres and spreads (  0.000115,  0.000019, -0.000146 )    12.79718954
 
     36    -0.542E-03     0.0138509720       12.7971895365       0.62  <-- CONV
        O_D=      0.0048500 O_OD=      2.2906816 O_TOT=     12.7971895 <-- SPRD
 Delta: O_D=  0.3893078E-04 O_OD= -0.5811160E-03 O_TOT= -0.5421852E-03 <-- DLTA
 ------------------------------------------------------------------------------
 Cycle:     37
  WF centre and spread    1  (  0.411489,  0.412147,  0.410866 )     2.28393719
  WF centre and spread    2  (  0.411764, -0.411152, -0.411677 )     2.28403635
  WF centre and spread    3  ( -0.412417,  0.410821, -0.411288 )     2.28387932
  WF centre and spread    4  ( -0.410700, -0.411789,  0.411914 )     2.28360461
  WF centre and spread    5  ( -0.000036, -0.000072,  0.000015 )     0.55609516
  WF centre and spread    6  (  0.000081, -0.000007,  0.000228 )     0.84978040
  WF centre and spread    7  ( -0.000018,  0.000165, -0.000231 )     0.84968930
  WF centre and spread    8  (  0.000026,  0.000072, -0.000000 )     0.55609530
  WF centre and spread    9  ( -0.000073, -0.000165,  0.000028 )     0.84968031
  Sum of centres and spreads (  0.000115,  0.000019, -0.000146 )    12.79679794
 
     37    -0.392E-03     0.0163314253       12.7967979402       0.63  <-- CONV
        O_D=      0.0047886 O_OD=      2.2903514 O_TOT=     12.7967979 <-- SPRD
 Delta: O_D= -0.6139742E-04 O_OD= -0.3301988E-03 O_TOT= -0.3915963E-03 <-- DLTA
 ------------------------------------------------------------------------------
 Cycle:     38
  WF centre and spread    1  (  0.411486,  0.412148,  0.410862 )     2.28324231
  WF centre and spread    2  (  0.411763, -0.411149, -0.411676 )     2.28334314
  WF centre and spread    3  ( -0.412419,  0.410816, -0.411285 )     2.28318479
  WF centre and spread    4  ( -0.410695, -0.411789,  0.411915 )     2.28290698
  WF centre and spread    5  ( -0.000036, -0.000072,  0.000015 )     0.55611537
  WF centre and spread    6  (  0.000082, -0.000008,  0.000230 )     0.85057851
  WF centre and spread    7  ( -0.000019,  0.000167, -0.000234 )     0.85048469
  WF centre and spread    8  (  0.000026,  0.000073, -0.000000 )     0.55611546
  WF centre and spread    9  ( -0.000074, -0.000167,  0.000028 )     0.85047924
  Sum of centres and spreads (  0.000115,  0.000019, -0.000146 )    12.79645049
 
     38    -0.347E-03     0.0106663027       12.7964504868       0.64  <-- CONV
        O_D=      0.0047263 O_OD=      2.2900663 O_TOT=     12.7964505 <-- SPRD
 Delta: O_D= -0.6231085E-04 O_OD= -0.2851426E-03 O_TOT= -0.3474535E-03 <-- DLTA
 ------------------------------------------------------------------------------
 Cycle:     39
  WF centre and spread    1  (  0.411489,  0.412154,  0.410862 )     2.28255932
  WF centre and spread    2  (  0.411767, -0.411151, -0.411680 )     2.28266152
  WF centre and spread    3  ( -0.412427,  0.410816, -0.411287 )     2.28250233
  WF centre and spread    4  ( -0.410694, -0.411793,  0.411921 )     2.28221979
  WF centre and spread    5  ( -0.000037, -0.000073,  0.000015 )     0.55615047
  WF centre and spread    6  (  0.000082, -0.000008,  0.000232 )     0.85140217
  WF centre and spread    7  ( -0.000019,  0.000168, -0.000236 )     0.85130675
  WF centre and spread    8  (  0.000027,  0.000074, -0.000000 )     0.55615061
  WF centre and spread    9  ( -0.000075, -0.000169,  0.000028 )     0.85130323
  Sum of centres and spreads (  0.000115,  0.000019, -0.000145 )    12.79625621
 
     39    -0.194E-03     0.0090905562       12.7962562087       0.65  <-- CONV
        O_D=      0.0046859 O_OD=      2.2899124 O_TOT=     12.7962562 <-- SPRD
 Delta: O_D= -0.4043455E-04 O_OD= -0.1538435E-03 O_TOT= -0.1942781E-03 <-- DLTA
 ------------------------------------------------------------------------------
 Cycle:     40
  WF centre and spread    1  (  0.411496,  0.412165,  0.410867 )     2.28200871
  WF centre and spread    2  (  0.411775, -0.411157, -0.411688 )     2.28211251
  WF centre and spread    3  ( -0.412438,  0.410820, -0.411293 )     2.28195211
  WF centre and spread    4  ( -0.410697, -0.411802,  0.411930 )     2.28166628
  WF centre and spread    5  ( -0.000037, -0.000074,  0.000015 )     0.55617128
  WF centre and spread    6  (  0.000083, -0.000008,  0.000235 )     0.85209364
  WF centre and spread    7  ( -0.000019,  0.000170, -0.000238 )     0.85199760
  WF centre and spread    8  (  0.000027,  0.000074, -0.000000 )     0.55617155
  WF centre and spread    9  ( -0.000075, -0.000170,  0.000028 )     0.85199494
  Sum of centres and spreads (  0.000115,  0.000019, -0.000145 )    12.79616862
 
     40    -0.876E-04     0.0061148354       12.7961686214       0.66  <-- CONV
        O_D=      0.0046821 O_OD=      2.2898286 O_TOT=     12.7961686 <-- SPRD
 Delta: O_D= -0.3759689E-05 O_OD= -0.8382763E-04 O_TOT= -0.8758731E-04 <-- DLTA
 ------------------------------------------------------------------------------
 Cycle:     41
  WF centre and spread    1  (  0.411506,  0.412180,  0.410875 )     2.28143690
  WF centre and spread    2  (  0.411786, -0.411166, -0.411701 )     2.28154256
  WF centre and spread    3  ( -0.412454,  0.410827, -0.411303 )     2.28138055
  WF centre and spread    4  ( -0.410703, -0.411815,  0.411945 )     2.28109207
  WF centre and spread    5  ( -0.000037, -0.000075,  0.000015 )     0.55618370
  WF centre and spread    6  (  0.000084, -0.000008,  0.000237 )     0.85283090
  WF centre and spread    7  ( -0.000019,  0.000172, -0.000241 )     0.85273434
  WF centre and spread    8  (  0.000027,  0.000075, -0.000000 )     0.55618405
  WF centre and spread    9  ( -0.000076, -0.000172,  0.000028 )     0.85273189
  Sum of centres and spreads (  0.000115,  0.000019, -0.000145 )    12.79611696
 
     41    -0.517E-04     0.0044373493       12.7961169562       0.67  <-- CONV
        O_D=      0.0046818 O_OD=      2.2897772 O_TOT=     12.7961170 <-- SPRD
 Delta: O_D= -0.3037706E-06 O_OD= -0.5136143E-04 O_TOT= -0.5166520E-04 <-- DLTA
 ------------------------------------------------------------------------------
 Cycle:     42
  WF centre and spread    1  (  0.411519,  0.412199,  0.410886 )     2.28083826
  WF centre and spread    2  (  0.411802, -0.411178, -0.411716 )     2.28094554
  WF centre and spread    3  ( -0.412475,  0.410837, -0.411316 )     2.28078217
  WF centre and spread    4  ( -0.410711, -0.411831,  0.411963 )     2.28049101
  WF centre and spread    5  ( -0.000038, -0.000076,  0.000015 )     0.55618812
  WF centre and spread    6  (  0.000085, -0.000008,  0.000240 )     0.85361541
  WF centre and spread    7  ( -0.000019,  0.000174, -0.000244 )     0.85351835
  WF centre and spread    8  (  0.000028,  0.000076, -0.000000 )     0.55618849
  WF centre and spread    9  ( -0.000077, -0.000174,  0.000028 )     0.85351581
  Sum of centres and spreads (  0.000114,  0.000019, -0.000145 )    12.79608315
 
     42    -0.338E-04     0.0036378327       12.7960831480       0.68  <-- CONV
        O_D=      0.0046854 O_OD=      2.2897399 O_TOT=     12.7960831 <-- SPRD
 Delta: O_D=  0.3538945E-05 O_OD= -0.3734712E-04 O_TOT= -0.3380817E-04 <-- DLTA
 ------------------------------------------------------------------------------
 Cycle:     43
  WF centre and spread    1  (  0.411525,  0.412205,  0.410890 )     2.28068765
  WF centre and spread    2  (  0.411807, -0.411183, -0.411722 )     2.28079539
  WF centre and spread    3  ( -0.412482,  0.410841, -0.411321 )     2.28063160
  WF centre and spread    4  ( -0.410715, -0.411837,  0.411969 )     2.28034042
  WF centre and spread    5  ( -0.000038, -0.000076,  0.000015 )     0.55618326
  WF centre and spread    6  (  0.000086, -0.000008,  0.000241 )     0.85380960
  WF centre and spread    7  ( -0.000019,  0.000175, -0.000245 )     0.85371240
  WF centre and spread    8  (  0.000028,  0.000077, -0.000000 )     0.55618363
  WF centre and spread    9  ( -0.000077, -0.000175,  0.000028 )     0.85370982
  Sum of centres and spreads (  0.000114,  0.000019, -0.000145 )    12.79605377
 
     43    -0.294E-04     0.0041248091       12.7960537734       0.70  <-- CONV
        O_D=      0.0046844 O_OD=      2.2897115 O_TOT=     12.7960538 <-- SPRD
 Delta: O_D= -0.9627040E-06 O_OD= -0.2841193E-04 O_TOT= -0.2937463E-04 <-- DLTA
 ------------------------------------------------------------------------------
 Cycle:     44
  WF centre and spread    1  (  0.411542,  0.412228,  0.410905 )     2.28015282
  WF centre and spread    2  (  0.411826, -0.411199, -0.411742 )     2.28026165
  WF centre and spread    3  ( -0.412506,  0.410855, -0.411338 )     2.28009691
  WF centre and spread    4  ( -0.410727, -0.411858,  0.411991 )     2.27980480
  WF centre and spread    5  ( -0.000038, -0.000077,  0.000015 )     0.55617284
  WF centre and spread    6  (  0.000087, -0.000008,  0.000244 )     0.85451613
  WF centre and spread    7  ( -0.000019,  0.000177, -0.000248 )     0.85441837
  WF centre and spread    8  (  0.000028,  0.000078, -0.000000 )     0.55617315
  WF centre and spread    9  ( -0.000078, -0.000177,  0.000028 )     0.85441558
  Sum of centres and spreads (  0.000114,  0.000019, -0.000145 )    12.79601224
 
     44    -0.415E-04     0.0033210114       12.7960122408       0.71  <-- CONV
        O_D=      0.0046875 O_OD=      2.2896669 O_TOT=     12.7960122 <-- SPRD
 Delta: O_D=  0.3085281E-05 O_OD= -0.4461792E-04 O_TOT= -0.4153263E-04 <-- DLTA
 ------------------------------------------------------------------------------
 Cycle:     45
  WF centre and spread    1  (  0.411579,  0.412278,  0.410935 )     2.27893349
  WF centre and spread    2  (  0.411867, -0.411233, -0.411784 )     2.27904459
  WF centre and spread    3  ( -0.412560,  0.410883, -0.411374 )     2.27887782
  WF centre and spread    4  ( -0.410752, -0.411902,  0.412039 )     2.27858357
  WF centre and spread    5  ( -0.000039, -0.000079,  0.000015 )     0.55615811
  WF centre and spread    6  (  0.000089, -0.000008,  0.000251 )     0.85613057
  WF centre and spread    7  ( -0.000019,  0.000182, -0.000255 )     0.85603143
  WF centre and spread    8  (  0.000030,  0.000080, -0.000000 )     0.55615833
  WF centre and spread    9  ( -0.000081, -0.000182,  0.000029 )     0.85602819
  Sum of centres and spreads (  0.000114,  0.000019, -0.000145 )    12.79594610
 
     45    -0.661E-04     0.0039898326       12.7959461049       0.72  <-- CONV
        O_D=      0.0046935 O_OD=      2.2895947 O_TOT=     12.7959461 <-- SPRD
 Delta: O_D=  0.5998956E-05 O_OD= -0.7213482E-04 O_TOT= -0.6613586E-04 <-- DLTA
 ------------------------------------------------------------------------------
 Cycle:     46
  WF centre and spread    1  (  0.411649,  0.412375,  0.410991 )     2.27641625
  WF centre and spread    2  (  0.411945, -0.411297, -0.411865 )     2.27653164
  WF centre and spread    3  ( -0.412663,  0.410934, -0.411442 )     2.27636110
  WF centre and spread    4  ( -0.410797, -0.411987,  0.412131 )     2.27606258
  WF centre and spread    5  ( -0.000042, -0.000083,  0.000016 )     0.55613697
  WF centre and spread    6  (  0.000094, -0.000008,  0.000264 )     0.85946452
  WF centre and spread    7  ( -0.000020,  0.000192, -0.000269 )     0.85936239
  WF centre and spread    8  (  0.000032,  0.000085, -0.000000 )     0.55613717
  WF centre and spread    9  ( -0.000085, -0.000192,  0.000029 )     0.85935907
  Sum of centres and spreads (  0.000114,  0.000019, -0.000145 )    12.79583168
 
     46    -0.114E-03     0.0051021193       12.7958316794       0.73  <-- CONV
        O_D=      0.0047198 O_OD=      2.2894540 O_TOT=     12.7958317 <-- SPRD
 Delta: O_D=  0.2633906E-04 O_OD= -0.1407646E-03 O_TOT= -0.1144255E-03 <-- DLTA
 ------------------------------------------------------------------------------
 Cycle:     47
  WF centre and spread    1  (  0.411741,  0.412505,  0.411063 )     2.27269440
  WF centre and spread    2  (  0.412049, -0.411379, -0.411973 )     2.27281505
  WF centre and spread    3  ( -0.412804,  0.410998, -0.411530 )     2.27264014
  WF centre and spread    4  ( -0.410852, -0.412100,  0.412255 )     2.27233494
  WF centre and spread    5  ( -0.000045, -0.000090,  0.000016 )     0.55612184
  WF centre and spread    6  (  0.000102, -0.000008,  0.000285 )     0.86438876
  WF centre and spread    7  ( -0.000020,  0.000208, -0.000290 )     0.86428262
  WF centre and spread    8  (  0.000035,  0.000092, -0.000000 )     0.55612210
  WF centre and spread    9  ( -0.000092, -0.000207,  0.000030 )     0.86427908
  Sum of centres and spreads (  0.000114,  0.000019, -0.000145 )    12.79567892
 
     47    -0.153E-03     0.0065064778       12.7956789230       0.74  <-- CONV
        O_D=      0.0047435 O_OD=      2.2892775 O_TOT=     12.7956789 <-- SPRD
 Delta: O_D=  0.2368260E-04 O_OD= -0.1764390E-03 O_TOT= -0.1527564E-03 <-- DLTA
 ------------------------------------------------------------------------------
 Cycle:     48
  WF centre and spread    1  (  0.411807,  0.412605,  0.411112 )     2.26945097
  WF centre and spread    2  (  0.412126, -0.411437, -0.412054 )     2.26957523
  WF centre and spread    3  ( -0.412913,  0.411041, -0.411594 )     2.26939737
  WF centre and spread    4  ( -0.410887, -0.412185,  0.412350 )     2.26908775
  WF centre and spread    5  ( -0.000047, -0.000095,  0.000017 )     0.55612102
  WF centre and spread    6  (  0.000108, -0.000009,  0.000302 )     0.86867516
  WF centre and spread    7  ( -0.000021,  0.000221, -0.000308 )     0.86856608
  WF centre and spread    8  (  0.000038,  0.000099, -0.000000 )     0.55612137
  WF centre and spread    9  ( -0.000098, -0.000220,  0.000031 )     0.86856207
  Sum of centres and spreads (  0.000114,  0.000019, -0.000144 )    12.79555702
 
     48    -0.122E-03     0.0065012481       12.7955570249       0.75  <-- CONV
        O_D=      0.0047572 O_OD=      2.2891420 O_TOT=     12.7955570 <-- SPRD
 Delta: O_D=  0.1365859E-04 O_OD= -0.1355567E-03 O_TOT= -0.1218981E-03 <-- DLTA
 ------------------------------------------------------------------------------
 Cycle:     49
  WF centre and spread    1  (  0.411806,  0.412605,  0.411109 )     2.26932765
  WF centre and spread    2  (  0.412125, -0.411435, -0.412053 )     2.26945124
  WF centre and spread    3  ( -0.412914,  0.411039, -0.411592 )     2.26927400
  WF centre and spread    4  ( -0.410884, -0.412185,  0.412350 )     2.26896476
  WF centre and spread    5  ( -0.000047, -0.000096,  0.000017 )     0.55612102
  WF centre and spread    6  (  0.000108, -0.000009,  0.000303 )     0.86880937
  WF centre and spread    7  ( -0.000021,  0.000221, -0.000309 )     0.86869992
  WF centre and spread    8  (  0.000038,  0.000099, -0.000000 )     0.55612139
  WF centre and spread    9  ( -0.000098, -0.000221,  0.000031 )     0.86869655
  Sum of centres and spreads (  0.000114,  0.000019, -0.000144 )    12.79546589
 
     49    -0.911E-04     0.0078550057       12.7954658900       0.76  <-- CONV
        O_D=      0.0047426 O_OD=      2.2890654 O_TOT=     12.7954659 <-- SPRD
 Delta: O_D= -0.1455311E-04 O_OD= -0.7658179E-04 O_TOT= -0.9113490E-04 <-- DLTA
 ------------------------------------------------------------------------------
 Cycle:     50
  WF centre and spread    1  (  0.411802,  0.412606,  0.411104 )     2.26900994
  WF centre and spread    2  (  0.412123, -0.411431, -0.412051 )     2.26913225
  WF centre and spread    3  ( -0.412916,  0.411032, -0.411588 )     2.26895612
  WF centre and spread    4  ( -0.410876, -0.412184,  0.412351 )     2.26864855
  WF centre and spread    5  ( -0.000048, -0.000096,  0.000017 )     0.55613661
  WF centre and spread    6  (  0.000109, -0.000009,  0.000305 )     0.86919670
  WF centre and spread    7  ( -0.000021,  0.000223, -0.000311 )     0.86908700
  WF centre and spread    8  (  0.000038,  0.000100, -0.000000 )     0.55613704
  WF centre and spread    9  ( -0.000098, -0.000222,  0.000031 )     0.86908403
  Sum of centres and spreads (  0.000114,  0.000019, -0.000144 )    12.79538824
 
     50    -0.777E-04     0.0050766085       12.7953882383       0.77  <-- CONV
        O_D=      0.0047289 O_OD=      2.2890014 O_TOT=     12.7953882 <-- SPRD
 Delta: O_D= -0.1367332E-04 O_OD= -0.6397837E-04 O_TOT= -0.7765169E-04 <-- DLTA
 ------------------------------------------------------------------------------
 Cycle:     51
  WF centre and spread    1  (  0.411801,  0.412610,  0.411100 )     2.26868581
  WF centre and spread    2  (  0.412123, -0.411429, -0.412052 )     2.26880686
  WF centre and spread    3  ( -0.412921,  0.411027, -0.411587 )     2.26863196
  WF centre and spread    4  ( -0.410870, -0.412186,  0.412354 )     2.26832548
  WF centre and spread    5  ( -0.000048, -0.000097,  0.000017 )     0.55615561
[...]
  WF centre and spread    8  (  0.000257,  0.000539, -0.000000 )     0.55619310
  WF centre and spread    9  ( -0.000760, -0.001621,  0.000033 )     0.88663939
  Sum of centres and spreads (  0.000114,  0.000017, -0.000145 )    12.79504957
 
    186    -0.209E-06     0.0002035668       12.7950495747       2.38  <-- CONV
        O_D=      0.0047519 O_OD=      2.2886398 O_TOT=     12.7950496 <-- SPRD
 Delta: O_D=  0.2352316E-11 O_OD= -0.2087068E-06 O_TOT= -0.2087045E-06 <-- DLTA
 ------------------------------------------------------------------------------
 Cycle:    187
  WF centre and spread    1  (  0.411751,  0.414852,  0.409655 )     2.25570400
  WF centre and spread    2  (  0.412633, -0.410786, -0.412925 )     2.25583980
  WF centre and spread    3  ( -0.415814,  0.409237, -0.411213 )     2.25565873
  WF centre and spread    4  ( -0.408480, -0.413346,  0.414298 )     2.25535586
  WF centre and spread    5  ( -0.000211, -0.000456,  0.000010 )     0.55617890
  WF centre and spread    6  (  0.000761, -0.000045,  0.002164 )     0.88679838
  WF centre and spread    7  ( -0.000023,  0.001644, -0.002167 )     0.88668206
  WF centre and spread    8  (  0.000258,  0.000540, -0.000000 )     0.55619292
  WF centre and spread    9  ( -0.000761, -0.001622,  0.000033 )     0.88663874
  Sum of centres and spreads (  0.000114,  0.000017, -0.000145 )    12.79504939
 
    187    -0.183E-06     0.0003800930       12.7950493917       2.39  <-- CONV
        O_D=      0.0047519 O_OD=      2.2886396 O_TOT=     12.7950494 <-- SPRD
 Delta: O_D= -0.5299079E-08 O_OD= -0.1777380E-06 O_TOT= -0.1830371E-06 <-- DLTA
 ------------------------------------------------------------------------------
 Cycle:    188
  WF centre and spread    1  (  0.411751,  0.414860,  0.409648 )     2.25570615
  WF centre and spread    2  (  0.412635, -0.410783, -0.412928 )     2.25584192
  WF centre and spread    3  ( -0.415826,  0.409228, -0.411211 )     2.25566092
  WF centre and spread    4  ( -0.408470, -0.413350,  0.414306 )     2.25535808
  WF centre and spread    5  ( -0.000211, -0.000457,  0.000010 )     0.55617813
  WF centre and spread    6  (  0.000765, -0.000046,  0.002174 )     0.88679590
  WF centre and spread    7  ( -0.000023,  0.001652, -0.002178 )     0.88667976
  WF centre and spread    8  (  0.000259,  0.000542, -0.000000 )     0.55619222
  WF centre and spread    9  ( -0.000765, -0.001630,  0.000033 )     0.88663612
  Sum of centres and spreads (  0.000114,  0.000017, -0.000145 )    12.79504920
 
    188    -0.192E-06     0.0002053398       12.7950492001       2.40  <-- CONV
        O_D=      0.0047520 O_OD=      2.2886393 O_TOT=     12.7950492 <-- SPRD
 Delta: O_D=  0.1491867E-06 O_OD= -0.3407516E-06 O_TOT= -0.1915649E-06 <-- DLTA
 ------------------------------------------------------------------------------
 Cycle:    189
  WF centre and spread    1  (  0.411749,  0.414876,  0.409635 )     2.25570899
  WF centre and spread    2  (  0.412637, -0.410777, -0.412933 )     2.25584473
  WF centre and spread    3  ( -0.415846,  0.409214, -0.411206 )     2.25566383
  WF centre and spread    4  ( -0.408450, -0.413357,  0.414319 )     2.25536106
  WF centre and spread    5  ( -0.000213, -0.000460,  0.000010 )     0.55617702
  WF centre and spread    6  (  0.000771, -0.000046,  0.002193 )     0.88679265
  WF centre and spread    7  ( -0.000023,  0.001667, -0.002196 )     0.88667682
  WF centre and spread    8  (  0.000260,  0.000545, -0.000000 )     0.55619125
  WF centre and spread    9  ( -0.000772, -0.001644,  0.000033 )     0.88663260
  Sum of centres and spreads (  0.000114,  0.000017, -0.000145 )    12.79504896
 
    189    -0.243E-06     0.0002918297       12.7950489567       2.41  <-- CONV
        O_D=      0.0047522 O_OD=      2.2886389 O_TOT=     12.7950490 <-- SPRD
 Delta: O_D=  0.1644257E-06 O_OD= -0.4078633E-06 O_TOT= -0.2434376E-06 <-- DLTA
 ------------------------------------------------------------------------------
 Cycle:    190
  WF centre and spread    1  (  0.411746,  0.414904,  0.409611 )     2.25571180
  WF centre and spread    2  (  0.412640, -0.410766, -0.412942 )     2.25584750
  WF centre and spread    3  ( -0.415884,  0.409186, -0.411198 )     2.25566678
  WF centre and spread    4  ( -0.408413, -0.413369,  0.414344 )     2.25536413
  WF centre and spread    5  ( -0.000215, -0.000465,  0.000010 )     0.55617566
  WF centre and spread    6  (  0.000784, -0.000047,  0.002227 )     0.88678946
  WF centre and spread    7  ( -0.000023,  0.001694, -0.002231 )     0.88667418
  WF centre and spread    8  (  0.000264,  0.000551, -0.000000 )     0.55619018
  WF centre and spread    9  ( -0.000784, -0.001671,  0.000033 )     0.88662889
  Sum of centres and spreads (  0.000114,  0.000017, -0.000145 )    12.79504858
 
    190    -0.381E-06     0.0002980607       12.7950485752       2.42  <-- CONV
        O_D=      0.0047523 O_OD=      2.2886384 O_TOT=     12.7950486 <-- SPRD
 Delta: O_D=  0.7688118E-07 O_OD= -0.4583615E-06 O_TOT= -0.3814803E-06 <-- DLTA
 ------------------------------------------------------------------------------
 Cycle:    191
  WF centre and spread    1  (  0.411741,  0.414945,  0.409576 )     2.25571301
  WF centre and spread    2  (  0.412644, -0.410749, -0.412956 )     2.25584868
  WF centre and spread    3  ( -0.415938,  0.409144, -0.411185 )     2.25566820
  WF centre and spread    4  ( -0.408360, -0.413387,  0.414380 )     2.25536568
  WF centre and spread    5  ( -0.000218, -0.000472,  0.000010 )     0.55617488
  WF centre and spread    6  (  0.000801, -0.000048,  0.002278 )     0.88678787
  WF centre and spread    7  ( -0.000022,  0.001733, -0.002281 )     0.88667341
  WF centre and spread    8  (  0.000268,  0.000560, -0.000000 )     0.55618980
  WF centre and spread    9  ( -0.000803, -0.001709,  0.000033 )     0.88662657
  Sum of centres and spreads (  0.000114,  0.000017, -0.000145 )    12.79504809
 
    191    -0.483E-06     0.0003616469       12.7950480922       2.43  <-- CONV
        O_D=      0.0047523 O_OD=      2.2886379 O_TOT=     12.7950481 <-- SPRD
 Delta: O_D= -0.3060716E-08 O_OD= -0.4799633E-06 O_TOT= -0.4830240E-06 <-- DLTA
 ------------------------------------------------------------------------------
 Cycle:    192
  WF centre and spread    1  (  0.411732,  0.415016,  0.409515 )     2.25571262
  WF centre and spread    2  (  0.412652, -0.410719, -0.412979 )     2.25584827
  WF centre and spread    3  ( -0.416032,  0.409072, -0.411162 )     2.25566814
  WF centre and spread    4  ( -0.408266, -0.413418,  0.414441 )     2.25536585
  WF centre and spread    5  ( -0.000224, -0.000485,  0.000009 )     0.55617479
  WF centre and spread    6  (  0.000832, -0.000051,  0.002365 )     0.88678756
  WF centre and spread    7  ( -0.000022,  0.001801, -0.002368 )     0.88667459
  WF centre and spread    8  (  0.000277,  0.000576, -0.000000 )     0.55619046
  WF centre and spread    9  ( -0.000835, -0.001777,  0.000032 )     0.88662502
  Sum of centres and spreads (  0.000114,  0.000017, -0.000145 )    12.79504732
 
    192    -0.773E-06     0.0004770553       12.7950473195       2.44  <-- CONV
        O_D=      0.0047522 O_OD=      2.2886372 O_TOT=     12.7950473 <-- SPRD
 Delta: O_D= -0.2728481E-07 O_OD= -0.7453437E-06 O_TOT= -0.7726286E-06 <-- DLTA
 ------------------------------------------------------------------------------
 Cycle:    193
  WF centre and spread    1  (  0.411731,  0.415019,  0.409512 )     2.25571133
  WF centre and spread    2  (  0.412652, -0.410717, -0.412980 )     2.25584696
  WF centre and spread    3  ( -0.416037,  0.409069, -0.411161 )     2.25566685
  WF centre and spread    4  ( -0.408261, -0.413419,  0.414444 )     2.25536459
  WF centre and spread    5  ( -0.000224, -0.000485,  0.000009 )     0.55617552
  WF centre and spread    6  (  0.000834, -0.000051,  0.002370 )     0.88678850
  WF centre and spread    7  ( -0.000022,  0.001804, -0.002372 )     0.88667560
  WF centre and spread    8  (  0.000277,  0.000577, -0.000000 )     0.55619123
  WF centre and spread    9  ( -0.000836, -0.001780,  0.000032 )     0.88662590
  Sum of centres and spreads (  0.000114,  0.000017, -0.000145 )    12.79504647
 
    193    -0.852E-06     0.0006056909       12.7950464675       2.46  <-- CONV
        O_D=      0.0047522 O_OD=      2.2886364 O_TOT=     12.7950465 <-- SPRD
 Delta: O_D= -0.4159898E-07 O_OD= -0.8104495E-06 O_TOT= -0.8520485E-06 <-- DLTA
 ------------------------------------------------------------------------------
 Cycle:    194
  WF centre and spread    1  (  0.411730,  0.415023,  0.409507 )     2.25570915
  WF centre and spread    2  (  0.412652, -0.410715, -0.412981 )     2.25584476
  WF centre and spread    3  ( -0.416043,  0.409064, -0.411159 )     2.25566469
  WF centre and spread    4  ( -0.408255, -0.413421,  0.414448 )     2.25536245
  WF centre and spread    5  ( -0.000224, -0.000486,  0.000009 )     0.55617669
  WF centre and spread    6  (  0.000836, -0.000051,  0.002376 )     0.88679041
  WF centre and spread    7  ( -0.000022,  0.001809, -0.002378 )     0.88667765
  WF centre and spread    8  (  0.000278,  0.000578, -0.000000 )     0.55619247
  WF centre and spread    9  ( -0.000839, -0.001784,  0.000032 )     0.88662774
  Sum of centres and spreads (  0.000114,  0.000016, -0.000145 )    12.79504599
 
    194    -0.476E-06     0.0004771842       12.7950459915       2.47  <-- CONV
        O_D=      0.0047522 O_OD=      2.2886359 O_TOT=     12.7950460 <-- SPRD
 Delta: O_D= -0.3177954E-07 O_OD= -0.4442493E-06 O_TOT= -0.4760288E-06 <-- DLTA
 ------------------------------------------------------------------------------
 Cycle:    195
  WF centre and spread    1  (  0.411729,  0.415031,  0.409499 )     2.25570529
  WF centre and spread    2  (  0.412653, -0.410711, -0.412983 )     2.25584090
  WF centre and spread    3  ( -0.416054,  0.409055, -0.411155 )     2.25566089
  WF centre and spread    4  ( -0.408243, -0.413425,  0.414455 )     2.25535865
  WF centre and spread    5  ( -0.000225, -0.000488,  0.000009 )     0.55617855
  WF centre and spread    6  (  0.000840, -0.000051,  0.002387 )     0.88679408
  WF centre and spread    7  ( -0.000022,  0.001817, -0.002389 )     0.88668153
  WF centre and spread    8  (  0.000279,  0.000580, -0.000000 )     0.55619442
  WF centre and spread    9  ( -0.000843, -0.001793,  0.000032 )     0.88663128
  Sum of centres and spreads (  0.000114,  0.000016, -0.000145 )    12.79504559
 
    195    -0.404E-06     0.0003651072       12.7950455873       2.48  <-- CONV
        O_D=      0.0047521 O_OD=      2.2886356 O_TOT=     12.7950456 <-- SPRD
 Delta: O_D= -0.8366157E-07 O_OD= -0.3204892E-06 O_TOT= -0.4041508E-06 <-- DLTA
 ------------------------------------------------------------------------------
 Cycle:    196
  WF centre and spread    1  (  0.411727,  0.415042,  0.409489 )     2.25570138
  WF centre and spread    2  (  0.412653, -0.410705, -0.412986 )     2.25583697
  WF centre and spread    3  ( -0.416068,  0.409043, -0.411151 )     2.25565705
  WF centre and spread    4  ( -0.408227, -0.413429,  0.414464 )     2.25535483
  WF centre and spread    5  ( -0.000226, -0.000490,  0.000009 )     0.55618022
  WF centre and spread    6  (  0.000845, -0.000051,  0.002401 )     0.88679796
  WF centre and spread    7  ( -0.000021,  0.001829, -0.002403 )     0.88668566
  WF centre and spread    8  (  0.000280,  0.000582, -0.000000 )     0.55619623
  WF centre and spread    9  ( -0.000848, -0.001804,  0.000032 )     0.88663498
  Sum of centres and spreads (  0.000114,  0.000016, -0.000145 )    12.79504528
 
    196    -0.311E-06     0.0003057342       12.7950452765       2.49  <-- CONV
        O_D=      0.0047519 O_OD=      2.2886355 O_TOT=     12.7950453 <-- SPRD
 Delta: O_D= -0.1671699E-06 O_OD= -0.1436632E-06 O_TOT= -0.3108331E-06 <-- DLTA
 ------------------------------------------------------------------------------
 Cycle:    197
  WF centre and spread    1  (  0.411725,  0.415053,  0.409479 )     2.25569888
  WF centre and spread    2  (  0.412654, -0.410700, -0.412989 )     2.25583444
  WF centre and spread    3  ( -0.416082,  0.409031, -0.411147 )     2.25565462
  WF centre and spread    4  ( -0.408212, -0.413433,  0.414474 )     2.25535243
  WF centre and spread    5  ( -0.000227, -0.000492,  0.000009 )     0.55618128
  WF centre and spread    6  (  0.000850, -0.000052,  0.002415 )     0.88680042
  WF centre and spread    7  ( -0.000021,  0.001840, -0.002417 )     0.88668836
  WF centre and spread    8  (  0.000281,  0.000585, -0.000000 )     0.55619742
  WF centre and spread    9  ( -0.000853, -0.001814,  0.000032 )     0.88663723
  Sum of centres and spreads (  0.000114,  0.000016, -0.000145 )    12.79504506
 
    197    -0.218E-06     0.0003166289       12.7950450586       2.50  <-- CONV
        O_D=      0.0047518 O_OD=      2.2886354 O_TOT=     12.7950451 <-- SPRD
 Delta: O_D= -0.1302152E-06 O_OD= -0.8767431E-07 O_TOT= -0.2178895E-06 <-- DLTA
 ------------------------------------------------------------------------------
 Cycle:    198
  WF centre and spread    1  (  0.411722,  0.415073,  0.409461 )     2.25569795
  WF centre and spread    2  (  0.412656, -0.410691, -0.412996 )     2.25583347
  WF centre and spread    3  ( -0.416110,  0.409010, -0.411140 )     2.25565381
  WF centre and spread    4  ( -0.408185, -0.413442,  0.414492 )     2.25535168
  WF centre and spread    5  ( -0.000228, -0.000495,  0.000009 )     0.55618181
  WF centre and spread    6  (  0.000859, -0.000052,  0.002441 )     0.88680102
  WF centre and spread    7  ( -0.000021,  0.001860, -0.002443 )     0.88668943
  WF centre and spread    8  (  0.000284,  0.000589, -0.000000 )     0.55619818
  WF centre and spread    9  ( -0.000863, -0.001835,  0.000032 )     0.88663744
  Sum of centres and spreads (  0.000114,  0.000016, -0.000145 )    12.79504479
 
    198    -0.267E-06     0.0002225111       12.7950447919       2.51  <-- CONV
        O_D=      0.0047518 O_OD=      2.2886351 O_TOT=     12.7950448 <-- SPRD
 Delta: O_D=  0.9764729E-08 O_OD= -0.2764446E-06 O_TOT= -0.2666799E-06 <-- DLTA
 ------------------------------------------------------------------------------
 Cycle:    199
  WF centre and spread    1  (  0.411722,  0.415075,  0.409459 )     2.25569844
  WF centre and spread    2  (  0.412656, -0.410691, -0.412997 )     2.25583395
  WF centre and spread    3  ( -0.416112,  0.409008, -0.411140 )     2.25565431
  WF centre and spread    4  ( -0.408182, -0.413443,  0.414493 )     2.25535219
  WF centre and spread    5  ( -0.000229, -0.000496,  0.000009 )     0.55618159
  WF centre and spread    6  (  0.000860, -0.000053,  0.002444 )     0.88680042
  WF centre and spread    7  ( -0.000021,  0.001862, -0.002446 )     0.88668887
  WF centre and spread    8  (  0.000284,  0.000590, -0.000000 )     0.55619797
  WF centre and spread    9  ( -0.000864, -0.001836,  0.000032 )     0.88663680
  Sum of centres and spreads (  0.000114,  0.000016, -0.000145 )    12.79504454
 
    199    -0.253E-06     0.0004582814       12.7950445390       2.52  <-- CONV
        O_D=      0.0047518 O_OD=      2.2886349 O_TOT=     12.7950445 <-- SPRD
 Delta: O_D= -0.2022066E-07 O_OD= -0.2327112E-06 O_TOT= -0.2529318E-06 <-- DLTA
 ------------------------------------------------------------------------------
 Cycle:    200
  WF centre and spread    1  (  0.411721,  0.415084,  0.409452 )     2.25570047
  WF centre and spread    2  (  0.412657, -0.410688, -0.413000 )     2.25583595
  WF centre and spread    3  ( -0.416123,  0.409000, -0.411138 )     2.25565639
  WF centre and spread    4  ( -0.408172, -0.413447,  0.414501 )     2.25535430
  WF centre and spread    5  ( -0.000229, -0.000497,  0.000009 )     0.55618079
  WF centre and spread    6  (  0.000863, -0.000053,  0.002454 )     0.88679809
  WF centre and spread    7  ( -0.000021,  0.001870, -0.002456 )     0.88668674
  WF centre and spread    8  (  0.000285,  0.000591, -0.000000 )     0.55619726
  WF centre and spread    9  ( -0.000867, -0.001845,  0.000032 )     0.88663432
  Sum of centres and spreads (  0.000114,  0.000016, -0.000145 )    12.79504431
 
    200    -0.228E-06     0.0002257797       12.7950443106       2.53  <-- CONV
        O_D=      0.0047519 O_OD=      2.2886345 O_TOT=     12.7950443 <-- SPRD
 Delta: O_D=  0.1428103E-06 O_OD= -0.3711741E-06 O_TOT= -0.2283638E-06 <-- DLTA
 ------------------------------------------------------------------------------

 Writing checkpoint file ex3.chk... done

 Final State
  WF centre and spread    1  (  0.411721,  0.415084,  0.409452 )     2.25570047
  WF centre and spread    2  (  0.412657, -0.410688, -0.413000 )     2.25583595
  WF centre and spread    3  ( -0.416123,  0.409000, -0.411138 )     2.25565639
  WF centre and spread    4  ( -0.408172, -0.413447,  0.414501 )     2.25535430
  WF centre and spread    5  ( -0.000229, -0.000497,  0.000009 )     0.55618079
  WF centre and spread    6  (  0.000863, -0.000053,  0.002454 )     0.88679809
  WF centre and spread    7  ( -0.000021,  0.001870, -0.002456 )     0.88668674
  WF centre and spread    8  (  0.000285,  0.000591, -0.000000 )     0.55619726
  WF centre and spread    9  ( -0.000867, -0.001845,  0.000032 )     0.88663432
  Sum of centres and spreads (  0.000114,  0.000016, -0.000145 )    12.79504431
 
         Spreads (Ang^2)       Omega I      =    10.501657915
        ================       Omega D      =     0.004751903
                               Omega OD     =     2.288634493
    Final Spread (Ang^2)       Omega Total  =    12.795044311
 ------------------------------------------------------------------------------
 Time for wannierise            2.198 (sec)

 Writing checkpoint file ex3.chk... done

 *---------------------------------------------------------------------------*
 |                               PLOTTING                                    |
 *---------------------------------------------------------------------------*
 
 
 Calculating interpolated band-structure
 
 Time to calculate interpolated band structure       1.449 (sec)
 
 
 Calculating Fermi surface
 
 Time to calculate interpolated Fermi surface      15.152 (sec)
 
      Wannier Function Num:    1       Maximum Im/Re Ratio =    0.111543
      Wannier Function Num:    2       Maximum Im/Re Ratio =    0.088757
      Wannier Function Num:    3       Maximum Im/Re Ratio =    0.111514
      Wannier Function Num:    4       Maximum Im/Re Ratio =    0.070913
      Wannier Function Num:    5       Maximum Im/Re Ratio =    0.006874
      Wannier Function Num:    6       Maximum Im/Re Ratio =    0.028274
      Wannier Function Num:    7       Maximum Im/Re Ratio =    0.037227
      Wannier Function Num:    8       Maximum Im/Re Ratio =    0.012339
      Wannier Function Num:    9       Maximum Im/Re Ratio =    0.039551
  
 Time for plotting            231.641 (sec)
 Total Execution Time         234.755 (sec)

 *===========================================================================*
 |                             TIMING INFORMATION                            |
 *===========================================================================*
 |    Tag                                                Ncalls      Time (s)|
 |---------------------------------------------------------------------------|
 |kmesh: get                                        :         1         0.250|
 |overlap: allocate                                 :         1         0.001|
 |overlap: read                                     :         1         0.408|
 |dis: main                                         :         1         0.188|
 |wann: main                                        :         1         2.198|
 |plot: main                                        :         1       231.641|
 *---------------------------------------------------------------------------*
 
 All done: wannier90 exiting
