Si                                      
   1.00000000000000     
     5.443702    0.000000    0.000000
     0.000000    5.443702    0.000000
     0.000000    0.000000    5.443702
   Si
     8
Direct
  0.750000  0.750000  0.250000
  0.000000  0.500000  0.500000
  0.750000  0.250000  0.750000
  0.000000  0.000000  0.000000
  0.250000  0.750000  0.750000
  0.500000  0.500000  0.000000
  0.250000  0.250000  0.250000
  0.500000  0.000000  0.500000
 
   48   48   48
 0.43371E-01 0.54933E-01 0.97261E-01 0.18475     0.31331     0.44939     0.55856     0.62746     0.65707     0.65204    
 0.61658     0.55490     0.47303     0.37979     0.28599     0.20249     0.13671     0.89927E-01 0.58831E-01 0.39078E-01
 0.27033E-01 0.19936E-01 0.15866E-01 0.13727E-01 0.13052E-01 0.13727E-01 0.15866E-01 0.19936E-01 0.27033E-01 0.39078E-01
 0.58831E-01 0.89927E-01 0.13671     0.20249     0.28599     0.37979     0.47303     0.55490     0.61658     0.65204    
 0.65707     0.62746     0.55856     0.44939     0.31331     0.18475     0.97261E-01 0.54933E-01 0.54933E-01 0.68400E-01
 0.11627     0.21066     0.34219     0.47509     0.57820     0.64157     0.66730     0.65989     0.62313     0.56073    
 0.47833     0.38448     0.28994     0.20569     0.13928     0.91995E-01 0.60499E-01 0.40426E-01 0.28132E-01 0.20848E-01
 0.16647E-01 0.14429E-01 0.13727E-01 0.14429E-01 0.16647E-01 0.20848E-01 0.28132E-01 0.40426E-01 0.60499E-01 0.91995E-01
 0.13928     0.20569     0.28994     0.38448     0.47833     0.56073     0.62313     0.65989     0.66730     0.64157    
 0.57820     0.47509     0.34219     0.21066     0.11627     0.68400E-01 0.97261E-01 0.11627     0.17905     0.28876    
 0.42257     0.54313     0.62920     0.67821     0.69409     0.68072     0.64070     0.57660     0.49297     0.39765    
 0.30127     0.21510     0.14700     0.98297E-01 0.65621E-01 0.44589E-01 0.31543E-01 0.23697E-01 0.19102E-01 0.16647E-01
 0.15866E-01 0.16647E-01 0.19102E-01 0.23697E-01 0.31543E-01 0.44589E-01 0.65621E-01 0.98297E-01 0.14700     0.21510    
 0.30127     0.39765     0.49297     0.57660     0.64070     0.68072     0.69409     0.67821     0.62920     0.54313    
 0.42257     0.28876     0.17905     0.11627     0.18475     0.21066     0.28876     0.40683     0.53045     0.62862    
 0.69206     0.72370     0.72799     0.70769     0.66404     0.59819     0.51343     0.41665     0.31824     0.22987    
 0.15968     0.10904     0.74591E-01 0.52028E-01 0.37743E-01 0.28954E-01 0.23697E-01 0.20848E-01 0.19936E-01 0.20848E-01
 0.23697E-01 0.28954E-01 0.37743E-01 0.52028E-01 0.74591E-01 0.10904     0.15968     0.22987     0.31824     0.41665    
 0.51343     0.59819     0.66404     0.70769     0.72799     0.72370     0.69206     0.62862     0.53045     0.40683    
 0.28876     0.21066     0.31331     0.34219     0.42257     0.53045     0.63133     0.70443     0.74732     0.76426    
 0.75897     0.73310     0.68673     0.61986     0.53463     0.43711     0.33763     0.24812     0.17668     0.12447    
 0.88178E-01 0.63765E-01 0.47843E-01 0.37743E-01 0.31543E-01 0.28132E-01 0.27033E-01 0.28132E-01 0.31543E-01 0.37743E-01
 0.47843E-01 0.63765E-01 0.88178E-01 0.12447     0.17668     0.24812     0.33763     0.43711     0.53463     0.61986    
 0.68673     0.73310     0.75897     0.76426     0.74732     0.70443     0.63133     0.53045     0.42257     0.34219    
 0.44939     0.47509     0.54313     0.62862     0.70443     0.75684     0.78488     0.79182     0.78025     0.75088    
 0.70296     0.63574     0.55074     0.45378     0.35545     0.26756     0.19728     0.14505     0.10765     0.81523E-01
 0.63765E-01 0.52028E-01 0.44589E-01 0.40426E-01 0.39078E-01 0.40426E-01 0.44589E-01 0.52028E-01 0.63765E-01 0.81523E-01
 0.10765     0.14505     0.19728     0.26756     0.35545     0.45378     0.55074     0.63574     0.70296     0.75088    
 0.78025     0.79182     0.78488     0.75684     0.70443     0.62862     0.54313     0.47509     0.55856     0.57820    
 0.62920     0.69206     0.74732     0.78488     0.80323     0.80406     0.78877     0.75726     0.70828     0.64087    
 0.55678     0.46253     0.36907     0.28702     0.22149     0.17175     0.13476     0.10765     0.88178E-01 0.74591E-01
 0.65621E-01 0.60499E-01 0.58831E-01 0.60499E-01 0.65621E-01 0.74591E-01 0.88178E-01 0.10765     0.13476     0.17175    
 0.22149     0.28702     0.36907     0.46253     0.55678     0.64087     0.70828     0.75726     0.78877     0.80406    
 0.80323     0.78488     0.74732     0.69206     0.62920     0.57820     0.62746     0.64157     0.67821     0.72370    
 0.76426     0.79182     0.80406     0.80119     0.78345     0.75010     0.69983     0.63236     0.55074     0.46280    
 0.37904     0.30749     0.25046     0.20614     0.17175     0.14505     0.12447     0.10904     0.98297E-01 0.91995E-01
 0.89927E-01 0.91995E-01 0.98297E-01 0.10904     0.12447     0.14505     0.17175     0.20614     0.25046     0.30749    
 0.37904     0.46280     0.55074     0.63236     0.69983     0.75010     0.78345     0.80119     0.80406     0.79182    
 0.76426     0.72370     0.67821     0.64157     0.65707     0.66730     0.69409     0.72799     0.75897     0.78025    
 0.78877     0.78345     0.76356     0.72814     0.67662     0.61041     0.53463     0.45784     0.38861     0.33145    
 0.28622     0.25046     0.22149     0.19728     0.17668     0.15968     0.14700     0.13928     0.13671     0.13928    
 0.14700     0.15968     0.17668     0.19728     0.22149     0.25046     0.28622     0.33145     0.38861     0.45784    
 0.53463     0.61041     0.67662     0.72814     0.76356     0.78345     0.78877     0.78025     0.75897     0.72799    
 0.69409     0.66730     0.65204     0.65989     0.68072     0.70769     0.73310     0.75088     0.75726     0.75010    
 0.72814     0.69099     0.63980     0.57837     0.51343     0.45273     0.40175     0.36189     0.33145     0.30749    
 0.28702     0.26756     0.24812     0.22987     0.21510     0.20569     0.20249     0.20569     0.21510     0.22987    
 0.24812     0.26756     0.28702     0.30749     0.33145     0.36189     0.40175     0.45273     0.51343     0.57837    
 0.63980     0.69099     0.72814     0.75010     0.75726     0.75088     0.73310     0.70769     0.68072     0.65989    
 0.61658     0.62313     0.64070     0.66404     0.68673     0.70296     0.70828     0.69983     0.67662     0.63980    
 0.59291     0.54172     0.49297     0.45225     0.42207     0.40175     0.38861     0.37904     0.36907     0.35545    
 0.33763     0.31824     0.30127     0.28994     0.28599     0.28994     0.30127     0.31824     0.33763     0.35545    
 0.36907     0.37904     0.38861     0.40175     0.42207     0.45225     0.49297     0.54172     0.59291     0.63980    
 0.67662     0.69983     0.70828     0.70296     0.68673     0.66404     0.64070     0.62313     0.55490     0.56073    
 0.57660     0.59819     0.61986     0.63574     0.64087     0.63236     0.61041     0.57837     0.54172     0.50659    
 0.47833     0.46010     0.45225     0.45273     0.45784     0.46280     0.46253     0.45378     0.43711     0.41665    
 0.39765     0.38448     0.37979     0.38448     0.39765     0.41665     0.43711     0.45378     0.46253     0.46280    
 0.45784     0.45273     0.45225     0.46010     0.47833     0.50659     0.54172     0.57837     0.61041     0.63236    
 0.64087     0.63574     0.61986     0.59819     0.57660     0.56073     0.47303     0.47833     0.49297     0.51343    
 0.53463     0.55074     0.55678     0.55074     0.53463     0.51343     0.49297     0.47833     0.47303     0.47833    
 0.49297     0.51343     0.53463     0.55074     0.55678     0.55074     0.53463     0.51343     0.49297     0.47833    
 0.47303     0.47833     0.49297     0.51343     0.53463     0.55074     0.55678     0.55074     0.53463     0.51343    
 0.49297     0.47833     0.47303     0.47833     0.49297     0.51343     0.53463     0.55074     0.55678     0.55074    
 0.53463     0.51343     0.49297     0.47833     0.37979     0.38448     0.39765     0.41665     0.43711     0.45378    
 0.46253     0.46280     0.45784     0.45273     0.45225     0.46010     0.47833     0.50659     0.54172     0.57837    
 0.61041     0.63236     0.64087     0.63574     0.61986     0.59819     0.57660     0.56073     0.55490     0.56073    
 0.57660     0.59819     0.61986     0.63574     0.64087     0.63236     0.61041     0.57837     0.54172     0.50659    
 0.47833     0.46010     0.45225     0.45273     0.45784     0.46280     0.46253     0.45378     0.43711     0.41665    
 0.39765     0.38448     0.28599     0.28994     0.30127     0.31824     0.33763     0.35545     0.36907     0.37904    
 0.38861     0.40175     0.42207     0.45225     0.49297     0.54172     0.59291     0.63980     0.67662     0.69983    
 0.70828     0.70296     0.68673     0.66404     0.64070     0.62313     0.61658     0.62313     0.64070     0.66404    
 0.68673     0.70296     0.70828     0.69983     0.67662     0.63980     0.59291     0.54172     0.49297     0.45225    
 0.42207     0.40175     0.38861     0.37904     0.36907     0.35545     0.33763     0.31824     0.30127     0.28994    
 0.20249     0.20569     0.21510     0.22987     0.24812     0.26756     0.28702     0.30749     0.33145     0.36189    
 0.40175     0.45273     0.51343     0.57837     0.63980     0.69099     0.72814     0.75010     0.75726     0.75088    
 0.73310     0.70769     0.68072     0.65989     0.65204     0.65989     0.68072     0.70769     0.73310     0.75088    
 0.75726     0.75010     0.72814     0.69099     0.63980     0.57837     0.51343     0.45273     0.40175     0.36189    
 0.33145     0.30749     0.28702     0.26756     0.24812     0.22987     0.21510     0.20569     0.13671     0.13928    
 0.14700     0.15968     0.17668     0.19728     0.22149     0.25046     0.28622     0.33145     0.38861     0.45784    
 0.53463     0.61041     0.67662     0.72814     0.76356     0.78345     0.78877     0.78025     0.75897     0.72799    
 0.69409     0.66730     0.65707     0.66730     0.69409     0.72799     0.75897     0.78025     0.78877     0.78345    
 0.76356     0.72814     0.67662     0.61041     0.53463     0.45784     0.38861     0.33145     0.28622     0.25046    
 0.22149     0.19728     0.17668     0.15968     0.14700     0.13928     0.89927E-01 0.91995E-01 0.98297E-01 0.10904    
 0.12447     0.14505     0.17175     0.20614     0.25046     0.30749     0.37904     0.46280     0.55074     0.63236    
 0.69983     0.75010     0.78345     0.80119     0.80406     0.79182     0.76426     0.72370     0.67821     0.64157    
 0.62746     0.64157     0.67821     0.72370     0.76426     0.79182     0.80406     0.80119     0.78345     0.75010    
 0.69983     0.63236     0.55074     0.46280     0.37904     0.30749     0.25046     0.20614     0.17175     0.14505    
 0.12447     0.10904     0.98297E-01 0.91995E-01 0.58831E-01 0.60499E-01 0.65621E-01 0.74591E-01 0.88178E-01 0.10765    
 0.13476     0.17175     0.22149     0.28702     0.36907     0.46253     0.55678     0.64087     0.70828     0.75726    
 0.78877     0.80406     0.80323     0.78488     0.74732     0.69206     0.62920     0.57820     0.55856     0.57820    
 0.62920     0.69206     0.74732     0.78488     0.80323     0.80406     0.78877     0.75726     0.70828     0.64087    
 0.55678     0.46253     0.36907     0.28702     0.22149     0.17175     0.13476     0.10765     0.88178E-01 0.74591E-01
 0.65621E-01 0.60499E-01 0.39078E-01 0.40426E-01 0.44589E-01 0.52028E-01 0.63765E-01 0.81523E-01 0.10765     0.14505    
 0.19728     0.26756     0.35545     0.45378     0.55074     0.63574     0.70296     0.75088     0.78025     0.79182    
 0.78488     0.75684     0.70443     0.62862     0.54313     0.47509     0.44939     0.47509     0.54313     0.62862    
 0.70443     0.75684     0.78488     0.79182     0.78025     0.75088     0.70296     0.63574     0.55074     0.45378    
 0.35545     0.26756     0.19728     0.14505     0.10765     0.81523E-01 0.63765E-01 0.52028E-01 0.44589E-01 0.40426E-01
 0.27033E-01 0.28132E-01 0.31543E-01 0.37743E-01 0.47843E-01 0.63765E-01 0.88178E-01 0.12447     0.17668     0.24812    
 0.33763     0.43711     0.53463     0.61986     0.68673     0.73310     0.75897     0.76426     0.74732     0.70443    
 0.63133     0.53045     0.42257     0.34219     0.31331     0.34219     0.42257     0.53045     0.63133     0.70443    
 0.74732     0.76426     0.75897     0.73310     0.68673     0.61986     0.53463     0.43711     0.33763     0.24812    
 0.17668     0.12447     0.88178E-01 0.63765E-01 0.47843E-01 0.37743E-01 0.31543E-01 0.28132E-01 0.19936E-01 0.20848E-01
 0.23697E-01 0.28954E-01 0.37743E-01 0.52028E-01 0.74591E-01 0.10904     0.15968     0.22987     0.31824     0.41665    
 0.51343     0.59819     0.66404     0.70769     0.72799     0.72370     0.69206     0.62862     0.53045     0.40683    
 0.28876     0.21066     0.18475     0.21066     0.28876     0.40683     0.53045     0.62862     0.69206     0.72370    
 0.72799     0.70769     0.66404     0.59819     0.51343     0.41665     0.31824     0.22987     0.15968     0.10904    
 0.74591E-01 0.52028E-01 0.37743E-01 0.28954E-01 0.23697E-01 0.20848E-01 0.15866E-01 0.16647E-01 0.19102E-01 0.23697E-01
 0.31543E-01 0.44589E-01 0.65621E-01 0.98297E-01 0.14700     0.21510     0.30127     0.39765     0.49297     0.57660    
 0.64070     0.68072     0.69409     0.67821     0.62920     0.54313     0.42257     0.28876     0.17905     0.11627    
 0.97261E-01 0.11627     0.17905     0.28876     0.42257     0.54313     0.62920     0.67821     0.69409     0.68072    
 0.64070     0.57660     0.49297     0.39765     0.30127     0.21510     0.14700     0.98297E-01 0.65621E-01 0.44589E-01
 0.31543E-01 0.23697E-01 0.19102E-01 0.16647E-01 0.13727E-01 0.14429E-01 0.16647E-01 0.20848E-01 0.28132E-01 0.40426E-01
 0.60499E-01 0.91995E-01 0.13928     0.20569     0.28994     0.38448     0.47833     0.56073     0.62313     0.65989    
 0.66730     0.64157     0.57820     0.47509     0.34219     0.21066     0.11627     0.68400E-01 0.54933E-01 0.68400E-01
 0.11627     0.21066     0.34219     0.47509     0.57820     0.64157     0.66730     0.65989     0.62313     0.56073    
 0.47833     0.38448     0.28994     0.20569     0.13928     0.91995E-01 0.60499E-01 0.40426E-01 0.28132E-01 0.20848E-01
 0.16647E-01 0.14429E-01 0.13052E-01 0.13727E-01 0.15866E-01 0.19936E-01 0.27033E-01 0.39078E-01 0.58831E-01 0.89927E-01
 0.13671     0.20249     0.28599     0.37979     0.47303     0.55490     0.61658     0.65204     0.65707     0.62746    
 0.55856     0.44939     0.31331     0.18475     0.97261E-01 0.54933E-01 0.43371E-01 0.54933E-01 0.97261E-01 0.18475    
 0.31331     0.44939     0.55856     0.62746     0.65707     0.65204     0.61658     0.55490     0.47303     0.37979    
 0.28599     0.20249     0.13671     0.89927E-01 0.58831E-01 0.39078E-01 0.27033E-01 0.19936E-01 0.15866E-01 0.13727E-01
 0.13727E-01 0.14429E-01 0.16647E-01 0.20848E-01 0.28132E-01 0.40426E-01 0.60499E-01 0.91995E-01 0.13928     0.20569    
 0.28994     0.38448     0.47833     0.56073     0.62313     0.65989     0.66730     0.64157     0.57820     0.47509    
 0.34219     0.21066     0.11627     0.68400E-01 0.54933E-01 0.68400E-01 0.11627     0.21066     0.34219     0.47509    
 0.57820     0.64157     0.66730     0.65989     0.62313     0.56073     0.47833     0.38448     0.28994     0.20569    
 0.13928     0.91995E-01 0.60499E-01 0.40426E-01 0.28132E-01 0.20848E-01 0.16647E-01 0.14429E-01 0.15866E-01 0.16647E-01
 0.19102E-01 0.23697E-01 0.31543E-01 0.44589E-01 0.65621E-01 0.98297E-01 0.14700     0.21510     0.30127     0.39765    
 0.49297     0.57660     0.64070     0.68072     0.69409     0.67821     0.62920     0.54313     0.42257     0.28876    
 0.17905     0.11627     0.97261E-01 0.11627     0.17905     0.28876     0.42257     0.54313     0.62920     0.67821    
 0.69409     0.68072     0.64070     0.57660     0.49297     0.39765     0.30127     0.21510     0.14700     0.98297E-01
 0.65621E-01 0.44589E-01 0.31543E-01 0.23697E-01 0.19102E-01 0.16647E-01 0.19936E-01 0.20848E-01 0.23697E-01 0.28954E-01
 0.37743E-01 0.52028E-01 0.74591E-01 0.10904     0.15968     0.22987     0.31824     0.41665     0.51343     0.59819    
 0.66404     0.70769     0.72799     0.72370     0.69206     0.62862     0.53045     0.40683     0.28876     0.21066    
 0.18475     0.21066     0.28876     0.40683     0.53045     0.62862     0.69206     0.72370     0.72799     0.70769    
 0.66404     0.59819     0.51343     0.41665     0.31824     0.22987     0.15968     0.10904     0.74591E-01 0.52028E-01
 0.37743E-01 0.28954E-01 0.23697E-01 0.20848E-01 0.27033E-01 0.28132E-01 0.31543E-01 0.37743E-01 0.47843E-01 0.63765E-01
 0.88178E-01 0.12447     0.17668     0.24812     0.33763     0.43711     0.53463     0.61986     0.68673     0.73310    
 0.75897     0.76426     0.74732     0.70443     0.63133     0.53045     0.42257     0.34219     0.31331     0.34219    
 0.42257     0.53045     0.63133     0.70443     0.74732     0.76426     0.75897     0.73310     0.68673     0.61986    
 0.53463     0.43711     0.33763     0.24812     0.17668     0.12447     0.88178E-01 0.63765E-01 0.47843E-01 0.37743E-01
 0.31543E-01 0.28132E-01 0.39078E-01 0.40426E-01 0.44589E-01 0.52028E-01 0.63765E-01 0.81523E-01 0.10765     0.14505    
 0.19728     0.26756     0.35545     0.45378     0.55074     0.63574     0.70296     0.75088     0.78025     0.79182    
 0.78488     0.75684     0.70443     0.62862     0.54313     0.47509     0.44939     0.47509     0.54313     0.62862    
 0.70443     0.75684     0.78488     0.79182     0.78025     0.75088     0.70296     0.63574     0.55074     0.45378    
 0.35545     0.26756     0.19728     0.14505     0.10765     0.81523E-01 0.63765E-01 0.52028E-01 0.44589E-01 0.40426E-01
 0.58831E-01 0.60499E-01 0.65621E-01 0.74591E-01 0.88178E-01 0.10765     0.13476     0.17175     0.22149     0.28702    
 0.36907     0.46253     0.55678     0.64087     0.70828     0.75726     0.78877     0.80406     0.80323     0.78488    
 0.74732     0.69206     0.62920     0.57820     0.55856     0.57820     0.62920     0.69206     0.74732     0.78488    
 0.80323     0.80406     0.78877     0.75726     0.70828     0.64087     0.55678     0.46253     0.36907     0.28702    
 0.22149     0.17175     0.13476     0.10765     0.88178E-01 0.74591E-01 0.65621E-01 0.60499E-01 0.89927E-01 0.91995E-01
 0.98297E-01 0.10904     0.12447     0.14505     0.17175     0.20614     0.25046     0.30749     0.37904     0.46280    
 0.55074     0.63236     0.69983     0.75010     0.78345     0.80119     0.80406     0.79182     0.76426     0.72370    
 0.67821     0.64157     0.62746     0.64157     0.67821     0.72370     0.76426     0.79182     0.80406     0.80119    
 0.78345     0.75010     0.69983     0.63236     0.55074     0.46280     0.37904     0.30749     0.25046     0.20614    
 0.17175     0.14505     0.12447     0.10904     0.98297E-01 0.91995E-01 0.13671     0.13928     0.14700     0.15968    
 0.17668     0.19728     0.22149     0.25046     0.28622     0.33145     0.38861     0.45784     0.53463     0.61041    
 0.67662     0.72814     0.76356     0.78345     0.78877     0.78025     0.75897     0.72799     0.69409     0.66730    
 0.65707     0.66730     0.69409     0.72799     0.75897     0.78025     0.78877     0.78345     0.76356     0.72814    
 0.67662     0.61041     0.53463     0.45784     0.38861     0.33145     0.28622     0.25046     0.22149     0.19728    
 0.17668     0.15968     0.14700     0.13928     0.20249     0.20569     0.21510     0.22987     0.24812     0.26756    
 0.28702     0.30749     0.33145     0.36189     0.40175     0.45273     0.51343     0.57837     0.63980     0.69099    
 0.72814     0.75010     0.75726     0.75088     0.73310     0.70769     0.68072     0.65989     0.65204     0.65989    
 0.68072     0.70769     0.73310     0.75088     0.75726     0.75010     0.72814     0.69099     0.63980     0.57837    
 0.51343     0.45273     0.40175     0.36189     0.33145     0.30749     0.28702     0.26756     0.24812     0.22987    
 0.21510     0.20569     0.28599     0.28994     0.30127     0.31824     0.33763     0.35545     0.36907     0.37904    
 0.38861     0.40175     0.42207     0.45225     0.49297     0.54172     0.59291     0.63980     0.67662     0.69983    
 0.70828     0.70296     0.68673     0.66404     0.64070     0.62313     0.61658     0.62313     0.64070     0.66404    
 0.68673     0.70296     0.70828     0.69983     0.67662     0.63980     0.59291     0.54172     0.49297     0.45225    
 0.42207     0.40175     0.38861     0.37904     0.36907     0.35545     0.33763     0.31824     0.30127     0.28994    
 0.37979     0.38448     0.39765     0.41665     0.43711     0.45378     0.46253     0.46280     0.45784     0.45273    
 0.45225     0.46010     0.47833     0.50659     0.54172     0.57837     0.61041     0.63236     0.64087     0.63574    
 0.61986     0.59819     0.57660     0.56073     0.55490     0.56073     0.57660     0.59819     0.61986     0.63574    
 0.64087     0.63236     0.61041     0.57837     0.54172     0.50659     0.47833     0.46010     0.45225     0.45273    
 0.45784     0.46280     0.46253     0.45378     0.43711     0.41665     0.39765     0.38448     0.47303     0.47833    
 0.49297     0.51343     0.53463     0.55074     0.55678     0.55074     0.53463     0.51343     0.49297     0.47833    
 0.47303     0.47833     0.49297     0.51343     0.53463     0.55074     0.55678     0.55074     0.53463     0.51343    
 0.49297     0.47833     0.47303     0.47833     0.49297     0.51343     0.53463     0.55074     0.55678     0.55074    
 0.53463     0.51343     0.49297     0.47833     0.47303     0.47833     0.49297     0.51343     0.53463     0.55074    
 0.55678     0.55074     0.53463     0.51343     0.49297     0.47833     0.55490     0.56073     0.57660     0.59819    
 0.61986     0.63574     0.64087     0.63236     0.61041     0.57837     0.54172     0.50659     0.47833     0.46010    
 0.45225     0.45273     0.45784     0.46280     0.46253     0.45378     0.43711     0.41665     0.39765     0.38448    
 0.37979     0.38448     0.39765     0.41665     0.43711     0.45378     0.46253     0.46280     0.45784     0.45273    
 0.45225     0.46010     0.47833     0.50659     0.54172     0.57837     0.61041     0.63236     0.64087     0.63574    
 0.61986     0.59819     0.57660     0.56073     0.61658     0.62313     0.64070     0.66404     0.68673     0.70296    
 0.70828     0.69983     0.67662     0.63980     0.59291     0.54172     0.49297     0.45225     0.42207     0.40175    
 0.38861     0.37904     0.36907     0.35545     0.33763     0.31824     0.30127     0.28994     0.28599     0.28994    
 0.30127     0.31824     0.33763     0.35545     0.36907     0.37904     0.38861     0.40175     0.42207     0.45225    
 0.49297     0.54172     0.59291     0.63980     0.67662     0.69983     0.70828     0.70296     0.68673     0.66404    
 0.64070     0.62313     0.65204     0.65989     0.68072     0.70769     0.73310     0.75088     0.75726     0.75010    
 0.72814     0.69099     0.63980     0.57837     0.51343     0.45273     0.40175     0.36189     0.33145     0.30749    
 0.28702     0.26756     0.24812     0.22987     0.21510     0.20569     0.20249     0.20569     0.21510     0.22987    
 0.24812     0.26756     0.28702     0.30749     0.33145     0.36189     0.40175     0.45273     0.51343     0.57837    
 0.63980     0.69099     0.72814     0.75010     0.75726     0.75088     0.73310     0.70769     0.68072     0.65989    
 0.65707     0.66730     0.69409     0.72799     0.75897     0.78025     0.78877     0.78345     0.76356     0.72814    
 0.67662     0.61041     0.53463     0.45784     0.38861     0.33145     0.28622     0.25046     0.22149     0.19728    
 0.17668     0.15968     0.14700     0.13928     0.13671     0.13928     0.14700     0.15968     0.17668     0.19728    
 0.22149     0.25046     0.28622     0.33145     0.38861     0.45784     0.53463     0.61041     0.67662     0.72814    
 0.76356     0.78345     0.78877     0.78025     0.75897     0.72799     0.69409     0.66730     0.62746     0.64157    
 0.67821     0.72370     0.76426     0.79182     0.80406     0.80119     0.78345     0.75010     0.69983     0.63236    
 0.55074     0.46280     0.37904     0.30749     0.25046     0.20614     0.17175     0.14505     0.12447     0.10904    
 0.98297E-01 0.91995E-01 0.89927E-01 0.91995E-01 0.98297E-01 0.10904     0.12447     0.14505     0.17175     0.20614    
 0.25046     0.30749     0.37904     0.46280     0.55074     0.63236     0.69983     0.75010     0.78345     0.80119    
 0.80406     0.79182     0.76426     0.72370     0.67821     0.64157     0.55856     0.57820     0.62920     0.69206    
 0.74732     0.78488     0.80323     0.80406     0.78877     0.75726     0.70828     0.64087     0.55678     0.46253    
 0.36907     0.28702     0.22149     0.17175     0.13476     0.10765     0.88178E-01 0.74591E-01 0.65621E-01 0.60499E-01
 0.58831E-01 0.60499E-01 0.65621E-01 0.74591E-01 0.88178E-01 0.10765     0.13476     0.17175     0.22149     0.28702    
 0.36907     0.46253     0.55678     0.64087     0.70828     0.75726     0.78877     0.80406     0.80323     0.78488    
 0.74732     0.69206     0.62920     0.57820     0.44939     0.47509     0.54313     0.62862     0.70443     0.75684    
 0.78488     0.79182     0.78025     0.75088     0.70296     0.63574     0.55074     0.45378     0.35545     0.26756    
 0.19728     0.14505     0.10765     0.81523E-01 0.63765E-01 0.52028E-01 0.44589E-01 0.40426E-01 0.39078E-01 0.40426E-01
 0.44589E-01 0.52028E-01 0.63765E-01 0.81523E-01 0.10765     0.14505     0.19728     0.26756     0.35545     0.45378    
 0.55074     0.63574     0.70296     0.75088     0.78025     0.79182     0.78488     0.75684     0.70443     0.62862    
 0.54313     0.47509     0.31331     0.34219     0.42257     0.53045     0.63133     0.70443     0.74732     0.76426    
 0.75897     0.73310     0.68673     0.61986     0.53463     0.43711     0.33763     0.24812     0.17668     0.12447    
 0.88178E-01 0.63765E-01 0.47843E-01 0.37743E-01 0.31543E-01 0.28132E-01 0.27033E-01 0.28132E-01 0.31543E-01 0.37743E-01
 0.47843E-01 0.63765E-01 0.88178E-01 0.12447     0.17668     0.24812     0.33763     0.43711     0.53463     0.61986    
 0.68673     0.73310     0.75897     0.76426     0.74732     0.70443     0.63133     0.53045     0.42257     0.34219    
 0.18475     0.21066     0.28876     0.40683     0.53045     0.62862     0.69206     0.72370     0.72799     0.70769    
 0.66404     0.59819     0.51343     0.41665     0.31824     0.22987     0.15968     0.10904     0.74591E-01 0.52028E-01
 0.37743E-01 0.28954E-01 0.23697E-01 0.20848E-01 0.19936E-01 0.20848E-01 0.23697E-01 0.28954E-01 0.37743E-01 0.52028E-01
 0.74591E-01 0.10904     0.15968     0.22987     0.31824     0.41665     0.51343     0.59819     0.66404     0.70769    
 0.72799     0.72370     0.69206     0.62862     0.53045     0.40683     0.28876     0.21066     0.97261E-01 0.11627    
 0.17905     0.28876     0.42257     0.54313     0.62920     0.67821     0.69409     0.68072     0.64070     0.57660    
 0.49297     0.39765     0.30127     0.21510     0.14700     0.98297E-01 0.65621E-01 0.44589E-01 0.31543E-01 0.23697E-01
 0.19102E-01 0.16647E-01 0.15866E-01 0.16647E-01 0.19102E-01 0.23697E-01 0.31543E-01 0.44589E-01 0.65621E-01 0.98297E-01
 0.14700     0.21510     0.30127     0.39765     0.49297     0.57660     0.64070     0.68072     0.69409     0.67821    
 0.62920     0.54313     0.42257     0.28876     0.17905     0.11627     0.54933E-01 0.68400E-01 0.11627     0.21066    
 0.34219     0.47509     0.57820     0.64157     0.66730     0.65989     0.62313     0.56073     0.47833     0.38448    
 0.28994     0.20569     0.13928     0.91995E-01 0.60499E-01 0.40426E-01 0.28132E-01 0.20848E-01 0.16647E-01 0.14429E-01
 0.13727E-01 0.14429E-01 0.16647E-01 0.20848E-01 0.28132E-01 0.40426E-01 0.60499E-01 0.91995E-01 0.13928     0.20569    
 0.28994     0.38448     0.47833     0.56073     0.62313     0.65989     0.66730     0.64157     0.57820     0.47509    
 0.34219     0.21066     0.11627     0.68400E-01 0.54933E-01 0.68400E-01 0.11627     0.21066     0.34219     0.47509    
 0.57820     0.64157     0.66730     0.65989     0.62313     0.56073     0.47833     0.38448     0.28994     0.20569    
 0.13928     0.91995E-01 0.60499E-01 0.40426E-01 0.28132E-01 0.20848E-01 0.16647E-01 0.14429E-01 0.13727E-01 0.14429E-01
 0.16647E-01 0.20848E-01 0.28132E-01 0.40426E-01 0.60499E-01 0.91995E-01 0.13928     0.20569     0.28994     0.38448    
 0.47833     0.56073     0.62313     0.65989     0.66730     0.64157     0.57820     0.47509     0.34219     0.21066    
 0.11627     0.68400E-01 0.68400E-01 0.95492E-01 0.16670     0.28663     0.42787     0.55116     0.63770     0.68701    
 0.70366     0.69142     0.65267     0.58967     0.50659     0.41089     0.31298     0.22442     0.15365     0.10257    
 0.68077E-01 0.45786E-01 0.31926E-01 0.23538E-01 0.18519E-01 0.15658E-01 0.14429E-01 0.14667E-01 0.16432E-01 0.20128E-01
 0.26753E-01 0.38081E-01 0.56704E-01 0.86127E-01 0.13068     0.19391     0.27508     0.36734     0.46010     0.54242    
 0.60517     0.64203     0.64859     0.62053     0.55337     0.44685     0.31551     0.19343     0.11150     0.73304E-01
 0.11627     0.16670     0.27239     0.41589     0.55162     0.65102     0.71272     0.74354     0.74855     0.73009    
 0.68882     0.62522     0.54172     0.44431     0.34292     0.24964     0.17390     0.11829     0.79981E-01 0.54685E-01
 0.38570E-01 0.28524E-01 0.22280E-01 0.18519E-01 0.16647E-01 0.16432E-01 0.17862E-01 0.21268E-01 0.27566E-01 0.38412E-01
 0.56258E-01 0.84485E-01 0.12739     0.18871     0.26821     0.35954     0.45225     0.53537     0.59979     0.63926    