
     Program PWSCF v.6.6 starts on  8May2023 at 21:59:14 

     This program is part of the open-source Quantum ESPRESSO suite
     for quantum simulation of materials; please cite
         "P. Giannozzi et al., J. Phys.:Condens. Matter 21 395502 (2009);
         "P. Giannozzi et al., J. Phys.:Condens. Matter 29 465901 (2017);
          URL http://www.quantum-espresso.org", 
     in publications or presentations arising from this work. More details at
     http://www.quantum-espresso.org/quote

     Parallel version (MPI), running on    64 processors

     MPI processes distributed on     1 nodes
     K-points division:     npool     =       2
     R & G space division:  proc/nbgrp/npool/nimage =      32
     Fft bands division:     nmany     =       1
     Reading input from INCAR-scf.pw

     Current dimensions of program PWSCF are:
     Max number of different atomic species (ntypx) = 10
     Max number of k-points (npk) =  40000
     Max angular momentum in pseudopotentials (lmaxx) =  3

     Subspace diagonalization in iterative solution of the eigenvalue problem:
     a serial algorithm will be used

     Message from routine setup:
     using ibrav=0 with symmetry is DISCOURAGED, use correct ibrav instead
 
     Parallelization info
     --------------------
     sticks:   dense  smooth     PW     G-vecs:    dense   smooth      PW
     Min          63      42     12                 5298     2882     460
     Max          64      43     14                 5309     2894     464
     Sum        2029    1345    397               169655    92305   14773
 


     bravais-lattice index     =            0
     lattice parameter (alat)  =       7.8197  a.u.
     unit-cell volume          =     955.3447 (a.u.)^3
     number of atoms/cell      =            5
     number of atomic types    =            2
     number of electrons       =       118.00
     number of Kohn-Sham states=          142
     kinetic-energy cutoff     =      80.0000  Ry
     charge density cutoff     =     480.0000  Ry
     convergence threshold     =      3.0E-09
     mixing beta               =       0.7000
     number of iterations used =            8  plain     mixing
     Exchange-correlation= PBESOL
                           (   1   4  10   8   0   0   0)
     Non magnetic calculation with spin-orbit


     celldm(1)=   7.819688  celldm(2)=   0.000000  celldm(3)=   0.000000
     celldm(4)=   0.000000  celldm(5)=   0.000000  celldm(6)=   0.000000

     crystal axes: (cart. coord. in units of alat)
               a(1) = (  -0.500000  -0.866025   0.000000 )  
               a(2) = (   0.500000  -0.866025   0.000000 )  
               a(3) = (   0.000000   0.577350   2.307072 )  

     reciprocal axes: (cart. coord. in units 2 pi/alat)
               b(1) = ( -1.000000 -0.577350  0.144483 )  
               b(2) = (  1.000000 -0.577350  0.144483 )  
               b(3) = (  0.000000  0.000000  0.433450 )  


     PseudoPot. # 1 for Bi read from file:
     ./Bi.NC.FR.PBEsol.stringent.UPF
     MD5 check sum: 152c0073ae87c027bffe5b7893bf94e2
     Pseudo is Norm-conserving + core correction, Zval = 23.0
     Generated using ONCVPSP code by D. R. Hamann
     Using radial grid of 1562 points, 10 beta functions with: 
                l(1) =   0
                l(2) =   0
                l(3) =   1
                l(4) =   1
                l(5) =   1
                l(6) =   1
                l(7) =   2
                l(8) =   2
                l(9) =   2
               l(10) =   2

     PseudoPot. # 2 for Se read from file:
     ./Se.NC.FR.PBEsol.stringent.UPF
     MD5 check sum: 1272e4bed61b725e968c377fde61d6be
     Pseudo is Norm-conserving + core correction, Zval = 24.0
     Generated using ONCVPSP code by D. R. Hamann
     Using radial grid of 1214 points, 10 beta functions with: 
                l(1) =   0
                l(2) =   0
                l(3) =   1
                l(4) =   1
                l(5) =   1
                l(6) =   1
                l(7) =   2
                l(8) =   2
                l(9) =   2
               l(10) =   2

     atomic species   valence    mass     pseudopotential
        Bi            23.00   208.98040     Bi( 1.00)
        Se            24.00    78.96000     Se( 1.00)

     12 Sym. Ops., with inversion, found ( 8 have fractional translation)


                                    s                        frac. trans.

      isym =  1     identity                                     

 cryst.   s( 1) = (     1          0          0      )
                  (     0          1          0      )
                  (     0          0          1      )

 cart.    s( 1) = (  1.0000000  0.0000000  0.0000000 )
                  (  0.0000000  1.0000000 -0.0000000 )
                  (  0.0000000  0.0000000  1.0000000 )


      isym =  2     180 deg rotation - cart. axis [1,0,0]        

 cryst.   s( 2) = (     0         -1          0      )
                  (    -1          0          0      )
                  (     0          0         -1      )

 cart.    s( 2) = (  1.0000000  0.0000000  0.0000000 )
                  (  0.0000000 -1.0000000  0.0000000 )
                  (  0.0000000  0.0000000 -1.0000000 )


      isym =  3     120 deg rotation - cryst. axis [0,0,1]       

 cryst.   s( 3) = (    -1          1          0      )    f =(  0.5000000 )
                  (    -1          0          0      )       (  0.0000000 )
                  (     1          0          1      )       (  0.0000000 )

 cart.    s( 3) = ( -0.5000000 -0.8660252 -0.0000001 )    f =( -0.2500000 )
                  (  0.8660256 -0.5000000 -0.0000002 )       ( -0.4330127 )
                  (  0.0000000  0.0000000  1.0000000 )       (  0.0000000 )


      isym =  4     120 deg rotation - cryst. axis [0,0,-1]      

 cryst.   s( 4) = (     0         -1          0      )    f =(  0.0000000 )
                  (     1         -1          0      )       (  0.5000000 )
                  (     0          1          1      )       (  0.0000000 )

 cart.    s( 4) = ( -0.5000000  0.8660252  0.0000001 )    f =(  0.2500000 )
                  ( -0.8660256 -0.5000000 -0.0000002 )       ( -0.4330127 )
                  (  0.0000000  0.0000000  1.0000000 )       (  0.0000000 )


      isym =  5     180 deg rotation - cryst. axis [0,1,0]       

 cryst.   s( 5) = (    -1          1          0      )    f =(  0.0000000 )
                  (     0          1          0      )       ( -0.5000000 )
                  (     0         -1         -1      )       (  0.0000000 )

 cart.    s( 5) = ( -0.5000000 -0.8660252 -0.0000001 )    f =( -0.2500000 )
                  ( -0.8660256  0.5000000  0.0000002 )       (  0.4330127 )
                  (  0.0000000  0.0000000 -1.0000000 )       (  0.0000000 )


      isym =  6     180 deg rotation - cryst. axis [1,1,0]       

 cryst.   s( 6) = (     1          0          0      )    f =( -0.5000000 )
                  (     1         -1          0      )       (  0.0000000 )
                  (    -1          0         -1      )       (  0.0000000 )

 cart.    s( 6) = ( -0.5000000  0.8660252  0.0000001 )    f =(  0.2500000 )
                  (  0.8660256  0.5000000  0.0000002 )       (  0.4330127 )
                  (  0.0000000  0.0000000 -1.0000000 )       (  0.0000000 )


      isym =  7     inversion                                    

 cryst.   s( 7) = (    -1          0          0      )
                  (     0         -1          0      )
                  (     0          0         -1      )

 cart.    s( 7) = ( -1.0000000  0.0000000  0.0000000 )
                  (  0.0000000 -1.0000000  0.0000000 )
                  (  0.0000000  0.0000000 -1.0000000 )


      isym =  8     inv. 180 deg rotation - cart. axis [1,0,0]   

 cryst.   s( 8) = (     0          1          0      )
                  (     1          0          0      )
                  (     0          0          1      )

 cart.    s( 8) = ( -1.0000000  0.0000000  0.0000000 )
                  (  0.0000000  1.0000000 -0.0000000 )
                  (  0.0000000  0.0000000  1.0000000 )


      isym =  9     inv. 120 deg rotation - cryst. axis [0,0,1]  

 cryst.   s( 9) = (     1         -1          0      )    f =( -0.5000000 )
                  (     1          0          0      )       (  0.0000000 )
                  (    -1          0         -1      )       (  0.0000000 )

 cart.    s( 9) = (  0.5000000  0.8660252  0.0000001 )    f =(  0.2500000 )
                  ( -0.8660256  0.5000000  0.0000002 )       (  0.4330127 )
                  (  0.0000000  0.0000000 -1.0000000 )       (  0.0000000 )


      isym = 10     inv. 120 deg rotation - cryst. axis [0,0,-1] 

 cryst.   s(10) = (     0          1          0      )    f =(  0.0000000 )
                  (    -1          1          0      )       ( -0.5000000 )
                  (     0         -1         -1      )       (  0.0000000 )

 cart.    s(10) = (  0.5000000 -0.8660252 -0.0000001 )    f =( -0.2500000 )
                  (  0.8660256  0.5000000  0.0000002 )       (  0.4330127 )
                  (  0.0000000  0.0000000 -1.0000000 )       (  0.0000000 )


      isym = 11     inv. 180 deg rotation - cryst. axis [0,1,0]  

 cryst.   s(11) = (     1         -1          0      )    f =(  0.0000000 )
                  (     0         -1          0      )       (  0.5000000 )
                  (     0          1          1      )       (  0.0000000 )

 cart.    s(11) = (  0.5000000  0.8660252  0.0000001 )    f =(  0.2500000 )
                  (  0.8660256 -0.5000000 -0.0000002 )       ( -0.4330127 )
                  (  0.0000000  0.0000000  1.0000000 )       (  0.0000000 )


      isym = 12     inv. 180 deg rotation - cryst. axis [1,1,0]  

 cryst.   s(12) = (    -1          0          0      )    f =(  0.5000000 )
                  (    -1          1          0      )       (  0.0000000 )
                  (     1          0          1      )       (  0.0000000 )

 cart.    s(12) = (  0.5000000 -0.8660252 -0.0000001 )    f =( -0.2500000 )
                  ( -0.8660256 -0.5000000 -0.0000002 )       ( -0.4330127 )
                  (  0.0000000  0.0000000  1.0000000 )       (  0.0000000 )


   Cartesian axes

     site n.     atom                  positions (alat units)
         1           Bi  tau(   1) = (   0.0000000  -0.2886753   1.6080294  )
         2           Bi  tau(   2) = (   0.0000000  -0.8660255   0.6990429  )
         3           Se  tau(   3) = (   0.0000000   0.2886750   1.1535362  )
         4           Se  tau(   4) = (   0.0000000  -0.2886752   0.2722345  )
         5           Se  tau(   5) = (   0.0000000  -0.8660257   2.0348378  )

   Crystallographic axes

     site n.     atom                  positions (cryst. coord.)
         1           Bi  tau(   1) = (  0.3990000  0.3990000  0.6970000  )
         2           Bi  tau(   2) = (  0.6010000  0.6010000  0.3030000  )
         3           Se  tau(   3) = (  0.0000000  0.0000000  0.5000000  )
         4           Se  tau(   4) = (  0.2060000  0.2060000  0.1180000  )
         5           Se  tau(   5) = (  0.7940000  0.7940000  0.8820000  )

     number of k points=   234  Marzari-Vanderbilt smearing, width (Ry)=  0.0073
                       cart. coord. in units 2pi/alat
        k(    1) = (   0.0000000   0.0000000   0.0000000), wk =   0.0008889
        k(    2) = (   0.0000000   0.0000000   0.0866900), wk =   0.0017778
        k(    3) = (   0.0000000   0.0000000   0.1733799), wk =   0.0017778
        k(    4) = (   0.0666667  -0.0384900   0.0096322), wk =   0.0035556
        k(    5) = (   0.0666667  -0.0384900   0.0963222), wk =   0.0035556
        k(    6) = (   0.0666667  -0.0384900   0.1830121), wk =   0.0035556
        k(    7) = (   0.0666667  -0.0384900  -0.1637477), wk =   0.0035556
        k(    8) = (   0.0666667  -0.0384900  -0.0770577), wk =   0.0035556
        k(    9) = (   0.1333334  -0.0769800   0.0192644), wk =   0.0035556
        k(   10) = (   0.1333334  -0.0769800   0.1059544), wk =   0.0035556
        k(   11) = (   0.1333334  -0.0769800   0.1926443), wk =   0.0035556
        k(   12) = (   0.1333334  -0.0769800  -0.1541155), wk =   0.0035556
        k(   13) = (   0.1333334  -0.0769800  -0.0674255), wk =   0.0035556
        k(   14) = (   0.2000000  -0.1154700   0.0288966), wk =   0.0053333
        k(   15) = (   0.2000000  -0.1154700   0.1155866), wk =   0.0053333
        k(   16) = (   0.2000000  -0.1154700   0.2022766), wk =   0.0053333
        k(   17) = (   0.2000000  -0.1154700  -0.1444833), wk =   0.0053333
        k(   18) = (   0.2000000  -0.1154700  -0.0577933), wk =   0.0053333
        k(   19) = (   0.2666667  -0.1539601   0.0385289), wk =   0.0035556
        k(   20) = (   0.2666667  -0.1539601   0.1252188), wk =   0.0035556
        k(   21) = (   0.2666667  -0.1539601   0.2119088), wk =   0.0035556
        k(   22) = (   0.2666667  -0.1539601  -0.1348511), wk =   0.0035556
        k(   23) = (   0.2666667  -0.1539601  -0.0481611), wk =   0.0035556
        k(   24) = (   0.3333334  -0.1924501   0.0481611), wk =   0.0035556
        k(   25) = (   0.3333334  -0.1924501   0.1348510), wk =   0.0035556
        k(   26) = (   0.3333334  -0.1924501   0.2215410), wk =   0.0035556
        k(   27) = (   0.3333334  -0.1924501  -0.1252188), wk =   0.0035556
        k(   28) = (   0.3333334  -0.1924501  -0.0385289), wk =   0.0035556
        k(   29) = (   0.4000001  -0.2309401   0.0577933), wk =   0.0053333
        k(   30) = (   0.4000001  -0.2309401   0.1444832), wk =   0.0053333
        k(   31) = (   0.4000001  -0.2309401   0.2311732), wk =   0.0053333
        k(   32) = (   0.4000001  -0.2309401  -0.1155866), wk =   0.0053333
        k(   33) = (   0.4000001  -0.2309401  -0.0288967), wk =   0.0053333
        k(   34) = (   0.4666668  -0.2694301   0.0674255), wk =   0.0035556
        k(   35) = (   0.4666668  -0.2694301   0.1541155), wk =   0.0035556
        k(   36) = (   0.4666668  -0.2694301   0.2408054), wk =   0.0035556
        k(   37) = (   0.4666668  -0.2694301  -0.1059544), wk =   0.0035556
        k(   38) = (   0.4666668  -0.2694301  -0.0192645), wk =   0.0035556
        k(   39) = (   0.0000000  -0.0769800   0.0192644), wk =   0.0017778
        k(   40) = (   0.0000000  -0.0769800   0.1059544), wk =   0.0017778
        k(   41) = (   0.0000000  -0.0769800   0.1926443), wk =   0.0017778
        k(   42) = (   0.0000000  -0.0769800  -0.1541155), wk =   0.0017778
        k(   43) = (   0.0000000  -0.0769800  -0.0674255), wk =   0.0017778
        k(   44) = (   0.0666667  -0.1154700   0.0288966), wk =   0.0035556
        k(   45) = (   0.0666667  -0.1154700   0.1155866), wk =   0.0035556
        k(   46) = (   0.0666667  -0.1154700   0.2022766), wk =   0.0035556
        k(   47) = (   0.0666667  -0.1154700  -0.1444833), wk =   0.0035556
        k(   48) = (   0.0666667  -0.1154700  -0.0577933), wk =   0.0035556
        k(   49) = (   0.1333334  -0.1539601   0.0385289), wk =   0.0071111
        k(   50) = (   0.1333334  -0.1539601   0.1252188), wk =   0.0071111
        k(   51) = (   0.1333334  -0.1539601   0.2119088), wk =   0.0071111
        k(   52) = (   0.1333334  -0.1539601  -0.1348511), wk =   0.0071111
        k(   53) = (   0.1333334  -0.1539601  -0.0481611), wk =   0.0071111
        k(   54) = (   0.2000000  -0.1924501   0.0481611), wk =   0.0035556
        k(   55) = (   0.2000000  -0.1924501   0.1348510), wk =   0.0035556
        k(   56) = (   0.2000000  -0.1924501   0.2215410), wk =   0.0035556
        k(   57) = (   0.2000000  -0.1924501  -0.1252188), wk =   0.0035556
        k(   58) = (   0.2000000  -0.1924501  -0.0385289), wk =   0.0035556
        k(   59) = (   0.2666667  -0.2309401   0.0577933), wk =   0.0035556
        k(   60) = (   0.2666667  -0.2309401   0.1444832), wk =   0.0035556
        k(   61) = (   0.2666667  -0.2309401   0.2311732), wk =   0.0035556
        k(   62) = (   0.2666667  -0.2309401  -0.1155866), wk =   0.0035556
        k(   63) = (   0.2666667  -0.2309401  -0.0288967), wk =   0.0035556
        k(   64) = (   0.3333334  -0.2694301   0.0674255), wk =   0.0071111
        k(   65) = (   0.3333334  -0.2694301   0.1541155), wk =   0.0071111
        k(   66) = (   0.3333334  -0.2694301   0.2408054), wk =   0.0071111
        k(   67) = (   0.3333334  -0.2694301  -0.1059544), wk =   0.0071111
        k(   68) = (   0.3333334  -0.2694301  -0.0192645), wk =   0.0071111
        k(   69) = (   0.4000001  -0.3079201   0.0770577), wk =   0.0035556
        k(   70) = (   0.4000001  -0.3079201   0.1637477), wk =   0.0035556
        k(   71) = (   0.4000001  -0.3079201   0.2504376), wk =   0.0035556
        k(   72) = (   0.4000001  -0.3079201  -0.0963222), wk =   0.0035556
        k(   73) = (   0.4000001  -0.3079201  -0.0096322), wk =   0.0035556
        k(   74) = (  -0.5333334   0.2309401  -0.0577933), wk =   0.0035556
        k(   75) = (  -0.5333334   0.2309401   0.0288967), wk =   0.0035556
        k(   76) = (  -0.5333334   0.2309401   0.1155866), wk =   0.0035556
        k(   77) = (  -0.5333334   0.2309401  -0.2311732), wk =   0.0035556
        k(   78) = (  -0.5333334   0.2309401  -0.1444832), wk =   0.0035556
        k(   79) = (  -0.4666668   0.1924501  -0.0481611), wk =   0.0071111
        k(   80) = (  -0.4666668   0.1924501   0.0385289), wk =   0.0071111
        k(   81) = (  -0.4666668   0.1924501   0.1252188), wk =   0.0071111
        k(   82) = (  -0.4666668   0.1924501  -0.2215410), wk =   0.0071111
        k(   83) = (  -0.4666668   0.1924501  -0.1348510), wk =   0.0071111
        k(   84) = (  -0.4000001   0.1539601  -0.0385289), wk =   0.0035556
        k(   85) = (  -0.4000001   0.1539601   0.0481611), wk =   0.0035556
        k(   86) = (  -0.4000001   0.1539601   0.1348511), wk =   0.0035556
        k(   87) = (  -0.4000001   0.1539601  -0.2119088), wk =   0.0035556
        k(   88) = (  -0.4000001   0.1539601  -0.1252188), wk =   0.0035556
        k(   89) = (  -0.3333334   0.1154700  -0.0288966), wk =   0.0035556
        k(   90) = (  -0.3333334   0.1154700   0.0577933), wk =   0.0035556
        k(   91) = (  -0.3333334   0.1154700   0.1444833), wk =   0.0035556
        k(   92) = (  -0.3333334   0.1154700  -0.2022766), wk =   0.0035556
        k(   93) = (  -0.3333334   0.1154700  -0.1155866), wk =   0.0035556
        k(   94) = (  -0.2666667   0.0769800  -0.0192644), wk =   0.0071111
        k(   95) = (  -0.2666667   0.0769800   0.0674255), wk =   0.0071111
        k(   96) = (  -0.2666667   0.0769800   0.1541155), wk =   0.0071111
        k(   97) = (  -0.2666667   0.0769800  -0.1926443), wk =   0.0071111
        k(   98) = (  -0.2666667   0.0769800  -0.1059544), wk =   0.0071111
        k(   99) = (  -0.2000000   0.0384900  -0.0096322), wk =   0.0035556
        k(  100) = (  -0.2000000   0.0384900   0.0770577), wk =   0.0035556
        k(  101) = (  -0.2000000   0.0384900   0.1637477), wk =   0.0035556
        k(  102) = (  -0.2000000   0.0384900  -0.1830121), wk =   0.0035556
        k(  103) = (  -0.2000000   0.0384900  -0.0963222), wk =   0.0035556
        k(  104) = (  -0.1333334  -0.0000000   0.0000000), wk =   0.0017778
        k(  105) = (  -0.1333334  -0.0000000   0.0866900), wk =   0.0035556
        k(  106) = (  -0.1333334  -0.0000000   0.1733799), wk =   0.0035556
        k(  107) = (   0.0000000  -0.1539601   0.0385289), wk =   0.0017778
        k(  108) = (   0.0000000  -0.1539601   0.1252188), wk =   0.0017778
        k(  109) = (   0.0000000  -0.1539601   0.2119088), wk =   0.0017778
        k(  110) = (   0.0000000  -0.1539601  -0.1348511), wk =   0.0017778
        k(  111) = (   0.0000000  -0.1539601  -0.0481611), wk =   0.0017778
        k(  112) = (   0.1333334  -0.2309401   0.0577933), wk =   0.0035556
        k(  113) = (   0.1333334  -0.2309401   0.1444832), wk =   0.0035556
        k(  114) = (   0.1333334  -0.2309401   0.2311732), wk =   0.0035556
        k(  115) = (   0.1333334  -0.2309401  -0.1155866), wk =   0.0035556
        k(  116) = (   0.1333334  -0.2309401  -0.0288967), wk =   0.0035556
        k(  117) = (   0.2000000  -0.2694301   0.0674255), wk =   0.0035556
        k(  118) = (   0.2000000  -0.2694301   0.1541155), wk =   0.0035556
        k(  119) = (   0.2000000  -0.2694301   0.2408054), wk =   0.0035556
        k(  120) = (   0.2000000  -0.2694301  -0.1059544), wk =   0.0035556
        k(  121) = (   0.2000000  -0.2694301  -0.0192645), wk =   0.0035556
        k(  122) = (   0.2666667  -0.3079201   0.0770577), wk =   0.0071111
        k(  123) = (   0.2666667  -0.3079201   0.1637477), wk =   0.0071111
        k(  124) = (   0.2666667  -0.3079201   0.2504376), wk =   0.0071111
        k(  125) = (   0.2666667  -0.3079201  -0.0963222), wk =   0.0071111
        k(  126) = (   0.2666667  -0.3079201  -0.0096322), wk =   0.0071111
        k(  127) = (   0.3333334  -0.3464101   0.0866899), wk =   0.0035556
        k(  128) = (   0.3333334  -0.3464101   0.1733799), wk =   0.0035556
        k(  129) = (   0.3333334  -0.3464101   0.2600698), wk =   0.0035556
        k(  130) = (   0.3333334  -0.3464101  -0.0866900), wk =   0.0035556
        k(  131) = (   0.3333334  -0.3464101  -0.0000000), wk =   0.0035556
        k(  132) = (  -0.6000001   0.1924501  -0.0481611), wk =   0.0035556
        k(  133) = (  -0.6000001   0.1924501   0.0385289), wk =   0.0035556
        k(  134) = (  -0.6000001   0.1924501   0.1252188), wk =   0.0035556
        k(  135) = (  -0.6000001   0.1924501  -0.2215410), wk =   0.0035556
        k(  136) = (  -0.6000001   0.1924501  -0.1348510), wk =   0.0035556
        k(  137) = (  -0.5333334   0.1539601  -0.0385289), wk =   0.0071111
        k(  138) = (  -0.5333334   0.1539601   0.0481611), wk =   0.0071111
        k(  139) = (  -0.5333334   0.1539601   0.1348511), wk =   0.0071111
        k(  140) = (  -0.5333334   0.1539601  -0.2119088), wk =   0.0071111
        k(  141) = (  -0.5333334   0.1539601  -0.1252188), wk =   0.0071111
        k(  142) = (  -0.4666668   0.1154700  -0.0288966), wk =   0.0035556
        k(  143) = (  -0.4666668   0.1154700   0.0577933), wk =   0.0035556
        k(  144) = (  -0.4666668   0.1154700   0.1444833), wk =   0.0035556
        k(  145) = (  -0.4666668   0.1154700  -0.2022766), wk =   0.0035556
        k(  146) = (  -0.4666668   0.1154700  -0.1155866), wk =   0.0035556
        k(  147) = (  -0.4000001   0.0769800  -0.0192644), wk =   0.0035556
        k(  148) = (  -0.4000001   0.0769800   0.0674255), wk =   0.0035556
        k(  149) = (  -0.4000001   0.0769800   0.1541155), wk =   0.0035556
        k(  150) = (  -0.4000001   0.0769800  -0.1926443), wk =   0.0035556
        k(  151) = (  -0.4000001   0.0769800  -0.1059544), wk =   0.0035556
        k(  152) = (  -0.3333334   0.0384900  -0.0096322), wk =   0.0071111
        k(  153) = (  -0.3333334   0.0384900   0.0770577), wk =   0.0071111
        k(  154) = (  -0.3333334   0.0384900   0.1637477), wk =   0.0071111
        k(  155) = (  -0.3333334   0.0384900  -0.1830121), wk =   0.0071111
        k(  156) = (  -0.3333334   0.0384900  -0.0963222), wk =   0.0071111
        k(  157) = (  -0.2666667  -0.0000000   0.0000000), wk =   0.0017778
        k(  158) = (  -0.2666667  -0.0000000   0.0866900), wk =   0.0035556
        k(  159) = (  -0.2666667  -0.0000000   0.1733799), wk =   0.0035556
        k(  160) = (   0.2000000  -0.3464101   0.0866899), wk =   0.0106667
        k(  161) = (   0.2000000  -0.3464101   0.1733799), wk =   0.0106667
        k(  162) = (   0.2000000  -0.3464101  -0.0000000), wk =   0.0053333
        k(  163) = (   0.2666667  -0.3849002   0.0963221), wk =   0.0071111
        k(  164) = (   0.2666667  -0.3849002   0.1830121), wk =   0.0071111
        k(  165) = (   0.2666667  -0.3849002   0.2697020), wk =   0.0071111
        k(  166) = (   0.2666667  -0.3849002  -0.0770578), wk =   0.0071111
        k(  167) = (   0.2666667  -0.3849002   0.0096322), wk =   0.0071111
        k(  168) = (  -0.6666668   0.1539601  -0.0385289), wk =   0.0071111
        k(  169) = (  -0.6666668   0.1539601   0.0481611), wk =   0.0071111
        k(  170) = (  -0.6666668   0.1539601   0.1348511), wk =   0.0071111
        k(  171) = (  -0.6666668   0.1539601  -0.2119088), wk =   0.0071111
        k(  172) = (  -0.6666668   0.1539601  -0.1252188), wk =   0.0071111
        k(  173) = (  -0.6000001   0.1154700  -0.0288966), wk =   0.0106667
        k(  174) = (  -0.6000001   0.1154700   0.0577933), wk =   0.0106667
        k(  175) = (  -0.6000001   0.1154700   0.1444833), wk =   0.0053333
        k(  176) = (   0.0000000  -0.3079201   0.0770577), wk =   0.0017778
        k(  177) = (   0.0000000  -0.3079201   0.1637477), wk =   0.0017778
        k(  178) = (   0.0000000  -0.3079201   0.2504376), wk =   0.0017778
        k(  179) = (   0.0000000  -0.3079201  -0.0963222), wk =   0.0017778
        k(  180) = (   0.0000000  -0.3079201  -0.0096322), wk =   0.0017778
        k(  181) = (   0.0666667  -0.3464101   0.0866899), wk =   0.0035556
        k(  182) = (   0.0666667  -0.3464101   0.1733799), wk =   0.0035556
        k(  183) = (   0.0666667  -0.3464101   0.2600698), wk =   0.0035556
        k(  184) = (   0.0666667  -0.3464101  -0.0866900), wk =   0.0035556
        k(  185) = (   0.0666667  -0.3464101  -0.0000000), wk =   0.0035556
        k(  186) = (   0.2000000  -0.4233902   0.1059543), wk =   0.0035556
        k(  187) = (   0.2000000  -0.4233902   0.1926443), wk =   0.0035556
        k(  188) = (   0.2000000  -0.4233902   0.2793343), wk =   0.0035556
        k(  189) = (   0.2000000  -0.4233902  -0.0674256), wk =   0.0035556
        k(  190) = (   0.2000000  -0.4233902   0.0192644), wk =   0.0035556
        k(  191) = (  -0.7333335   0.1154700  -0.0288966), wk =   0.0035556
        k(  192) = (  -0.7333335   0.1154700   0.0577933), wk =   0.0035556
        k(  193) = (  -0.7333335   0.1154700   0.1444833), wk =   0.0035556
        k(  194) = (  -0.7333335   0.1154700  -0.2022766), wk =   0.0035556
        k(  195) = (  -0.7333335   0.1154700  -0.1155866), wk =   0.0035556
        k(  196) = (  -0.6666668   0.0769800  -0.0192644), wk =   0.0071111
        k(  197) = (  -0.6666668   0.0769800   0.0674255), wk =   0.0071111
        k(  198) = (  -0.6666668   0.0769800   0.1541155), wk =   0.0071111
        k(  199) = (  -0.6666668   0.0769800  -0.1926443), wk =   0.0071111
        k(  200) = (  -0.6666668   0.0769800  -0.1059544), wk =   0.0071111
        k(  201) = (  -0.6000001   0.0384900  -0.0096322), wk =   0.0035556
        k(  202) = (  -0.6000001   0.0384900   0.0770577), wk =   0.0035556
        k(  203) = (  -0.6000001   0.0384900   0.1637477), wk =   0.0035556
        k(  204) = (  -0.6000001   0.0384900  -0.1830121), wk =   0.0035556
        k(  205) = (  -0.6000001   0.0384900  -0.0963222), wk =   0.0035556
        k(  206) = (  -0.5333334   0.0000000  -0.0000000), wk =   0.0017778
        k(  207) = (  -0.5333334   0.0000000   0.0866900), wk =   0.0035556
        k(  208) = (  -0.5333334   0.0000000   0.1733799), wk =   0.0035556
        k(  209) = (   0.0000000  -0.3849002   0.0963221), wk =   0.0017778
        k(  210) = (   0.0000000  -0.3849002   0.1830121), wk =   0.0017778
        k(  211) = (   0.0000000  -0.3849002   0.2697020), wk =   0.0017778
        k(  212) = (   0.0000000  -0.3849002  -0.0770578), wk =   0.0017778
        k(  213) = (   0.0000000  -0.3849002   0.0096322), wk =   0.0017778
        k(  214) = (   0.1333334  -0.4618802   0.1155866), wk =   0.0035556
        k(  215) = (   0.1333334  -0.4618802   0.2022765), wk =   0.0035556
        k(  216) = (   0.1333334  -0.4618802   0.2889665), wk =   0.0035556
        k(  217) = (   0.1333334  -0.4618802  -0.0577934), wk =   0.0035556
        k(  218) = (   0.1333334  -0.4618802   0.0288966), wk =   0.0035556
        k(  219) = (  -0.8000001   0.0769800  -0.0192644), wk =   0.0035556
        k(  220) = (  -0.8000001   0.0769800   0.0674255), wk =   0.0035556
        k(  221) = (  -0.8000001   0.0769800   0.1541155), wk =   0.0035556
        k(  222) = (  -0.8000001   0.0769800  -0.1926443), wk =   0.0035556
        k(  223) = (  -0.8000001   0.0769800  -0.1059544), wk =   0.0035556
        k(  224) = (  -0.6666668   0.0000000  -0.0000000), wk =   0.0017778
        k(  225) = (  -0.6666668   0.0000000   0.0866900), wk =   0.0035556
        k(  226) = (  -0.6666668   0.0000000   0.1733799), wk =   0.0035556
        k(  227) = (   0.0000000  -0.5388602   0.1348510), wk =   0.0017778
        k(  228) = (   0.0000000  -0.5388602   0.2215409), wk =   0.0017778
        k(  229) = (   0.0000000  -0.5388602   0.3082309), wk =   0.0017778
        k(  230) = (   0.0000000  -0.5388602  -0.0385289), wk =   0.0017778
        k(  231) = (   0.0000000  -0.5388602   0.0481610), wk =   0.0017778
        k(  232) = (  -0.9333335   0.0000000   0.0000000), wk =   0.0017778
        k(  233) = (  -0.9333335   0.0000000   0.0866900), wk =   0.0035556
        k(  234) = (  -0.9333335   0.0000000   0.1733799), wk =   0.0035556

                       cryst. coord.
        k(    1) = (   0.0000000   0.0000000   0.0000000), wk =   0.0008889
        k(    2) = (   0.0000000   0.0000000   0.2000000), wk =   0.0017778
        k(    3) = (   0.0000000   0.0000000   0.4000000), wk =   0.0017778
        k(    4) = (  -0.0000000   0.0666667   0.0000000), wk =   0.0035556
        k(    5) = (  -0.0000000   0.0666667   0.2000000), wk =   0.0035556
        k(    6) = (  -0.0000000   0.0666667   0.4000000), wk =   0.0035556
        k(    7) = (  -0.0000000   0.0666667  -0.4000000), wk =   0.0035556
        k(    8) = (  -0.0000000   0.0666667  -0.2000000), wk =   0.0035556
        k(    9) = (  -0.0000000   0.1333333   0.0000000), wk =   0.0035556
        k(   10) = (  -0.0000000   0.1333333   0.2000000), wk =   0.0035556
        k(   11) = (  -0.0000000   0.1333333   0.4000000), wk =   0.0035556
        k(   12) = (  -0.0000000   0.1333333  -0.4000000), wk =   0.0035556
        k(   13) = (  -0.0000000   0.1333333  -0.2000000), wk =   0.0035556
        k(   14) = (  -0.0000000   0.2000000   0.0000000), wk =   0.0053333
        k(   15) = (  -0.0000000   0.2000000   0.2000000), wk =   0.0053333
        k(   16) = (  -0.0000000   0.2000000   0.4000000), wk =   0.0053333
        k(   17) = (  -0.0000000   0.2000000  -0.4000000), wk =   0.0053333
        k(   18) = (  -0.0000000   0.2000000  -0.2000000), wk =   0.0053333
        k(   19) = (  -0.0000000   0.2666667   0.0000000), wk =   0.0035556
        k(   20) = (  -0.0000000   0.2666667   0.2000000), wk =   0.0035556
        k(   21) = (  -0.0000000   0.2666667   0.4000000), wk =   0.0035556
        k(   22) = (  -0.0000000   0.2666667  -0.4000000), wk =   0.0035556
        k(   23) = (  -0.0000000   0.2666667  -0.2000000), wk =   0.0035556
        k(   24) = (  -0.0000000   0.3333333   0.0000000), wk =   0.0035556
        k(   25) = (  -0.0000000   0.3333333   0.2000000), wk =   0.0035556
        k(   26) = (  -0.0000000   0.3333333   0.4000000), wk =   0.0035556
        k(   27) = (  -0.0000000   0.3333333  -0.4000000), wk =   0.0035556
        k(   28) = (  -0.0000000   0.3333333  -0.2000000), wk =   0.0035556
        k(   29) = (  -0.0000000   0.4000000   0.0000000), wk =   0.0053333
        k(   30) = (  -0.0000000   0.4000000   0.2000000), wk =   0.0053333
        k(   31) = (  -0.0000000   0.4000000   0.4000000), wk =   0.0053333
        k(   32) = (  -0.0000000   0.4000000  -0.4000000), wk =   0.0053333
        k(   33) = (  -0.0000000   0.4000000  -0.2000000), wk =   0.0053333
        k(   34) = (   0.0000000   0.4666667   0.0000000), wk =   0.0035556
        k(   35) = (   0.0000000   0.4666667   0.2000000), wk =   0.0035556
        k(   36) = (   0.0000000   0.4666667   0.4000000), wk =   0.0035556
        k(   37) = (   0.0000000   0.4666667  -0.4000000), wk =   0.0035556
        k(   38) = (   0.0000000   0.4666667  -0.2000000), wk =   0.0035556
        k(   39) = (   0.0666667   0.0666667   0.0000000), wk =   0.0017778
        k(   40) = (   0.0666667   0.0666667   0.2000000), wk =   0.0017778
        k(   41) = (   0.0666667   0.0666667   0.4000000), wk =   0.0017778
        k(   42) = (   0.0666667   0.0666667  -0.4000000), wk =   0.0017778
        k(   43) = (   0.0666667   0.0666667  -0.2000000), wk =   0.0017778
        k(   44) = (   0.0666667   0.1333333   0.0000000), wk =   0.0035556
        k(   45) = (   0.0666667   0.1333333   0.2000000), wk =   0.0035556
        k(   46) = (   0.0666667   0.1333333   0.4000000), wk =   0.0035556
        k(   47) = (   0.0666667   0.1333333  -0.4000000), wk =   0.0035556
        k(   48) = (   0.0666667   0.1333333  -0.2000000), wk =   0.0035556
        k(   49) = (   0.0666667   0.2000000   0.0000000), wk =   0.0071111
        k(   50) = (   0.0666667   0.2000000   0.2000000), wk =   0.0071111
        k(   51) = (   0.0666667   0.2000000   0.4000000), wk =   0.0071111
        k(   52) = (   0.0666667   0.2000000  -0.4000000), wk =   0.0071111
        k(   53) = (   0.0666667   0.2000000  -0.2000000), wk =   0.0071111
        k(   54) = (   0.0666667   0.2666667   0.0000000), wk =   0.0035556
        k(   55) = (   0.0666667   0.2666667   0.2000000), wk =   0.0035556
        k(   56) = (   0.0666667   0.2666667   0.4000000), wk =   0.0035556
        k(   57) = (   0.0666667   0.2666667  -0.4000000), wk =   0.0035556
        k(   58) = (   0.0666667   0.2666667  -0.2000000), wk =   0.0035556
        k(   59) = (   0.0666667   0.3333333   0.0000000), wk =   0.0035556
        k(   60) = (   0.0666667   0.3333333   0.2000000), wk =   0.0035556
        k(   61) = (   0.0666667   0.3333333   0.4000000), wk =   0.0035556
        k(   62) = (   0.0666667   0.3333333  -0.4000000), wk =   0.0035556
        k(   63) = (   0.0666667   0.3333333  -0.2000000), wk =   0.0035556
        k(   64) = (   0.0666667   0.4000000   0.0000000), wk =   0.0071111
        k(   65) = (   0.0666667   0.4000000   0.2000000), wk =   0.0071111
        k(   66) = (   0.0666667   0.4000000   0.4000000), wk =   0.0071111
        k(   67) = (   0.0666667   0.4000000  -0.4000000), wk =   0.0071111
        k(   68) = (   0.0666667   0.4000000  -0.2000000), wk =   0.0071111
        k(   69) = (   0.0666667   0.4666667   0.0000000), wk =   0.0035556
        k(   70) = (   0.0666667   0.4666667   0.2000000), wk =   0.0035556
        k(   71) = (   0.0666667   0.4666667   0.4000000), wk =   0.0035556
        k(   72) = (   0.0666667   0.4666667  -0.4000000), wk =   0.0035556
        k(   73) = (   0.0666667   0.4666667  -0.2000000), wk =   0.0035556
        k(   74) = (   0.0666667  -0.4666667   0.0000000), wk =   0.0035556
        k(   75) = (   0.0666667  -0.4666667   0.2000000), wk =   0.0035556
        k(   76) = (   0.0666667  -0.4666667   0.4000000), wk =   0.0035556
        k(   77) = (   0.0666667  -0.4666667  -0.4000000), wk =   0.0035556
        k(   78) = (   0.0666667  -0.4666667  -0.2000000), wk =   0.0035556
        k(   79) = (   0.0666667  -0.4000000   0.0000000), wk =   0.0071111
        k(   80) = (   0.0666667  -0.4000000   0.2000000), wk =   0.0071111
        k(   81) = (   0.0666667  -0.4000000   0.4000000), wk =   0.0071111
        k(   82) = (   0.0666667  -0.4000000  -0.4000000), wk =   0.0071111
        k(   83) = (   0.0666667  -0.4000000  -0.2000000), wk =   0.0071111
        k(   84) = (   0.0666667  -0.3333333  -0.0000000), wk =   0.0035556
        k(   85) = (   0.0666667  -0.3333333   0.2000000), wk =   0.0035556
        k(   86) = (   0.0666667  -0.3333333   0.4000000), wk =   0.0035556
        k(   87) = (   0.0666667  -0.3333333  -0.4000000), wk =   0.0035556
        k(   88) = (   0.0666667  -0.3333333  -0.2000000), wk =   0.0035556
        k(   89) = (   0.0666667  -0.2666667  -0.0000000), wk =   0.0035556
        k(   90) = (   0.0666667  -0.2666667   0.2000000), wk =   0.0035556
        k(   91) = (   0.0666667  -0.2666667   0.4000000), wk =   0.0035556
        k(   92) = (   0.0666667  -0.2666667  -0.4000000), wk =   0.0035556
        k(   93) = (   0.0666667  -0.2666667  -0.2000000), wk =   0.0035556
        k(   94) = (   0.0666667  -0.2000000   0.0000000), wk =   0.0071111
        k(   95) = (   0.0666667  -0.2000000   0.2000000), wk =   0.0071111
        k(   96) = (   0.0666667  -0.2000000   0.4000000), wk =   0.0071111
        k(   97) = (   0.0666667  -0.2000000  -0.4000000), wk =   0.0071111
        k(   98) = (   0.0666667  -0.2000000  -0.2000000), wk =   0.0071111
        k(   99) = (   0.0666667  -0.1333333  -0.0000000), wk =   0.0035556
        k(  100) = (   0.0666667  -0.1333333   0.2000000), wk =   0.0035556
        k(  101) = (   0.0666667  -0.1333333   0.4000000), wk =   0.0035556
        k(  102) = (   0.0666667  -0.1333333  -0.4000000), wk =   0.0035556
        k(  103) = (   0.0666667  -0.1333333  -0.2000000), wk =   0.0035556
        k(  104) = (   0.0666667  -0.0666667  -0.0000000), wk =   0.0017778
        k(  105) = (   0.0666667  -0.0666667   0.2000000), wk =   0.0035556
        k(  106) = (   0.0666667  -0.0666667   0.4000000), wk =   0.0035556
        k(  107) = (   0.1333333   0.1333333   0.0000000), wk =   0.0017778
        k(  108) = (   0.1333333   0.1333333   0.2000000), wk =   0.0017778
        k(  109) = (   0.1333333   0.1333333   0.4000000), wk =   0.0017778
        k(  110) = (   0.1333333   0.1333333  -0.4000000), wk =   0.0017778
        k(  111) = (   0.1333333   0.1333333  -0.2000000), wk =   0.0017778
        k(  112) = (   0.1333333   0.2666667   0.0000000), wk =   0.0035556
        k(  113) = (   0.1333333   0.2666667   0.2000000), wk =   0.0035556
        k(  114) = (   0.1333333   0.2666667   0.4000000), wk =   0.0035556
        k(  115) = (   0.1333333   0.2666667  -0.4000000), wk =   0.0035556
        k(  116) = (   0.1333333   0.2666667  -0.2000000), wk =   0.0035556
        k(  117) = (   0.1333333   0.3333333   0.0000000), wk =   0.0035556
        k(  118) = (   0.1333333   0.3333333   0.2000000), wk =   0.0035556
        k(  119) = (   0.1333333   0.3333333   0.4000000), wk =   0.0035556
        k(  120) = (   0.1333333   0.3333333  -0.4000000), wk =   0.0035556
        k(  121) = (   0.1333333   0.3333333  -0.2000000), wk =   0.0035556
        k(  122) = (   0.1333333   0.4000000   0.0000000), wk =   0.0071111
        k(  123) = (   0.1333333   0.4000000   0.2000000), wk =   0.0071111
        k(  124) = (   0.1333333   0.4000000   0.4000000), wk =   0.0071111
        k(  125) = (   0.1333333   0.4000000  -0.4000000), wk =   0.0071111
        k(  126) = (   0.1333333   0.4000000  -0.2000000), wk =   0.0071111
        k(  127) = (   0.1333333   0.4666667   0.0000000), wk =   0.0035556
        k(  128) = (   0.1333333   0.4666667   0.2000000), wk =   0.0035556
        k(  129) = (   0.1333333   0.4666667   0.4000000), wk =   0.0035556
        k(  130) = (   0.1333333   0.4666667  -0.4000000), wk =   0.0035556
        k(  131) = (   0.1333333   0.4666667  -0.2000000), wk =   0.0035556
        k(  132) = (   0.1333333  -0.4666667   0.0000000), wk =   0.0035556
        k(  133) = (   0.1333333  -0.4666667   0.2000000), wk =   0.0035556
        k(  134) = (   0.1333333  -0.4666667   0.4000000), wk =   0.0035556
        k(  135) = (   0.1333333  -0.4666667  -0.4000000), wk =   0.0035556
        k(  136) = (   0.1333333  -0.4666667  -0.2000000), wk =   0.0035556
        k(  137) = (   0.1333333  -0.4000000  -0.0000000), wk =   0.0071111
        k(  138) = (   0.1333333  -0.4000000   0.2000000), wk =   0.0071111
        k(  139) = (   0.1333333  -0.4000000   0.4000000), wk =   0.0071111
        k(  140) = (   0.1333333  -0.4000000  -0.4000000), wk =   0.0071111
        k(  141) = (   0.1333333  -0.4000000  -0.2000000), wk =   0.0071111
        k(  142) = (   0.1333333  -0.3333333  -0.0000000), wk =   0.0035556
        k(  143) = (   0.1333333  -0.3333333   0.2000000), wk =   0.0035556
        k(  144) = (   0.1333333  -0.3333333   0.4000000), wk =   0.0035556
        k(  145) = (   0.1333333  -0.3333333  -0.4000000), wk =   0.0035556
        k(  146) = (   0.1333333  -0.3333333  -0.2000000), wk =   0.0035556
        k(  147) = (   0.1333333  -0.2666667  -0.0000000), wk =   0.0035556
        k(  148) = (   0.1333333  -0.2666667   0.2000000), wk =   0.0035556
        k(  149) = (   0.1333333  -0.2666667   0.4000000), wk =   0.0035556
        k(  150) = (   0.1333333  -0.2666667  -0.4000000), wk =   0.0035556
        k(  151) = (   0.1333333  -0.2666667  -0.2000000), wk =   0.0035556
        k(  152) = (   0.1333333  -0.2000000  -0.0000000), wk =   0.0071111
        k(  153) = (   0.1333333  -0.2000000   0.2000000), wk =   0.0071111
        k(  154) = (   0.1333333  -0.2000000   0.4000000), wk =   0.0071111
        k(  155) = (   0.1333333  -0.2000000  -0.4000000), wk =   0.0071111
        k(  156) = (   0.1333333  -0.2000000  -0.2000000), wk =   0.0071111
        k(  157) = (   0.1333333  -0.1333333  -0.0000000), wk =   0.0017778
        k(  158) = (   0.1333333  -0.1333333   0.2000000), wk =   0.0035556
        k(  159) = (   0.1333333  -0.1333333   0.4000000), wk =   0.0035556
        k(  160) = (   0.2000000   0.4000000   0.0000000), wk =   0.0106667
        k(  161) = (   0.2000000   0.4000000   0.2000000), wk =   0.0106667
        k(  162) = (   0.2000000   0.4000000  -0.2000000), wk =   0.0053333
        k(  163) = (   0.2000000   0.4666667   0.0000000), wk =   0.0071111
        k(  164) = (   0.2000000   0.4666667   0.2000000), wk =   0.0071111
        k(  165) = (   0.2000000   0.4666667   0.4000000), wk =   0.0071111
        k(  166) = (   0.2000000   0.4666667  -0.4000000), wk =   0.0071111
        k(  167) = (   0.2000000   0.4666667  -0.2000000), wk =   0.0071111
        k(  168) = (   0.2000000  -0.4666667   0.0000000), wk =   0.0071111
        k(  169) = (   0.2000000  -0.4666667   0.2000000), wk =   0.0071111
        k(  170) = (   0.2000000  -0.4666667   0.4000000), wk =   0.0071111
        k(  171) = (   0.2000000  -0.4666667  -0.4000000), wk =   0.0071111
        k(  172) = (   0.2000000  -0.4666667  -0.2000000), wk =   0.0071111
        k(  173) = (   0.2000000  -0.4000000   0.0000000), wk =   0.0106667
        k(  174) = (   0.2000000  -0.4000000   0.2000000), wk =   0.0106667
        k(  175) = (   0.2000000  -0.4000000   0.4000000), wk =   0.0053333
        k(  176) = (   0.2666667   0.2666667   0.0000000), wk =   0.0017778
        k(  177) = (   0.2666667   0.2666667   0.2000000), wk =   0.0017778
        k(  178) = (   0.2666667   0.2666667   0.4000000), wk =   0.0017778
        k(  179) = (   0.2666667   0.2666667  -0.4000000), wk =   0.0017778
        k(  180) = (   0.2666667   0.2666667  -0.2000000), wk =   0.0017778
        k(  181) = (   0.2666667   0.3333333   0.0000000), wk =   0.0035556
        k(  182) = (   0.2666667   0.3333333   0.2000000), wk =   0.0035556
        k(  183) = (   0.2666667   0.3333333   0.4000000), wk =   0.0035556
        k(  184) = (   0.2666667   0.3333333  -0.4000000), wk =   0.0035556
        k(  185) = (   0.2666667   0.3333333  -0.2000000), wk =   0.0035556
        k(  186) = (   0.2666667   0.4666667   0.0000000), wk =   0.0035556
        k(  187) = (   0.2666667   0.4666667   0.2000000), wk =   0.0035556
        k(  188) = (   0.2666667   0.4666667   0.4000000), wk =   0.0035556
        k(  189) = (   0.2666667   0.4666667  -0.4000000), wk =   0.0035556
        k(  190) = (   0.2666667   0.4666667  -0.2000000), wk =   0.0035556
        k(  191) = (   0.2666667  -0.4666667  -0.0000000), wk =   0.0035556
        k(  192) = (   0.2666667  -0.4666667   0.2000000), wk =   0.0035556
        k(  193) = (   0.2666667  -0.4666667   0.4000000), wk =   0.0035556
        k(  194) = (   0.2666667  -0.4666667  -0.4000000), wk =   0.0035556
        k(  195) = (   0.2666667  -0.4666667  -0.2000000), wk =   0.0035556
        k(  196) = (   0.2666667  -0.4000000  -0.0000000), wk =   0.0071111
        k(  197) = (   0.2666667  -0.4000000   0.2000000), wk =   0.0071111
        k(  198) = (   0.2666667  -0.4000000   0.4000000), wk =   0.0071111
        k(  199) = (   0.2666667  -0.4000000  -0.4000000), wk =   0.0071111
        k(  200) = (   0.2666667  -0.4000000  -0.2000000), wk =   0.0071111
        k(  201) = (   0.2666667  -0.3333333  -0.0000000), wk =   0.0035556
        k(  202) = (   0.2666667  -0.3333333   0.2000000), wk =   0.0035556
        k(  203) = (   0.2666667  -0.3333333   0.4000000), wk =   0.0035556
        k(  204) = (   0.2666667  -0.3333333  -0.4000000), wk =   0.0035556
        k(  205) = (   0.2666667  -0.3333333  -0.2000000), wk =   0.0035556
        k(  206) = (   0.2666667  -0.2666667   0.0000000), wk =   0.0017778
        k(  207) = (   0.2666667  -0.2666667   0.2000000), wk =   0.0035556
        k(  208) = (   0.2666667  -0.2666667   0.4000000), wk =   0.0035556
        k(  209) = (   0.3333333   0.3333333   0.0000000), wk =   0.0017778
        k(  210) = (   0.3333333   0.3333333   0.2000000), wk =   0.0017778
        k(  211) = (   0.3333333   0.3333333   0.4000000), wk =   0.0017778
        k(  212) = (   0.3333333   0.3333333  -0.4000000), wk =   0.0017778
        k(  213) = (   0.3333333   0.3333333  -0.2000000), wk =   0.0017778
        k(  214) = (   0.3333333   0.4666667   0.0000000), wk =   0.0035556
        k(  215) = (   0.3333333   0.4666667   0.2000000), wk =   0.0035556
        k(  216) = (   0.3333333   0.4666667   0.4000000), wk =   0.0035556
        k(  217) = (   0.3333333   0.4666667  -0.4000000), wk =   0.0035556
        k(  218) = (   0.3333333   0.4666667  -0.2000000), wk =   0.0035556
        k(  219) = (   0.3333333  -0.4666667  -0.0000000), wk =   0.0035556
        k(  220) = (   0.3333333  -0.4666667   0.2000000), wk =   0.0035556
        k(  221) = (   0.3333333  -0.4666667   0.4000000), wk =   0.0035556
        k(  222) = (   0.3333333  -0.4666667  -0.4000000), wk =   0.0035556
        k(  223) = (   0.3333333  -0.4666667  -0.2000000), wk =   0.0035556
        k(  224) = (   0.3333333  -0.3333333   0.0000000), wk =   0.0017778
        k(  225) = (   0.3333333  -0.3333333   0.2000000), wk =   0.0035556
        k(  226) = (   0.3333333  -0.3333333   0.4000000), wk =   0.0035556
        k(  227) = (   0.4666667   0.4666667   0.0000000), wk =   0.0017778
        k(  228) = (   0.4666667   0.4666667   0.2000000), wk =   0.0017778
        k(  229) = (   0.4666667   0.4666667   0.4000000), wk =   0.0017778
        k(  230) = (   0.4666667   0.4666667  -0.4000000), wk =   0.0017778
        k(  231) = (   0.4666667   0.4666667  -0.2000000), wk =   0.0017778
        k(  232) = (   0.4666667  -0.4666667   0.0000000), wk =   0.0017778
        k(  233) = (   0.4666667  -0.4666667   0.2000000), wk =   0.0035556
        k(  234) = (   0.4666667  -0.4666667   0.4000000), wk =   0.0035556

     Dense  grid:   169655 G-vectors     FFT dimensions: (  60,  60, 135)

     Smooth grid:    92305 G-vectors     FFT dimensions: (  48,  48, 108)

     Dynamical RAM for                 wfc:       1.56 MB

     Dynamical RAM for     wfc (w. buffer):     184.09 MB

     Dynamical RAM for           str. fact:       0.16 MB

     Dynamical RAM for           local pot:       0.00 MB

     Dynamical RAM for          nlocal pot:       0.93 MB

     Dynamical RAM for                qrad:       9.21 MB

     Dynamical RAM for          rho,v,vnew:       2.62 MB

     Dynamical RAM for               rhoin:       0.87 MB

     Dynamical RAM for            rho*nmix:       5.18 MB

     Dynamical RAM for           G-vectors:       0.33 MB

     Dynamical RAM for          h,s,v(r/c):       3.69 MB

     Dynamical RAM for          <psi|beta>:       0.74 MB

     Dynamical RAM for                 psi:       3.12 MB

     Dynamical RAM for                hpsi:       3.12 MB

     Dynamical RAM for      wfcinit/wfcrot:       2.80 MB

     Estimated static dynamical RAM per process >     204.73 MB

     Estimated max dynamical RAM per process >     215.40 MB

     Estimated total dynamical RAM >      13.46 GB

     Check: negative core charge=   -0.000002

     Initial potential from superposition of free atoms

     starting charge  117.99782, renormalised to  118.00000
     Starting wfcs are  130 randomized atomic wfcs +   12 random wfcs

     total cpu time spent up to now is       23.0 secs

     Self-consistent Calculation

     iteration #  1     ecut=    80.00 Ry     beta= 0.70
     Davidson diagonalization with overlap
     ethr =  1.00E-02,  avg # of iterations =  5.9

     Threshold (ethr) on eigenvalues was too large:
     Diagonalizing with lowered threshold

     Davidson diagonalization with overlap
     ethr =  1.74E-04,  avg # of iterations =  5.0

     total cpu time spent up to now is      233.7 secs

     total energy              =   -2957.60783302 Ry
     estimated scf accuracy    <       0.20280723 Ry

     iteration #  2     ecut=    80.00 Ry     beta= 0.70
     Davidson diagonalization with overlap
     ethr =  1.72E-04,  avg # of iterations =  7.7

     total cpu time spent up to now is      378.2 secs

     total energy              =   -2957.30415812 Ry
     estimated scf accuracy    <       3.42466772 Ry

     iteration #  3     ecut=    80.00 Ry     beta= 0.70
     Davidson diagonalization with overlap
     ethr =  1.72E-04,  avg # of iterations =  6.3

     total cpu time spent up to now is      508.5 secs

     total energy              =   -2957.68947858 Ry
     estimated scf accuracy    <       0.24911748 Ry

     iteration #  4     ecut=    80.00 Ry     beta= 0.70
     Davidson diagonalization with overlap
     ethr =  1.72E-04,  avg # of iterations =  2.3

     total cpu time spent up to now is      594.2 secs

     total energy              =   -2957.71824657 Ry
     estimated scf accuracy    <       0.00415407 Ry

     iteration #  5     ecut=    80.00 Ry     beta= 0.70
     Davidson diagonalization with overlap
     ethr =  3.52E-06,  avg # of iterations =  7.0

     total cpu time spent up to now is      719.2 secs

     total energy              =   -2957.71884507 Ry
     estimated scf accuracy    <       0.00012842 Ry

     iteration #  6     ecut=    80.00 Ry     beta= 0.70
     Davidson diagonalization with overlap
     ethr =  1.09E-07,  avg # of iterations =  2.0

     total cpu time spent up to now is      809.3 secs

     total energy              =   -2957.71886868 Ry
     estimated scf accuracy    <       0.00000734 Ry

     iteration #  7     ecut=    80.00 Ry     beta= 0.70
     Davidson diagonalization with overlap
     ethr =  6.22E-09,  avg # of iterations =  2.0

     total cpu time spent up to now is      897.1 secs

     total energy              =   -2957.71886984 Ry
     estimated scf accuracy    <       0.00000030 Ry

     iteration #  8     ecut=    80.00 Ry     beta= 0.70
     Davidson diagonalization with overlap
     ethr =  2.57E-10,  avg # of iterations =  2.0

     total cpu time spent up to now is      988.4 secs

     total energy              =   -2957.71886988 Ry
     estimated scf accuracy    <       0.00000003 Ry

     iteration #  9     ecut=    80.00 Ry     beta= 0.70
     Davidson diagonalization with overlap
     ethr =  2.13E-11,  avg # of iterations =  2.0

     total cpu time spent up to now is     1076.0 secs

     End of self-consistent calculation

          k = 0.0000 0.0000 0.0000 ( 11517 PWs)   bands (ev):

  -197.4730-197.4730-197.4079-197.4079-197.4078-197.4078-142.3808-142.3808
  -142.3808-142.3808-140.9328-140.9328-140.8637-140.8637-140.8609-140.8609
  -135.0679-135.0679-135.0455-135.0455-135.0005-135.0005-134.9985-134.9985
  -134.9733-134.9733-134.9701-134.9701 -98.9907 -98.9907 -98.9907 -98.9907
   -74.2625 -74.2625 -74.2625 -74.2625 -74.2585 -74.2585 -74.2585 -74.2585
   -37.7214 -37.7214 -37.6914 -37.6914 -37.6417 -37.6417 -37.6391 -37.6391
   -37.6071 -37.6071 -37.6017 -37.6017 -36.8291 -36.8291 -36.8165 -36.8165
   -36.7903 -36.7903 -36.7491 -36.7491 -36.7477 -36.7477 -36.7349 -36.7349
   -36.7299 -36.7299 -36.7045 -36.7045 -36.6992 -36.6992 -13.9329 -13.9329
   -13.9326 -13.9326 -13.9212 -13.9212 -13.9191 -13.9191 -10.9493 -10.9493
   -10.9469 -10.9469 -10.9299 -10.9299 -10.9285 -10.9285 -10.9263 -10.9263
   -10.9258 -10.9258  -3.8199  -3.8199  -2.5959  -2.5959  -2.5886  -2.5886
     0.7877   0.7877   1.5679   1.5679   7.7928   7.7928   8.0016   8.0016
     8.6496   8.6496   8.7529   8.7529   8.8162   8.8162   9.1253   9.1253
     9.4348   9.4348   9.8292   9.8292  10.0723  10.0723  10.6676  10.6676
    11.6864  11.6864  11.8546  11.8546  12.4550  12.4550  13.6337  13.6337
    14.0475  14.0475  16.2802  16.2802  16.8324  16.8324  17.4700  17.4700
    17.5468  17.5468  17.6576  17.6576  18.1804  18.1821

     occupation numbers 
     1.0000   1.0000   1.0000   1.0000   1.0000   1.0000   1.0000   1.0000
     1.0000   1.0000   1.0000   1.0000   1.0000   1.0000   1.0000   1.0000
     1.0000   1.0000   1.0000   1.0000   1.0000   1.0000   1.0000   1.0000
     1.0000   1.0000   1.0000   1.0000   1.0000   1.0000   1.0000   1.0000
     1.0000   1.0000   1.0000   1.0000   1.0000   1.0000   1.0000   1.0000
     1.0000   1.0000   1.0000   1.0000   1.0000   1.0000   1.0000   1.0000
     1.0000   1.0000   1.0000   1.0000   1.0000   1.0000   1.0000   1.0000
     1.0000   1.0000   1.0000   1.0000   1.0000   1.0000   1.0000   1.0000
     1.0000   1.0000   1.0000   1.0000   1.0000   1.0000   1.0000   1.0000
     1.0000   1.0000   1.0000   1.0000   1.0000   1.0000   1.0000   1.0000
     1.0000   1.0000   1.0000   1.0000   1.0000   1.0000   1.0000   1.0000
     1.0000   1.0000   1.0000   1.0000   1.0000   1.0000   1.0000   1.0000
     1.0000   1.0000   1.0000   1.0000   1.0000   1.0000   1.0000   1.0000
     1.0000   1.0000   1.0000   1.0000   1.0000   1.0000   1.0000   1.0000
     1.0000   1.0000   1.0000   1.0000   1.0004   1.0004   0.0000   0.0000
     0.0000   0.0000   0.0000   0.0000   0.0000   0.0000   0.0000   0.0000
     0.0000   0.0000   0.0000   0.0000   0.0000   0.0000   0.0000   0.0000
     0.0000   0.0000   0.0000   0.0000   0.0000   0.0000

          k = 0.0000 0.0000 0.0867 ( 11529 PWs)   bands (ev):

  -197.4730-197.4730-197.4079-197.4079-197.4078-197.4078-142.3808-142.3808
  -142.3808-142.3808-140.9333-140.9333-140.8638-140.8638-140.8615-140.8615
  -135.0680-135.0680-135.0462-135.0462-135.0006-135.0006-134.9986-134.9986
  -134.9735-134.9735-134.9713-134.9713 -98.9907 -98.9907 -98.9907 -98.9907
   -74.2625 -74.2625 -74.2625 -74.2625 -74.2585 -74.2585 -74.2585 -74.2585
   -37.7218 -37.7218 -37.6928 -37.6928 -37.6422 -37.6422 -37.6387 -37.6387
   -37.6077 -37.6077 -37.6038 -37.6038 -36.8286 -36.8286 -36.8185 -36.8185
   -36.7915 -36.7915 -36.7495 -36.7495 -36.7457 -36.7457 -36.7360 -36.7360
   -36.7323 -36.7323 -36.7049 -36.7049 -36.7010 -36.7010 -13.9329 -13.9329
   -13.9326 -13.9326 -13.9212 -13.9212 -13.9191 -13.9191 -10.9493 -10.9493
   -10.9469 -10.9469 -10.9299 -10.9299 -10.9285 -10.9285 -10.9263 -10.9263
   -10.9258 -10.9258  -3.7825  -3.7825  -2.9493  -2.9493  -2.2135  -2.2135
     0.5535   0.5535   1.7650   1.7650   7.5675   7.5675   8.2103   8.2103
     8.5686   8.5686   8.8058   8.8058   8.9392   8.9392   9.1583   9.1583
     9.2780   9.2780   9.7876   9.7876  10.0704  10.0704  10.7207  10.7207
    11.7425  11.7425  11.8658  11.8658  12.5552  12.5552  13.5231  13.5231
    13.9192  13.9192  16.1367  16.1367  16.9236  16.9236  17.3012  17.3012
    17.3757  17.3757  18.0845  18.0846  18.4905  18.4907

     occupation numbers 
     1.0000   1.0000   1.0000   1.0000   1.0000   1.0000   1.0000   1.0000
     1.0000   1.0000   1.0000   1.0000   1.0000   1.0000   1.0000   1.0000
     1.0000   1.0000   1.0000   1.0000   1.0000   1.0000   1.0000   1.0000
     1.0000   1.0000   1.0000   1.0000   1.0000   1.0000   1.0000   1.0000
     1.0000   1.0000   1.0000   1.0000   1.0000   1.0000   1.0000   1.0000
     1.0000   1.0000   1.0000   1.0000   1.0000   1.0000   1.0000   1.0000
     1.0000   1.0000   1.0000   1.0000   1.0000   1.0000   1.0000   1.0000
     1.0000   1.0000   1.0000   1.0000   1.0000   1.0000   1.0000   1.0000
     1.0000   1.0000   1.0000   1.0000   1.0000   1.0000   1.0000   1.0000
     1.0000   1.0000   1.0000   1.0000   1.0000   1.0000   1.0000   1.0000
     1.0000   1.0000   1.0000   1.0000   1.0000   1.0000   1.0000   1.0000
     1.0000   1.0000   1.0000   1.0000   1.0000   1.0000   1.0000   1.0000
     1.0000   1.0000   1.0000   1.0000   1.0000   1.0000   1.0000   1.0000
     1.0000   1.0000   1.0000   1.0000   1.0000   1.0000   1.0000   1.0000
     1.0000   1.0000   1.0000   1.0000   1.0004   1.0004   0.0000   0.0000
     0.0000   0.0000   0.0000   0.0000   0.0000   0.0000   0.0000   0.0000
     0.0000   0.0000   0.0000   0.0000   0.0000   0.0000   0.0000   0.0000
     0.0000   0.0000   0.0000   0.0000   0.0000   0.0000

          k = 0.0000 0.0000 0.1734 ( 11479 PWs)   bands (ev):

  -197.4730-197.4730-197.4078-197.4078-197.4078-197.4078-142.3808-142.3808
  -142.3808-142.3808-140.9310-140.9310-140.8607-140.8607-140.8602-140.8602
  -135.0659-135.0659-135.0442-135.0442-134.9980-134.9980-134.9971-134.9971
  -134.9706-134.9706-134.9702-134.9702 -98.9907 -98.9907 -98.9907 -98.9907
   -74.2625 -74.2625 -74.2625 -74.2625 -74.2585 -74.2585 -74.2585 -74.2585
   -37.7176 -37.7176 -37.6890 -37.6890 -37.6377 -37.6377 -37.6355 -37.6355
   -37.6027 -37.6027 -37.6013 -37.6013 -36.8243 -36.8243 -36.8147 -36.8147
   -36.7878 -36.7878 -36.7448 -36.7448 -36.7424 -36.7424 -36.7322 -36.7322
   -36.7291 -36.7291 -36.6997 -36.6997 -36.6986 -36.6986 -13.9329 -13.9329
   -13.9326 -13.9326 -13.9212 -13.9212 -13.9192 -13.9192 -10.9493 -10.9493
   -10.9469 -10.9469 -10.9298 -10.9298 -10.9285 -10.9285 -10.9263 -10.9263
   -10.9259 -10.9259  -3.6978  -3.6978  -3.2029  -3.2029  -1.9339  -1.9339
     0.2582   0.2582   1.9870   1.9870   7.3712   7.3712   8.3385   8.3385
     8.6435   8.6435   8.7938   8.7938   9.0009   9.0009   9.1953   9.1953
     9.2177   9.2177   9.7153   9.7153   9.9144   9.9144  10.9884  10.9884
    11.4762  11.4762  12.1730  12.1730  12.7618  12.7618  13.2917  13.2917
    13.6709  13.6709  15.9801  15.9801  17.1324  17.1324  17.2049  17.2049
    17.3117  17.3117  17.9114  17.9114  18.9618  18.9618

     occupation numbers 
     1.0000   1.0000   1.0000   1.0000   1.0000   1.0000   1.0000   1.0000
     1.0000   1.0000   1.0000   1.0000   1.0000   1.0000   1.0000   1.0000
     1.0000   1.0000   1.0000   1.0000   1.0000   1.0000   1.0000   1.0000
     1.0000   1.0000   1.0000   1.0000   1.0000   1.0000   1.0000   1.0000
     1.0000   1.0000   1.0000   1.0000   1.0000   1.0000   1.0000   1.0000
     1.0000   1.0000   1.0000   1.0000   1.0000   1.0000   1.0000   1.0000
     1.0000   1.0000   1.0000   1.0000   1.0000   1.0000   1.0000   1.0000
     1.0000   1.0000   1.0000   1.0000   1.0000   1.0000   1.0000   1.0000
     1.0000   1.0000   1.0000   1.0000   1.0000   1.0000   1.0000   1.0000
     1.0000   1.0000   1.0000   1.0000   1.0000   1.0000   1.0000   1.0000
     1.0000   1.0000   1.0000   1.0000   1.0000   1.0000   1.0000   1.0000
     1.0000   1.0000   1.0000   1.0000   1.0000   1.0000   1.0000   1.0000
     1.0000   1.0000   1.0000   1.0000   1.0000   1.0000   1.0000   1.0000
     1.0000   1.0000   1.0000   1.0000   1.0000   1.0000   1.0000   1.0000
     1.0000   1.0000   1.0000   1.0000   1.0000   1.0000   0.0000   0.0000
     0.0000   0.0000   0.0000   0.0000   0.0000   0.0000   0.0000   0.0000
     0.0000   0.0000   0.0000   0.0000   0.0000   0.0000   0.0000   0.0000
     0.0000   0.0000   0.0000   0.0000   0.0000   0.0000

          k = 0.0667-0.0385 0.0096 ( 11536 PWs)   bands (ev):

  -197.4730-197.4730-197.4079-197.4079-197.4079-197.4079-142.3808-142.3808
  -142.3808-142.3808-140.9337-140.9337-140.8639-140.8639-140.8624-140.8624
  -135.0686-135.0686-135.0464-135.0464-135.0006-135.0006-134.9999-134.9999
  -134.9736-134.9736-134.9716-134.9716 -98.9907 -98.9907 -98.9907 -98.9907
   -74.2625 -74.2625 -74.2625 -74.2625 -74.2585 -74.2585 -74.2585 -74.2585
   -37.7227 -37.7227 -37.6930 -37.6930 -37.6419 -37.6419 -37.6415 -37.6415
   -37.6076 -37.6076 -37.6045 -37.6045 -36.8301 -36.8301 -36.8185 -36.8185
   -36.7919 -36.7919 -36.7497 -36.7497 -36.7491 -36.7491 -36.7355 -36.7355
   -36.7331 -36.7331 -36.7050 -36.7050 -36.7017 -36.7017 -13.9327 -13.9327
   -13.9324 -13.9324 -13.9212 -13.9212 -13.9192 -13.9192 -10.9488 -10.9488
   -10.9464 -10.9464 -10.9298 -10.9298 -10.9289 -10.9289 -10.9267 -10.9267
   -10.9255 -10.9255  -3.7814  -3.7814  -2.6065  -2.6065  -2.5216  -2.5216
     0.7717   0.7717   1.5356   1.5356   7.5993   7.5993   7.7968   7.7968
     8.4844   8.4844   8.7119   8.7119   8.9483   8.9483   9.1552   9.1552
     9.3594   9.3594   9.4857   9.4857  10.0945  10.0945  10.8710  10.8710
    11.7429  11.7429  12.0221  12.0221  12.7455  12.7455  13.5789  13.5789
    13.8695  13.8695  16.2300  16.2300  16.5149  16.5149  17.5173  17.5173
    17.6164  17.6164  17.9166  17.9166  18.2999  18.2999

     occupation numbers 
     1.0000   1.0000   1.0000   1.0000   1.0000   1.0000   1.0000   1.0000
     1.0000   1.0000   1.0000   1.0000   1.0000   1.0000   1.0000   1.0000
     1.0000   1.0000   1.0000   1.0000   1.0000   1.0000   1.0000   1.0000
     1.0000   1.0000   1.0000   1.0000   1.0000   1.0000   1.0000   1.0000
     1.0000   1.0000   1.0000   1.0000   1.0000   1.0000   1.0000   1.0000
     1.0000   1.0000   1.0000   1.0000   1.0000   1.0000   1.0000   1.0000
     1.0000   1.0000   1.0000   1.0000   1.0000   1.0000   1.0000   1.0000
     1.0000   1.0000   1.0000   1.0000   1.0000   1.0000   1.0000   1.0000
     1.0000   1.0000   1.0000   1.0000   1.0000   1.0000   1.0000   1.0000
     1.0000   1.0000   1.0000   1.0000   1.0000   1.0000   1.0000   1.0000
     1.0000   1.0000   1.0000   1.0000   1.0000   1.0000   1.0000   1.0000
     1.0000   1.0000   1.0000   1.0000   1.0000   1.0000   1.0000   1.0000
     1.0000   1.0000   1.0000   1.0000   1.0000   1.0000   1.0000   1.0000
     1.0000   1.0000   1.0000   1.0000   1.0000   1.0000   1.0000   1.0000
     1.0000   1.0000   1.0000   1.0000   1.0011   1.0011   0.0000   0.0000
     0.0000   0.0000   0.0000   0.0000   0.0000   0.0000   0.0000   0.0000
     0.0000   0.0000   0.0000   0.0000   0.0000   0.0000   0.0000   0.0000
     0.0000   0.0000   0.0000   0.0000   0.0000   0.0000

          k = 0.0667-0.0385 0.0963 ( 11528 PWs)   bands (ev):

  -197.4730-197.4730-197.4079-197.4079-197.4078-197.4078-142.3808-142.3808
  -142.3808-142.3808-140.9333-140.9333-140.8633-140.8633-140.8621-140.8621
  -135.0676-135.0676-135.0466-135.0466-134.9997-134.9997-134.9989-134.9989
  -134.9736-134.9736-134.9720-134.9720 -98.9907 -98.9907 -98.9907 -98.9907
   -74.2625 -74.2625 -74.2625 -74.2625 -74.2585 -74.2585 -74.2585 -74.2585
   -37.7210 -37.7210 -37.6935 -37.6935 -37.6404 -37.6404 -37.6393 -37.6393
   -37.6077 -37.6077 -37.6052 -37.6052 -36.8284 -36.8284 -36.8172 -36.8172
   -36.7930 -36.7930 -36.7481 -36.7481 -36.7469 -36.7469 -36.7339 -36.7339
   -36.7323 -36.7323 -36.7057 -36.7057 -36.7030 -36.7030 -13.9327 -13.9327
   -13.9324 -13.9324 -13.9212 -13.9212 -13.9192 -13.9192 -10.9489 -10.9489
   -10.9464 -10.9464 -10.9297 -10.9297 -10.9289 -10.9289 -10.9267 -10.9267
   -10.9255 -10.9255  -3.7363  -3.7363  -2.9524  -2.9524  -2.1520  -2.1520
     0.5130   0.5130   1.7475   1.7475   7.4666   7.4666   7.8813   7.8813
     8.4097   8.4097   8.8309   8.8309   9.0134   9.0134   9.1150   9.1150
     9.2216   9.2216   9.6329   9.6329   9.9986   9.9986  10.9802  10.9802
    11.6009  11.6009  12.1738  12.1738  12.7747  12.7747  13.4795  13.4795
    13.8168  13.8168  16.0575  16.0575  16.8050  16.8050  17.2525  17.2525
    17.5361  17.5361  18.2003  18.2003  18.3075  18.3075

     occupation numbers 
     1.0000   1.0000   1.0000   1.0000   1.0000   1.0000   1.0000   1.0000
     1.0000   1.0000   1.0000   1.0000   1.0000   1.0000   1.0000   1.0000
     1.0000   1.0000   1.0000   1.0000   1.0000   1.0000   1.0000   1.0000
     1.0000   1.0000   1.0000   1.0000   1.0000   1.0000   1.0000   1.0000
     1.0000   1.0000   1.0000   1.0000   1.0000   1.0000   1.0000   1.0000
     1.0000   1.0000   1.0000   1.0000   1.0000   1.0000   1.0000   1.0000
     1.0000   1.0000   1.0000   1.0000   1.0000   1.0000   1.0000   1.0000
     1.0000   1.0000   1.0000   1.0000   1.0000   1.0000   1.0000   1.0000
     1.0000   1.0000   1.0000   1.0000   1.0000   1.0000   1.0000   1.0000
     1.0000   1.0000   1.0000   1.0000   1.0000   1.0000   1.0000   1.0000
     1.0000   1.0000   1.0000   1.0000   1.0000   1.0000   1.0000   1.0000
     1.0000   1.0000   1.0000   1.0000   1.0000   1.0000   1.0000   1.0000
     1.0000   1.0000   1.0000   1.0000   1.0000   1.0000   1.0000   1.0000
     1.0000   1.0000   1.0000   1.0000   1.0000   1.0000   1.0000   1.0000
     1.0000   1.0000   1.0000   1.0000   1.0000   1.0000   0.0000   0.0000
     0.0000   0.0000   0.0000   0.0000   0.0000   0.0000   0.0000   0.0000
     0.0000   0.0000   0.0000   0.0000   0.0000   0.0000   0.0000   0.0000
     0.0000   0.0000   0.0000   0.0000   0.0000   0.0000

          k = 0.0667-0.0385 0.1830 ( 11529 PWs)   bands (ev):

  -197.4730-197.4730-197.4079-197.4079-197.4078-197.4078-142.3808-142.3808
  -142.3808-142.3808-140.9332-140.9332-140.8633-140.8633-140.8620-140.8620
  -135.0673-135.0673-135.0468-135.0468-134.9996-134.9996-134.9983-134.9983
  -134.9735-134.9735-134.9725-134.9725 -98.9907 -98.9907 -98.9907 -98.9907
   -74.2625 -74.2625 -74.2625 -74.2625 -74.2585 -74.2585 -74.2585 -74.2585
   -37.7202 -37.7202 -37.6938 -37.6938 -37.6401 -37.6401 -37.6384 -37.6384
   -37.6073 -37.6073 -37.6062 -37.6062 -36.8272 -36.8272 -36.8176 -36.8176
   -36.7933 -36.7933 -36.7476 -36.7476 -36.7453 -36.7453 -36.7336 -36.7336
   -36.7334 -36.7334 -36.7053 -36.7053 -36.7039 -36.7039 -13.9327 -13.9327
   -13.9324 -13.9324 -13.9212 -13.9212 -13.9192 -13.9192 -10.9489 -10.9489
   -10.9464 -10.9464 -10.9297 -10.9297 -10.9289 -10.9289 -10.9266 -10.9266
   -10.9256 -10.9256  -3.6529  -3.6529  -3.1849  -3.1849  -1.9003  -1.9003
     0.2501   0.2501   1.9359   1.9359   7.3648   7.3648   8.0375   8.0375
     8.3204   8.3204   8.7264   8.7264   8.8320   8.8320   9.0882   9.0882
     9.3852   9.3852   9.8845   9.8845  10.0591  10.0591  10.9955  10.9955
    11.3073  11.3073  12.3478  12.3478  12.7237  12.7237  13.5113  13.5113
    13.7562  13.7562  16.0342  16.0342  16.7921  16.7921  17.3178  17.3178
    17.4607  17.4607  17.8132  17.8132  18.7679  18.7679

     occupation numbers 
     1.0000   1.0000   1.0000   1.0000   1.0000   1.0000   1.0000   1.0000
     1.0000   1.0000   1.0000   1.0000   1.0000   1.0000   1.0000   1.0000
     1.0000   1.0000   1.0000   1.0000   1.0000   1.0000   1.0000   1.0000
     1.0000   1.0000   1.0000   1.0000   1.0000   1.0000   1.0000   1.0000
     1.0000   1.0000   1.0000   1.0000   1.0000   1.0000   1.0000   1.0000
     1.0000   1.0000   1.0000   1.0000   1.0000   1.0000   1.0000   1.0000
     1.0000   1.0000   1.0000   1.0000   1.0000   1.0000   1.0000   1.0000
     1.0000   1.0000   1.0000   1.0000   1.0000   1.0000   1.0000   1.0000
     1.0000   1.0000   1.0000   1.0000   1.0000   1.0000   1.0000   1.0000
     1.0000   1.0000   1.0000   1.0000   1.0000   1.0000   1.0000   1.0000
     1.0000   1.0000   1.0000   1.0000   1.0000   1.0000   1.0000   1.0000
     1.0000   1.0000   1.0000   1.0000   1.0000   1.0000   1.0000   1.0000
     1.0000   1.0000   1.0000   1.0000   1.0000   1.0000   1.0000   1.0000
     1.0000   1.0000   1.0000   1.0000   1.0000   1.0000   1.0000   1.0000
     1.0000   1.0000   1.0000   1.0000   1.0002   1.0002   0.0000   0.0000
     0.0000   0.0000   0.0000   0.0000   0.0000   0.0000   0.0000   0.0000
     0.0000   0.0000   0.0000   0.0000   0.0000   0.0000   0.0000   0.0000
     0.0000   0.0000   0.0000   0.0000   0.0000   0.0000

          k = 0.0667-0.0385-0.1637 ( 11525 PWs)   bands (ev):

  -197.4730-197.4730-197.4079-197.4079-197.4078-197.4078-142.3808-142.3808
  -142.3808-142.3808-140.9330-140.9330-140.8631-140.8631-140.8618-140.8618
  -135.0674-135.0674-135.0464-135.0464-134.9997-134.9997-134.9984-134.9984
  -134.9731-134.9731-134.9720-134.9720 -98.9907 -98.9907 -98.9907 -98.9907
   -74.2625 -74.2625 -74.2625 -74.2625 -74.2585 -74.2585 -74.2585 -74.2585
   -37.7205 -37.7205 -37.6930 -37.6930 -37.6403 -37.6403 -37.6387 -37.6387
   -37.6067 -37.6067 -37.6052 -37.6052 -36.8274 -36.8274 -36.8177 -36.8177
   -36.7921 -36.7921 -36.7477 -36.7477 -36.7455 -36.7455 -36.7340 -36.7340
   -36.7332 -36.7332 -36.7044 -36.7044 -36.7026 -36.7026 -13.9327 -13.9327
   -13.9324 -13.9324 -13.9212 -13.9212 -13.9192 -13.9192 -10.9489 -10.9489
   -10.9464 -10.9464 -10.9297 -10.9297 -10.9289 -10.9289 -10.9266 -10.9266
   -10.9256 -10.9256  -3.6691  -3.6691  -3.1495  -3.1495  -1.9370  -1.9370
     0.2906   0.2906   1.9077   1.9077   7.3938   7.3938   8.1365   8.1365
     8.2484   8.2484   8.6778   8.6778   8.7435   8.7435   8.9806   8.9806
     9.5619   9.5619   9.9308   9.9308  10.1865  10.1865  10.8144  10.8144
    11.3424  11.3424  12.1759  12.1759  12.8287  12.8287  13.5501  13.5501
    13.8079  13.8079  16.0753  16.0753  16.7826  16.7826  17.2268  17.2268
    17.3637  17.3637  18.0606  18.0606  18.5893  18.5893

     occupation numbers 
     1.0000   1.0000   1.0000   1.0000   1.0000   1.0000   1.0000   1.0000
     1.0000   1.0000   1.0000   1.0000   1.0000   1.0000   1.0000   1.0000
     1.0000   1.0000   1.0000   1.0000   1.0000   1.0000   1.0000   1.0000
     1.0000   1.0000   1.0000   1.0000   1.0000   1.0000   1.0000   1.0000
     1.0000   1.0000   1.0000   1.0000   1.0000   1.0000   1.0000   1.0000
     1.0000   1.0000   1.0000   1.0000   1.0000   1.0000   1.0000   1.0000
     1.0000   1.0000   1.0000   1.0000   1.0000   1.0000   1.0000   1.0000
     1.0000   1.0000   1.0000   1.0000   1.0000   1.0000   1.0000   1.0000
     1.0000   1.0000   1.0000   1.0000   1.0000   1.0000   1.0000   1.0000
     1.0000   1.0000   1.0000   1.0000   1.0000   1.0000   1.0000   1.0000
     1.0000   1.0000   1.0000   1.0000   1.0000   1.0000   1.0000   1.0000
     1.0000   1.0000   1.0000   1.0000   1.0000   1.0000   1.0000   1.0000
     1.0000   1.0000   1.0000   1.0000   1.0000   1.0000   1.0000   1.0000
     1.0000   1.0000   1.0000   1.0000   1.0000   1.0000   1.0000   1.0000
     1.0000   1.0000   1.0000   1.0000   1.0299   1.0299   0.0000   0.0000
     0.0000   0.0000   0.0000   0.0000   0.0000   0.0000   0.0000   0.0000
     0.0000   0.0000   0.0000   0.0000   0.0000   0.0000   0.0000   0.0000
     0.0000   0.0000   0.0000   0.0000   0.0000   0.0000

          k = 0.0667-0.0385-0.0771 ( 11529 PWs)   bands (ev):

  -197.4730-197.4730-197.4079-197.4079-197.4078-197.4078-142.3808-142.3808
  -142.3808-142.3808-140.9333-140.9333-140.8639-140.8639-140.8617-140.8617
  -135.0679-135.0679-135.0464-135.0464-135.0005-135.0005-134.9987-134.9987
  -134.9738-134.9738-134.9714-134.9714 -98.9907 -98.9907 -98.9907 -98.9907
   -74.2625 -74.2625 -74.2625 -74.2625 -74.2585 -74.2585 -74.2585 -74.2585
   -37.7216 -37.7216 -37.6930 -37.6930 -37.6419 -37.6419 -37.6390 -37.6390
   -37.6080 -37.6080 -37.6041 -37.6041 -36.8290 -36.8290 -36.8174 -36.8174
   -36.7922 -36.7922 -36.7500 -36.7500 -36.7466 -36.7466 -36.7346 -36.7346
   -36.7320 -36.7320 -36.7057 -36.7057 -36.7016 -36.7016 -13.9327 -13.9327
   -13.9324 -13.9324 -13.9212 -13.9212 -13.9192 -13.9192 -10.9489 -10.9489
   -10.9464 -10.9464 -10.9297 -10.9297 -10.9289 -10.9289 -10.9267 -10.9267
   -10.9255 -10.9255  -3.7522  -3.7522  -2.8811  -2.8811  -2.2310  -2.2310
     0.5909   0.5909   1.6848   1.6848   7.5192   7.5192   7.9475   7.9475
     8.4333   8.4333   8.6138   8.6138   8.8061   8.8061   9.0274   9.0274
     9.5430   9.5430   9.6944   9.6944  10.2692  10.2692  10.6948  10.6948
    11.6180  11.6180  12.0039  12.0039  12.8372  12.8372  13.5154  13.5154
    13.9358  13.9358  16.1786  16.1786  16.6109  16.6109  17.3139  17.3139
    17.5920  17.5920  18.0169  18.0169  18.2573  18.2573

     occupation numbers 
     1.0000   1.0000   1.0000   1.0000   1.0000   1.0000   1.0000   1.0000
     1.0000   1.0000   1.0000   1.0000   1.0000   1.0000   1.0000   1.0000
     1.0000   1.0000   1.0000   1.0000   1.0000   1.0000   1.0000   1.0000
     1.0000   1.0000   1.0000   1.0000   1.0000   1.0000   1.0000   1.0000
     1.0000   1.0000   1.0000   1.0000   1.0000   1.0000   1.0000   1.0000
     1.0000   1.0000   1.0000   1.0000   1.0000   1.0000   1.0000   1.0000
     1.0000   1.0000   1.0000   1.0000   1.0000   1.0000   1.0000   1.0000
     1.0000   1.0000   1.0000   1.0000   1.0000   1.0000   1.0000   1.0000
     1.0000   1.0000   1.0000   1.0000   1.0000   1.0000   1.0000   1.0000
     1.0000   1.0000   1.0000   1.0000   1.0000   1.0000   1.0000   1.0000
     1.0000   1.0000   1.0000   1.0000   1.0000   1.0000   1.0000   1.0000
     1.0000   1.0000   1.0000   1.0000   1.0000   1.0000   1.0000   1.0000
     1.0000   1.0000   1.0000   1.0000   1.0000   1.0000   1.0000   1.0000
     1.0000   1.0000   1.0000   1.0000   1.0000   1.0000   1.0000   1.0000
     1.0000   1.0000   1.0000   1.0000   1.0806   1.0806   0.0000   0.0000
     0.0000   0.0000   0.0000   0.0000   0.0000   0.0000   0.0000   0.0000
     0.0000   0.0000   0.0000   0.0000   0.0000   0.0000   0.0000   0.0000
     0.0000   0.0000   0.0000   0.0000   0.0000   0.0000

          k = 0.1333-0.0770 0.0193 ( 11522 PWs)   bands (ev):

  -197.4730-197.4730-197.4079-197.4079-197.4079-197.4079-142.3808-142.3808
  -142.3808-142.3808-140.9333-140.9333-140.8632-140.8632-140.8623-140.8623
  -135.0681-135.0681-135.0462-135.0462-134.9999-134.9999-134.9995-134.9995
  -134.9731-134.9731-134.9716-134.9716 -98.9907 -98.9907 -98.9907 -98.9907
   -74.2625 -74.2625 -74.2625 -74.2625 -74.2585 -74.2585 -74.2585 -74.2585
   -37.7218 -37.7218 -37.6927 -37.6927 -37.6414 -37.6414 -37.6401 -37.6401
   -37.6068 -37.6068 -37.6045 -37.6045 -36.8288 -36.8288 -36.8181 -36.8181
   -36.7915 -36.7915 -36.7490 -36.7490 -36.7473 -36.7473 -36.7346 -36.7346
   -36.7333 -36.7333 -36.7043 -36.7043 -36.7016 -36.7016 -13.9320 -13.9320
   -13.9317 -13.9317 -13.9212 -13.9212 -13.9193 -13.9193 -10.9477 -10.9477
   -10.9452 -10.9452 -10.9300 -10.9300 -10.9296 -10.9296 -10.9272 -10.9272
   -10.9246 -10.9246  -3.6669  -3.6669  -2.5673  -2.5673  -2.3969  -2.3969
     0.7178   0.7178   1.4387   1.4387   7.2425   7.2425   7.3972   7.3972
     8.0444   8.0444   8.2899   8.2899   8.9565   8.9565   9.0440   9.0440
     9.2872   9.2872   9.6897   9.6897   9.7983   9.7983  11.4270  11.4270
    11.4930  11.4930  12.5766  12.5766  13.0977  13.0977  13.4961  13.4961
    13.7761  13.7761  15.7133  15.7133  16.4743  16.4743  17.6672  17.6672
    17.7743  17.7743  18.3256  18.3256  18.6358  18.6358

     occupation numbers 
     1.0000   1.0000   1.0000   1.0000   1.0000   1.0000   1.0000   1.0000
     1.0000   1.0000   1.0000   1.0000   1.0000   1.0000   1.0000   1.0000
     1.0000   1.0000   1.0000   1.0000   1.0000   1.0000   1.0000   1.0000
     1.0000   1.0000   1.0000   1.0000   1.0000   1.0000   1.0000   1.0000
     1.0000   1.0000   1.0000   1.0000   1.0000   1.0000   1.0000   1.0000
     1.0000   1.0000   1.0000   1.0000   1.0000   1.0000   1.0000   1.0000
     1.0000   1.0000   1.0000   1.0000   1.0000   1.0000   1.0000   1.0000
     1.0000   1.0000   1.0000   1.0000   1.0000   1.0000   1.0000   1.0000
     1.0000   1.0000   1.0000   1.0000   1.0000   1.0000   1.0000   1.0000
     1.0000   1.0000   1.0000   1.0000   1.0000   1.0000   1.0000   1.0000
     1.0000   1.0000   1.0000   1.0000   1.0000   1.0000   1.0000   1.0000
     1.0000   1.0000   1.0000   1.0000   1.0000   1.0000   1.0000   1.0000
     1.0000   1.0000   1.0000   1.0000   1.0000   1.0000   1.0000   1.0000
     1.0000   1.0000   1.0000   1.0000   1.0000   1.0000   1.0000   1.0000
     1.0000   1.0000   1.0000   1.0000   1.0000   1.0000   0.0000   0.0000
     0.0000   0.0000   0.0000   0.0000   0.0000   0.0000   0.0000   0.0000
     0.0000   0.0000   0.0000   0.0000   0.0000   0.0000   0.0000   0.0000
     0.0000   0.0000   0.0000   0.0000   0.0000   0.0000

          k = 0.1333-0.0770 0.1060 ( 11511 PWs)   bands (ev):

  -197.4730-197.4730-197.4079-197.4079-197.4078-197.4078-142.3808-142.3808
  -142.3808-142.3808-140.9328-140.9328-140.8629-140.8629-140.8616-140.8616
  -135.0676-135.0676-135.0457-135.0457-134.9996-134.9996-134.9990-134.9990
  -134.9727-134.9727-134.9710-134.9710 -98.9907 -98.9907 -98.9907 -98.9907
   -74.2625 -74.2625 -74.2625 -74.2625 -74.2585 -74.2585 -74.2585 -74.2585
   -37.7209 -37.7209 -37.6918 -37.6918 -37.6404 -37.6404 -37.6394 -37.6394
   -37.6061 -37.6061 -37.6035 -37.6035 -36.8281 -36.8281 -36.8171 -36.8171
   -36.7906 -36.7906 -36.7477 -36.7477 -36.7472 -36.7472 -36.7338 -36.7338
   -36.7322 -36.7322 -36.7037 -36.7037 -36.7004 -36.7004 -13.9320 -13.9320
   -13.9317 -13.9317 -13.9212 -13.9212 -13.9194 -13.9194 -10.9477 -10.9477
   -10.9452 -10.9452 -10.9301 -10.9301 -10.9296 -10.9296 -10.9272 -10.9272
   -10.9246 -10.9246  -3.6150  -3.6150  -2.8926  -2.8926  -2.0507  -2.0507
     0.4652   0.4652   1.6337   1.6337   7.1909   7.1909   7.3650   7.3650
     8.1242   8.1242   8.3993   8.3993   8.7444   8.7444   9.2322   9.2322
     9.3245   9.3245   9.4220   9.4220   9.9164   9.9164  11.2575  11.2575
    11.7238  11.7238  12.6340  12.6340  12.9951  12.9951  13.5045  13.5045
    13.7544  13.7544  15.7126  15.7126  16.8334  16.8334  17.2145  17.2145
    17.8447  17.8447  17.9756  17.9756  18.3753  18.3753

     occupation numbers 
     1.0000   1.0000   1.0000   1.0000   1.0000   1.0000   1.0000   1.0000
     1.0000   1.0000   1.0000   1.0000   1.0000   1.0000   1.0000   1.0000
     1.0000   1.0000   1.0000   1.0000   1.0000   1.0000   1.0000   1.0000
     1.0000   1.0000   1.0000   1.0000   1.0000   1.0000   1.0000   1.0000
     1.0000   1.0000   1.0000   1.0000   1.0000   1.0000   1.0000   1.0000
     1.0000   1.0000   1.0000   1.0000   1.0000   1.0000   1.0000   1.0000
     1.0000   1.0000   1.0000   1.0000   1.0000   1.0000   1.0000   1.0000
     1.0000   1.0000   1.0000   1.0000   1.0000   1.0000   1.0000   1.0000
     1.0000   1.0000   1.0000   1.0000   1.0000   1.0000   1.0000   1.0000
     1.0000   1.0000   1.0000   1.0000   1.0000   1.0000   1.0000   1.0000
     1.0000   1.0000   1.0000   1.0000   1.0000   1.0000   1.0000   1.0000
     1.0000   1.0000   1.0000   1.0000   1.0000   1.0000   1.0000   1.0000
     1.0000   1.0000   1.0000   1.0000   1.0000   1.0000   1.0000   1.0000
     1.0000   1.0000   1.0000   1.0000   1.0000   1.0000   1.0000   1.0000
     1.0000   1.0000   1.0000   1.0000   1.0000   1.0000   0.0000   0.0000
     0.0000   0.0000   0.0000   0.0000   0.0000   0.0000   0.0000   0.0000
     0.0000   0.0000   0.0000   0.0000   0.0000   0.0000   0.0000   0.0000
     0.0000   0.0000   0.0000   0.0000   0.0000   0.0000

          k = 0.1333-0.0770 0.1926 ( 11503 PWs)   bands (ev):

  -197.4730-197.4730-197.4079-197.4079-197.4078-197.4078-142.3808-142.3808
  -142.3808-142.3808-140.9324-140.9324-140.8632-140.8632-140.8605-140.8605
  -135.0665-135.0665-135.0461-135.0461-134.9996-134.9996-134.9968-134.9968
  -134.9735-134.9735-134.9712-134.9712 -98.9907 -98.9907 -98.9907 -98.9907
   -74.2625 -74.2625 -74.2625 -74.2625 -74.2585 -74.2585 -74.2585 -74.2585
   -37.7188 -37.7188 -37.6926 -37.6926 -37.6399 -37.6399 -37.6357 -37.6357
   -37.6075 -37.6075 -37.6037 -37.6037 -36.8255 -36.8255 -36.8168 -36.8168
   -36.7918 -36.7918 -36.7470 -36.7470 -36.7425 -36.7425 -36.7344 -36.7344
   -36.7309 -36.7309 -36.7052 -36.7052 -36.7014 -36.7014 -13.9320 -13.9320
   -13.9317 -13.9317 -13.9212 -13.9212 -13.9194 -13.9194 -10.9477 -10.9477
   -10.9452 -10.9452 -10.9301 -10.9301 -10.9296 -10.9296 -10.9271 -10.9271
   -10.9247 -10.9247  -3.5362  -3.5362  -3.0965  -3.0965  -1.8410  -1.8410
     0.2630   0.2630   1.7610   1.7610   7.2384   7.2384   7.4090   7.4090
[...]

  -197.4730-197.4730-197.4079-197.4079-197.4079-197.4079-142.3808-142.3808
  -142.3808-142.3808-140.9347-140.9347-140.8644-140.8644-140.8638-140.8638
  -135.0680-135.0680-135.0488-135.0488-135.0000-135.0000-134.9994-134.9994
  -134.9753-134.9753-134.9746-134.9746 -98.9907 -98.9907 -98.9907 -98.9907
   -74.2625 -74.2625 -74.2625 -74.2625 -74.2585 -74.2585 -74.2585 -74.2585
   -37.7217 -37.7217 -37.6974 -37.6974 -37.6413 -37.6413 -37.6401 -37.6401
   -37.6110 -37.6110 -37.6098 -37.6098 -36.8296 -36.8296 -36.8182 -36.8182
   -36.7977 -36.7977 -36.7494 -36.7494 -36.7483 -36.7483 -36.7348 -36.7348
   -36.7334 -36.7334 -36.7100 -36.7100 -36.7085 -36.7085 -13.9280 -13.9280
   -13.9279 -13.9279 -13.9203 -13.9203 -13.9199 -13.9199 -10.9497 -10.9497
   -10.9468 -10.9468 -10.9333 -10.9333 -10.9289 -10.9289 -10.9190 -10.9190
   -10.9141 -10.9141  -2.3776  -2.3776  -2.0622  -2.0622  -1.7637  -1.7637
     0.0105   0.0105   0.4174   0.4174   5.0309   5.0309   6.5702   6.5702
     6.8170   6.8170   7.2928   7.2928   7.4258   7.4258   7.9371   7.9371
     8.4980   8.4980   9.4685   9.4685  10.0090  10.0090  11.0056  11.0056
    12.1652  12.1652  12.7515  12.7515  13.4393  13.4393  14.2913  14.2913
    14.5947  14.5947  15.0792  15.0792  16.0259  16.0259  19.3547  19.3547
    20.1131  20.1131  20.2925  20.2925  20.7093  20.7093

     occupation numbers 
     1.0000   1.0000   1.0000   1.0000   1.0000   1.0000   1.0000   1.0000
     1.0000   1.0000   1.0000   1.0000   1.0000   1.0000   1.0000   1.0000
     1.0000   1.0000   1.0000   1.0000   1.0000   1.0000   1.0000   1.0000
     1.0000   1.0000   1.0000   1.0000   1.0000   1.0000   1.0000   1.0000
     1.0000   1.0000   1.0000   1.0000   1.0000   1.0000   1.0000   1.0000
     1.0000   1.0000   1.0000   1.0000   1.0000   1.0000   1.0000   1.0000
     1.0000   1.0000   1.0000   1.0000   1.0000   1.0000   1.0000   1.0000
     1.0000   1.0000   1.0000   1.0000   1.0000   1.0000   1.0000   1.0000
     1.0000   1.0000   1.0000   1.0000   1.0000   1.0000   1.0000   1.0000
     1.0000   1.0000   1.0000   1.0000   1.0000   1.0000   1.0000   1.0000
     1.0000   1.0000   1.0000   1.0000   1.0000   1.0000   1.0000   1.0000
     1.0000   1.0000   1.0000   1.0000   1.0000   1.0000   1.0000   1.0000
     1.0000   1.0000   1.0000   1.0000   1.0000   1.0000   1.0000   1.0000
     1.0000   1.0000   1.0000   1.0000   1.0000   1.0000   1.0000   1.0000
     1.0000   1.0000   1.0000   1.0000   1.0000   1.0000   0.0000   0.0000
     0.0000   0.0000   0.0000   0.0000   0.0000   0.0000   0.0000   0.0000
     0.0000   0.0000   0.0000   0.0000   0.0000   0.0000   0.0000   0.0000
     0.0000   0.0000   0.0000   0.0000   0.0000   0.0000

          k = 0.0000-0.5389-0.0385 ( 11549 PWs)   bands (ev):

  -197.4730-197.4730-197.4079-197.4079-197.4079-197.4079-142.3808-142.3808
  -142.3808-142.3808-140.9347-140.9347-140.8644-140.8644-140.8640-140.8640
  -135.0684-135.0684-135.0485-135.0485-135.0002-135.0002-135.0000-135.0000
  -134.9750-134.9750-134.9744-134.9744 -98.9907 -98.9907 -98.9907 -98.9907
   -74.2625 -74.2625 -74.2625 -74.2625 -74.2585 -74.2585 -74.2585 -74.2585
   -37.7224 -37.7224 -37.6969 -37.6969 -37.6419 -37.6419 -37.6410 -37.6410
   -37.6104 -37.6104 -37.6094 -37.6094 -36.8303 -36.8303 -36.8186 -36.8186
   -36.7970 -36.7970 -36.7499 -36.7499 -36.7493 -36.7493 -36.7353 -36.7353
   -36.7336 -36.7336 -36.7091 -36.7091 -36.7078 -36.7078 -13.9280 -13.9280
   -13.9279 -13.9279 -13.9203 -13.9203 -13.9199 -13.9199 -10.9497 -10.9497
   -10.9468 -10.9468 -10.9333 -10.9333 -10.9289 -10.9289 -10.9190 -10.9190
   -10.9141 -10.9141  -2.3907  -2.3907  -2.0441  -2.0441  -1.7615  -1.7615
    -0.0327  -0.0327   0.4571   0.4571   4.9467   4.9467   6.6249   6.6249
     7.0465   7.0465   7.3789   7.3789   7.5232   7.5232   7.8907   7.8907
     8.0080   8.0080   9.4767   9.4767  10.0443  10.0443  10.9873  10.9873
    12.2032  12.2032  13.1218  13.1218  13.4533  13.4533  14.1904  14.1904
    14.4754  14.4754  14.9249  14.9249  16.0825  16.0825  19.2076  19.2076
    20.3915  20.3915  20.4847  20.4847  20.7008  20.7008

     occupation numbers 
     1.0000   1.0000   1.0000   1.0000   1.0000   1.0000   1.0000   1.0000
     1.0000   1.0000   1.0000   1.0000   1.0000   1.0000   1.0000   1.0000
     1.0000   1.0000   1.0000   1.0000   1.0000   1.0000   1.0000   1.0000
     1.0000   1.0000   1.0000   1.0000   1.0000   1.0000   1.0000   1.0000
     1.0000   1.0000   1.0000   1.0000   1.0000   1.0000   1.0000   1.0000
     1.0000   1.0000   1.0000   1.0000   1.0000   1.0000   1.0000   1.0000
     1.0000   1.0000   1.0000   1.0000   1.0000   1.0000   1.0000   1.0000
     1.0000   1.0000   1.0000   1.0000   1.0000   1.0000   1.0000   1.0000
     1.0000   1.0000   1.0000   1.0000   1.0000   1.0000   1.0000   1.0000
     1.0000   1.0000   1.0000   1.0000   1.0000   1.0000   1.0000   1.0000
     1.0000   1.0000   1.0000   1.0000   1.0000   1.0000   1.0000   1.0000
     1.0000   1.0000   1.0000   1.0000   1.0000   1.0000   1.0000   1.0000
     1.0000   1.0000   1.0000   1.0000   1.0000   1.0000   1.0000   1.0000
     1.0000   1.0000   1.0000   1.0000   1.0000   1.0000   1.0000   1.0000
     1.0000   1.0000   1.0000   1.0000   1.0001   1.0001   0.0000   0.0000
     0.0000   0.0000   0.0000   0.0000   0.0000   0.0000   0.0000   0.0000
     0.0000   0.0000   0.0000   0.0000   0.0000   0.0000   0.0000   0.0000
     0.0000   0.0000   0.0000   0.0000   0.0000   0.0000

          k = 0.0000-0.5389 0.0482 ( 11558 PWs)   bands (ev):

  -197.4730-197.4730-197.4079-197.4079-197.4079-197.4079-142.3808-142.3808
  -142.3808-142.3808-140.9351-140.9351-140.8648-140.8648-140.8644-140.8644
  -135.0691-135.0691-135.0485-135.0485-135.0012-135.0012-135.0004-135.0004
  -134.9750-134.9750-134.9744-134.9744 -98.9907 -98.9907 -98.9907 -98.9907
   -74.2625 -74.2625 -74.2625 -74.2625 -74.2585 -74.2585 -74.2585 -74.2585
   -37.7237 -37.7237 -37.6970 -37.6970 -37.6435 -37.6435 -37.6420 -37.6420
   -37.6105 -37.6105 -37.6096 -37.6096 -36.8313 -36.8313 -36.8198 -36.8198
   -36.7966 -36.7966 -36.7513 -36.7513 -36.7500 -36.7500 -36.7364 -36.7364
   -36.7351 -36.7351 -36.7089 -36.7089 -36.7073 -36.7073 -13.9280 -13.9280
   -13.9279 -13.9279 -13.9203 -13.9203 -13.9199 -13.9199 -10.9496 -10.9496
   -10.9468 -10.9468 -10.9333 -10.9333 -10.9289 -10.9289 -10.9190 -10.9190
   -10.9141 -10.9141  -2.3930  -2.3930  -2.0398  -2.0398  -1.7569  -1.7569
    -0.0961  -0.0961   0.5218   0.5218   5.0439   5.0439   6.3850   6.3850
     6.7345   6.7345   7.2556   7.2556   7.7062   7.7062   8.2485   8.2485
     8.6089   8.6089   9.1498   9.1498   9.4735   9.4735  11.5260  11.5260
    12.3809  12.3809  12.8212  12.8212  13.2331  13.2331  14.0195  14.0195
    14.4454  14.4454  15.1474  15.1474  16.5284  16.5284  18.3302  18.3302
    20.1629  20.1629  20.4628  20.4628  20.7055  20.7055

     occupation numbers 
     1.0000   1.0000   1.0000   1.0000   1.0000   1.0000   1.0000   1.0000
     1.0000   1.0000   1.0000   1.0000   1.0000   1.0000   1.0000   1.0000
     1.0000   1.0000   1.0000   1.0000   1.0000   1.0000   1.0000   1.0000
     1.0000   1.0000   1.0000   1.0000   1.0000   1.0000   1.0000   1.0000
     1.0000   1.0000   1.0000   1.0000   1.0000   1.0000   1.0000   1.0000
     1.0000   1.0000   1.0000   1.0000   1.0000   1.0000   1.0000   1.0000
     1.0000   1.0000   1.0000   1.0000   1.0000   1.0000   1.0000   1.0000
     1.0000   1.0000   1.0000   1.0000   1.0000   1.0000   1.0000   1.0000
     1.0000   1.0000   1.0000   1.0000   1.0000   1.0000   1.0000   1.0000
     1.0000   1.0000   1.0000   1.0000   1.0000   1.0000   1.0000   1.0000
     1.0000   1.0000   1.0000   1.0000   1.0000   1.0000   1.0000   1.0000
     1.0000   1.0000   1.0000   1.0000   1.0000   1.0000   1.0000   1.0000
     1.0000   1.0000   1.0000   1.0000   1.0000   1.0000   1.0000   1.0000
     1.0000   1.0000   1.0000   1.0000   1.0000   1.0000   1.0000   1.0000
     1.0000   1.0000   1.0000   1.0000   1.0000   1.0000   0.0000   0.0000
     0.0000   0.0000   0.0000   0.0000   0.0000   0.0000   0.0000   0.0000
     0.0000   0.0000   0.0000   0.0000   0.0000   0.0000   0.0000   0.0000
     0.0000   0.0000   0.0000   0.0000   0.0000   0.0000

          k =-0.9333 0.0000 0.0000 ( 11548 PWs)   bands (ev):

  -197.4730-197.4730-197.4079-197.4079-197.4079-197.4079-142.3808-142.3808
  -142.3808-142.3808-140.9347-140.9347-140.8649-140.8649-140.8634-140.8634
  -135.0684-135.0684-135.0485-135.0485-135.0007-135.0007-134.9995-134.9995
  -134.9754-134.9754-134.9740-134.9740 -98.9907 -98.9907 -98.9907 -98.9907
   -74.2625 -74.2625 -74.2625 -74.2625 -74.2585 -74.2585 -74.2585 -74.2585
   -37.7223 -37.7223 -37.6969 -37.6969 -37.6424 -37.6424 -37.6404 -37.6404
   -37.6112 -37.6112 -37.6087 -37.6087 -36.8295 -36.8295 -36.8198 -36.8198
   -36.7964 -36.7964 -36.7497 -36.7497 -36.7481 -36.7481 -36.7369 -36.7369
   -36.7344 -36.7344 -36.7091 -36.7091 -36.7067 -36.7067 -13.9279 -13.9279
   -13.9276 -13.9276 -13.9204 -13.9204 -13.9200 -13.9200 -10.9491 -10.9491
   -10.9465 -10.9465 -10.9332 -10.9332 -10.9292 -10.9292 -10.9191 -10.9191
   -10.9144 -10.9144  -2.3263  -2.3263  -2.0374  -2.0374  -1.7422  -1.7422
    -0.1196  -0.1196   0.4816   0.4816   5.3122   5.3122   6.0693   6.0693
     6.3930   6.3930   7.1566   7.1566   7.6798   7.6798   8.0422   8.0422
     9.1016   9.1016   9.3429   9.3429   9.7398   9.7398  11.1728  11.1728
    12.1759  12.1759  12.4687  12.4687  13.5832  13.5832  14.1009  14.1009
    14.3194  14.3194  15.5508  15.5508  17.2333  17.2333  17.6380  17.6380
    19.8979  19.8979  20.2010  20.2010  20.6787  20.6787

     occupation numbers 
     1.0000   1.0000   1.0000   1.0000   1.0000   1.0000   1.0000   1.0000
     1.0000   1.0000   1.0000   1.0000   1.0000   1.0000   1.0000   1.0000
     1.0000   1.0000   1.0000   1.0000   1.0000   1.0000   1.0000   1.0000
     1.0000   1.0000   1.0000   1.0000   1.0000   1.0000   1.0000   1.0000
     1.0000   1.0000   1.0000   1.0000   1.0000   1.0000   1.0000   1.0000
     1.0000   1.0000   1.0000   1.0000   1.0000   1.0000   1.0000   1.0000
     1.0000   1.0000   1.0000   1.0000   1.0000   1.0000   1.0000   1.0000
     1.0000   1.0000   1.0000   1.0000   1.0000   1.0000   1.0000   1.0000
     1.0000   1.0000   1.0000   1.0000   1.0000   1.0000   1.0000   1.0000
     1.0000   1.0000   1.0000   1.0000   1.0000   1.0000   1.0000   1.0000
     1.0000   1.0000   1.0000   1.0000   1.0000   1.0000   1.0000   1.0000
     1.0000   1.0000   1.0000   1.0000   1.0000   1.0000   1.0000   1.0000
     1.0000   1.0000   1.0000   1.0000   1.0000   1.0000   1.0000   1.0000
     1.0000   1.0000   1.0000   1.0000   1.0000   1.0000   1.0000   1.0000
     1.0000   1.0000   1.0000   1.0000   1.0000   1.0000   0.0000   0.0000
     0.0000   0.0000   0.0000   0.0000   0.0000   0.0000   0.0000   0.0000
     0.0000   0.0000   0.0000   0.0000   0.0000   0.0000   0.0000   0.0000
     0.0000   0.0000   0.0000   0.0000   0.0000   0.0000

          k =-0.9333 0.0000 0.0867 ( 11550 PWs)   bands (ev):

  -197.4730-197.4730-197.4079-197.4079-197.4079-197.4079-142.3808-142.3808
  -142.3808-142.3808-140.9348-140.9348-140.8645-140.8645-140.8640-140.8640
  -135.0687-135.0687-135.0484-135.0484-135.0007-135.0007-134.9999-134.9999
  -134.9747-134.9747-134.9745-134.9745 -98.9907 -98.9907 -98.9907 -98.9907
   -74.2625 -74.2625 -74.2625 -74.2625 -74.2585 -74.2585 -74.2585 -74.2585
   -37.7229 -37.7229 -37.6967 -37.6967 -37.6427 -37.6427 -37.6411 -37.6411
   -37.6099 -37.6099 -37.6096 -37.6096 -36.8303 -36.8303 -36.8195 -36.8195
   -36.7963 -36.7963 -36.7503 -36.7503 -36.7490 -36.7490 -36.7362 -36.7362
   -36.7344 -36.7344 -36.7079 -36.7079 -36.7077 -36.7077 -13.9279 -13.9279
   -13.9276 -13.9276 -13.9204 -13.9204 -13.9200 -13.9200 -10.9491 -10.9491
   -10.9465 -10.9465 -10.9332 -10.9332 -10.9291 -10.9291 -10.9191 -10.9191
   -10.9144 -10.9144  -2.3294  -2.3294  -2.0293  -2.0293  -1.7511  -1.7511
    -0.0879  -0.0879   0.4512   0.4512   5.1465   5.1465   6.3096   6.3096
     6.5243   6.5243   7.1339   7.1339   7.5056   7.5056   8.3905   8.3905
     8.6514   8.6514   9.1487   9.1487   9.8283   9.8283  11.3104  11.3104
    12.1121  12.1121  12.8887  12.8887  13.2983  13.2983  14.1459  14.1459
    14.5359  14.5359  15.3334  15.3334  16.5477  16.5477  18.4763  18.4763
    19.9499  19.9499  20.2165  20.2165  20.6019  20.6019

     occupation numbers 
     1.0000   1.0000   1.0000   1.0000   1.0000   1.0000   1.0000   1.0000
     1.0000   1.0000   1.0000   1.0000   1.0000   1.0000   1.0000   1.0000
     1.0000   1.0000   1.0000   1.0000   1.0000   1.0000   1.0000   1.0000
     1.0000   1.0000   1.0000   1.0000   1.0000   1.0000   1.0000   1.0000
     1.0000   1.0000   1.0000   1.0000   1.0000   1.0000   1.0000   1.0000
     1.0000   1.0000   1.0000   1.0000   1.0000   1.0000   1.0000   1.0000
     1.0000   1.0000   1.0000   1.0000   1.0000   1.0000   1.0000   1.0000
     1.0000   1.0000   1.0000   1.0000   1.0000   1.0000   1.0000   1.0000
     1.0000   1.0000   1.0000   1.0000   1.0000   1.0000   1.0000   1.0000
     1.0000   1.0000   1.0000   1.0000   1.0000   1.0000   1.0000   1.0000
     1.0000   1.0000   1.0000   1.0000   1.0000   1.0000   1.0000   1.0000
     1.0000   1.0000   1.0000   1.0000   1.0000   1.0000   1.0000   1.0000
     1.0000   1.0000   1.0000   1.0000   1.0000   1.0000   1.0000   1.0000
     1.0000   1.0000   1.0000   1.0000   1.0000   1.0000   1.0000   1.0000
     1.0000   1.0000   1.0000   1.0000   1.0000   1.0000   0.0000   0.0000
     0.0000   0.0000   0.0000   0.0000   0.0000   0.0000   0.0000   0.0000
     0.0000   0.0000   0.0000   0.0000   0.0000   0.0000   0.0000   0.0000
     0.0000   0.0000   0.0000   0.0000   0.0000   0.0000

          k =-0.9333 0.0000 0.1734 ( 11534 PWs)   bands (ev):

  -197.4730-197.4730-197.4079-197.4079-197.4079-197.4079-142.3808-142.3808
  -142.3808-142.3808-140.9341-140.9341-140.8637-140.8637-140.8635-140.8635
  -135.0680-135.0680-135.0479-135.0479-134.9999-134.9999-134.9994-134.9994
  -134.9742-134.9742-134.9739-134.9739 -98.9907 -98.9907 -98.9907 -98.9907
   -74.2625 -74.2625 -74.2625 -74.2625 -74.2585 -74.2585 -74.2585 -74.2585
   -37.7216 -37.7216 -37.6957 -37.6957 -37.6411 -37.6411 -37.6400 -37.6400
   -37.6090 -37.6090 -37.6084 -37.6084 -36.8291 -36.8291 -36.8183 -36.8183
   -36.7954 -36.7954 -36.7486 -36.7486 -36.7481 -36.7481 -36.7351 -36.7351
   -36.7332 -36.7332 -36.7073 -36.7073 -36.7066 -36.7066 -13.9279 -13.9279
   -13.9276 -13.9276 -13.9204 -13.9204 -13.9200 -13.9200 -10.9492 -10.9492
   -10.9464 -10.9464 -10.9333 -10.9333 -10.9291 -10.9291 -10.9191 -10.9191
   -10.9143 -10.9143  -2.3341  -2.3341  -2.0157  -2.0157  -1.7662  -1.7662
    -0.0275  -0.0275   0.3931   0.3931   4.9768   4.9768   6.5112   6.5112
     6.7974   6.7974   7.1671   7.1671   7.7133   7.7133   8.0162   8.0162
     8.3037   8.3037   9.0824   9.0824   9.8573   9.8573  11.2712  11.2712
    12.4375  12.4375  12.9940  12.9940  13.4306  13.4306  14.2199  14.2199
    14.5977  14.5977  14.9909  14.9909  16.0371  16.0371  19.2062  19.2062
    20.1167  20.1167  20.3877  20.3877  20.6974  20.6975

     occupation numbers 
     1.0000   1.0000   1.0000   1.0000   1.0000   1.0000   1.0000   1.0000
     1.0000   1.0000   1.0000   1.0000   1.0000   1.0000   1.0000   1.0000
     1.0000   1.0000   1.0000   1.0000   1.0000   1.0000   1.0000   1.0000
     1.0000   1.0000   1.0000   1.0000   1.0000   1.0000   1.0000   1.0000
     1.0000   1.0000   1.0000   1.0000   1.0000   1.0000   1.0000   1.0000
     1.0000   1.0000   1.0000   1.0000   1.0000   1.0000   1.0000   1.0000
     1.0000   1.0000   1.0000   1.0000   1.0000   1.0000   1.0000   1.0000
     1.0000   1.0000   1.0000   1.0000   1.0000   1.0000   1.0000   1.0000
     1.0000   1.0000   1.0000   1.0000   1.0000   1.0000   1.0000   1.0000
     1.0000   1.0000   1.0000   1.0000   1.0000   1.0000   1.0000   1.0000
     1.0000   1.0000   1.0000   1.0000   1.0000   1.0000   1.0000   1.0000
     1.0000   1.0000   1.0000   1.0000   1.0000   1.0000   1.0000   1.0000
     1.0000   1.0000   1.0000   1.0000   1.0000   1.0000   1.0000   1.0000
     1.0000   1.0000   1.0000   1.0000   1.0000   1.0000   1.0000   1.0000
     1.0000   1.0000   1.0000   1.0000   1.0000   1.0000   0.0000   0.0000
     0.0000   0.0000   0.0000   0.0000   0.0000   0.0000   0.0000   0.0000
     0.0000   0.0000   0.0000   0.0000   0.0000   0.0000   0.0000   0.0000
     0.0000   0.0000   0.0000   0.0000   0.0000   0.0000

     the Fermi energy is    10.4004 ev

!    total energy              =   -2957.71886989 Ry
     estimated scf accuracy    <          1.4E-09 Ry
     smearing contrib. (-TS)   =       0.00005264 Ry
     internal energy E=F+TS    =   -2957.71892253 Ry

     The total energy is F=E-TS. E is the sum of the following terms:
     one-electron contribution =   -2377.52940353 Ry
     hartree contribution      =    1102.68398498 Ry
     xc contribution           =    -313.17767831 Ry
     ewald contribution        =   -1369.69582567 Ry

     convergence has been achieved in   9 iterations

     Writing output data file ./wfc-out/bi2se3.save/
 
     init_run     :     21.56s CPU     22.53s WALL (       1 calls)
     electrons    :   1033.92s CPU   1053.35s WALL (       1 calls)

     Called by init_run:
     wfcinit      :     21.18s CPU     22.08s WALL (       1 calls)
     wfcinit:atom :      0.07s CPU      0.19s WALL (     117 calls)
     wfcinit:wfcr :     20.99s CPU     21.52s WALL (     117 calls)
     potinit      :      0.09s CPU      0.10s WALL (       1 calls)
     hinit0       :      0.22s CPU      0.28s WALL (       1 calls)

     Called by electrons:
     c_bands      :    974.47s CPU    992.02s WALL (      10 calls)
     sum_band     :     59.09s CPU     60.58s WALL (      10 calls)
     v_of_rho     :      0.12s CPU      0.16s WALL (      10 calls)
     v_h          :      0.01s CPU      0.01s WALL (      10 calls)
     v_xc         :      0.11s CPU      0.15s WALL (      10 calls)
     mix_rho      :      0.13s CPU      0.14s WALL (      10 calls)

     Called by c_bands:
     init_us_2    :      1.25s CPU      1.45s WALL (    2457 calls)
     cegterg      :    933.58s CPU    948.82s WALL (    1170 calls)

     Called by sum_band:
     sum_band:wei :      0.15s CPU      0.17s WALL (      10 calls)
     sum_band:loo :     58.84s CPU     60.28s WALL (      10 calls)
     sum_band:buf :      0.65s CPU      0.82s WALL (    1170 calls)
     sum_band:ini :      0.42s CPU      0.47s WALL (    1170 calls)

     Called by *egterg:
     cdiaghg      :    223.98s CPU    224.62s WALL (    6280 calls)
     cegterg:over :    124.45s CPU    125.63s WALL (    5227 calls)
     cegterg:upda :     53.54s CPU     54.13s WALL (    5227 calls)
     cegterg:last :     92.99s CPU     93.21s WALL (    2340 calls)
     h_psi        :    378.32s CPU    388.77s WALL (    6514 calls)
     g_psi        :      0.71s CPU      0.71s WALL (    5227 calls)

     Called by h_psi:
     h_psi:calbec :     70.17s CPU     70.41s WALL (    6514 calls)
     vloc_psi     :    250.17s CPU    256.39s WALL (    6514 calls)
     add_vuspsi   :     56.65s CPU     57.23s WALL (    6514 calls)

     General routines
     calbec       :     70.14s CPU     70.39s WALL (    6514 calls)
     fft          :      0.27s CPU      0.33s WALL (     200 calls)
     ffts         :      0.08s CPU      0.08s WALL (      80 calls)
     fftw         :    281.73s CPU    288.25s WALL ( 1986504 calls)
     interpolate  :      0.05s CPU      0.05s WALL (      40 calls)
 
     Parallel routines
     fft_scatt_xy :     16.63s CPU     17.00s WALL ( 1986784 calls)
     fft_scatt_yz :    166.38s CPU    170.49s WALL ( 1986784 calls)
 
     PWSCF        :  17m47.41s CPU  19m58.69s WALL

 
   This run was terminated on:  22:19:12   8May2023            

=------------------------------------------------------------------------------=
   JOB DONE.
=------------------------------------------------------------------------------=
