 running on  192 total cores
 distrk:  each k-point on  192 cores,    1 groups
 distr:  one band on   24 cores,    8 groups
 using from now: INCAR     
 vasp.5.4.4.18Apr17-6-g9f103f2a35 (build Oct 01 2024 10:11:53) complex          
  
 POSCAR found type information on POSCAR  Se Sn
 POSCAR found :  2 types and       4 ions
 scaLAPACK will be used
 WARNING: PSMAXN for non-local potential too small
 LDA part: xc-table for Pade appr. of Perdew
 found WAVECAR, reading the header
  number of k-points has changed, file:    41 present:    40
  trying to continue reading WAVECAR, but it might fail
 WARNING: stress and forces are not correct
 POSCAR, INCAR and KPOINTS ok, starting setup
 FFT: planning ...
 reading WAVECAR
 the WAVECAR file was read successfully
 charge-density read from file: unknown                                 
 entering main loop
       N       E                     dE             d eps       ncg     rms          rms(c)
DAV:   1    -0.120243632312E+02   -0.12024E+02   -0.60671E+02  1792   0.684E+01
DAV:   2    -0.162105341417E+02   -0.41862E+01   -0.41517E+01  1592   0.240E+01
DAV:   3    -0.162641868607E+02   -0.53653E-01   -0.53622E-01  1744   0.326E+00
DAV:   4    -0.162648471514E+02   -0.66029E-03   -0.66027E-03  1624   0.362E-01
DAV:   5    -0.162648648930E+02   -0.17742E-04   -0.17741E-04  1624   0.575E-02
DAV:   6    -0.162648653947E+02   -0.50170E-06   -0.50169E-06  1448   0.888E-03
   1 F= -.16264865E+02 E0= -.16264865E+02  d E =0.000000E+00
 writing wavefunctions
