
     Program PWSCF v.6.6 starts on  8May2023 at  6:37:10 

     This program is part of the open-source Quantum ESPRESSO suite
     for quantum simulation of materials; please cite
         "P. Giannozzi et al., J. Phys.:Condens. Matter 21 395502 (2009);
         "P. Giannozzi et al., J. Phys.:Condens. Matter 29 465901 (2017);
          URL http://www.quantum-espresso.org", 
     in publications or presentations arising from this work. More details at
     http://www.quantum-espresso.org/quote

     Parallel version (MPI), running on    24 processors

     MPI processes distributed on     1 nodes
     R & G space division:  proc/nbgrp/npool/nimage =      24
     Fft bands division:     nmany     =       1
     Reading input from INCAR-nscf.pw

     Current dimensions of program PWSCF are:
     Max number of different atomic species (ntypx) = 10
     Max number of k-points (npk) =  40000
     Max angular momentum in pseudopotentials (lmaxx) =  3

     Atomic positions and unit cell read from directory:
     ./wfc-out/pwscf.save/
     Atomic positions from file used, from input discarded
 

     Subspace diagonalization in iterative solution of the eigenvalue problem:
     a serial algorithm will be used

 
     Parallelization info
     --------------------
     sticks:   dense  smooth     PW     G-vecs:    dense   smooth      PW
     Min         135      71     21                26529    10319    1679
     Max         136      72     22                26546    10330    1689
     Sum        3243    1721    511               636825   247803   40427
 


     bravais-lattice index     =            0
     lattice parameter (alat)  =       8.3768  a.u.
     unit-cell volume          =    2565.2293 (a.u.)^3
     number of atoms/cell      =            4
     number of atomic types    =            2
     number of electrons       =        40.00
     number of Kohn-Sham states=           20
     kinetic-energy cutoff     =      80.0000  Ry
     charge density cutoff     =     600.0000  Ry
     Exchange-correlation= SLA  PW   PBE  PBE
                           (   1   4   3   4   0   0   0)

     celldm(1)=   8.376807  celldm(2)=   0.000000  celldm(3)=   0.000000
     celldm(4)=   0.000000  celldm(5)=   0.000000  celldm(6)=   0.000000

     crystal axes: (cart. coord. in units of alat)
               a(1) = (   1.000000   0.000000   0.000000 )  
               a(2) = (   0.000000   0.967254   0.000000 )  
               a(3) = (   0.000000   0.000000   4.511805 )  

     reciprocal axes: (cart. coord. in units 2 pi/alat)
               b(1) = (  1.000000  0.000000  0.000000 )  
               b(2) = (  0.000000  1.033855  0.000000 )  
               b(3) = (  0.000000  0.000000  0.221641 )  


     PseudoPot. # 1 for Sn read from file:
     ./Sn_pbe_v1.uspp.F.UPF
     MD5 check sum: 4cf58ce39ec5d5d420df3dd08604eb00
     Pseudo is Ultrasoft + core correction, Zval = 14.0
     Generated by new atomic code, or converted to UPF format
     Using radial grid of  891 points,  6 beta functions with: 
                l(1) =   0
                l(2) =   0
                l(3) =   1
                l(4) =   1
                l(5) =   2
                l(6) =   2
     Q(r) pseudized with  6 coefficients,  rinner =    1.200   1.200   1.200
                                                       1.200   1.200

     PseudoPot. # 2 for Se read from file:
     ./Se_pbe_v1.uspp.F.UPF
     MD5 check sum: 1b3568f3a8ae88f9a2a0ad0698632c85
     Pseudo is Ultrasoft + core correction, Zval =  6.0
     Generated by new atomic code, or converted to UPF format
     Using radial grid of  877 points,  6 beta functions with: 
                l(1) =   0
                l(2) =   0
                l(3) =   1
                l(4) =   1
                l(5) =   2
                l(6) =   2
     Q(r) pseudized with  8 coefficients,  rinner =    1.300   1.300   1.300
                                                       1.300   1.300

     atomic species   valence    mass     pseudopotential
        Sn            14.00   118.71000     Sn( 1.00)
        Se             6.00    78.96000     Se( 1.00)

     No symmetry found



   Cartesian axes

     site n.     atom                  positions (alat units)
         1           Sn  tau(   1) = (   0.5862992   0.7254402   0.6524223  )
         2           Sn  tau(   2) = (   0.0863021   0.2418134   0.0295117  )
         3           Se  tau(   3) = (   0.0278045   0.2418134   0.6414399  )
         4           Se  tau(   4) = (   0.5278021   0.7254402   0.0405000  )

     number of k points=   120

     Number of k-points >= 100: set verbosity='high' to print them.

     Dense  grid:   636825 G-vectors     FFT dimensions: (  72,  64, 300)

     Smooth grid:   247803 G-vectors     FFT dimensions: (  48,  48, 216)

     Estimated max dynamical RAM per process >      90.37 MB

     Estimated total dynamical RAM >       2.12 GB

     The potential is recalculated from file :
     ./wfc-out/pwscf.save/charge-density


     negative rho (up, down):  2.877E-05 0.000E+00
     Starting wfcs are   26 randomized atomic wfcs

     Band Structure Calculation
     Davidson diagonalization with overlap

     ethr =  2.50E-13,  avg # of iterations = 57.9

     total cpu time spent up to now is      111.7 secs

     End of band structure calculation

     Number of k-points >= 100: set verbosity='high' to print the bands.

     highest occupied level (ev):    -0.9483



               ==================================================
                            POLARIZATION CALCULATION
                         !!! NOT THOROUGHLY TESTED !!!
               --------------------------------------------------


                     K-POINTS STRINGS USED IN CALCULATIONS
                     ~~~~~~~~~~~~~~~~~~~~~~~~~~~~~~~~~~~~~

       G-vector along string (2 pi/a):  1.00000  0.00000  0.00000
       Modulus of the vector (1/bohr):  0.75007
       Number of k-points per string:  15
       Number of different strings  :   8


                               IONIC POLARIZATION
                               ~~~~~~~~~~~~~~~~~~

  ============================================================================
    Ion    Species    Charge              Position                Phase
  ----------------------------------------------------------------------------
     1        Sn      14.000       0.5863  0.7254  0.6524     0.20819 (mod 2)
     2        Sn      14.000       0.0863  0.2418  0.0295    -0.79177 (mod 2)
     3        Se       6.000       0.0278  0.2418  0.6414     0.16683 (mod 2)
     4        Se       6.000       0.5278  0.7254  0.0405    -0.83319 (mod 2)
  ----------------------------------------------------------------------------
                                               IONIC PHASE:   0.75006 (mod 2)
  ============================================================================


                            ELECTRONIC POLARIZATION
                            ~~~~~~~~~~~~~~~~~~~~~~~

  ============================================================================
    String     Weight      First k-point in string         Phase
  ----------------------------------------------------------------------------
       1      0.066667      0.0000  0.0000  0.0000    -0.47875
       2      0.133333      0.0000  0.0689  0.0000    -0.34086
       3      0.133333      0.0000  0.1378  0.0000    -0.22415
       4      0.133333      0.0000  0.2068  0.0000    -0.15382
       5      0.133333      0.0000  0.2757  0.0000    -0.09505
       6      0.133333      0.0000  0.3446  0.0000    -0.04904
       7      0.133333      0.0000  0.4135  0.0000    -0.02482
       8      0.133333      0.0000  0.4825  0.0000    -0.01672
  ----------------------------------------------------------------------------
                                          ELECTRONIC PHASE:  -0.15251
  ============================================================================


                               SUMMARY OF PHASES
                               ~~~~~~~~~~~~~~~~~

                          Ionic Phase:  0.75006
                     Electronic Phase: -0.15251
                          TOTAL PHASE:  0.59755 MOD_TOT: 2


                             VALUES OF POLARIZATION
                             ~~~~~~~~~~~~~~~~~~~~~~

        The calculation of phases done along the direction of vector 1
        of the reciprocal lattice gives the following contribution to
        the polarization vector (in different units, and being Omega
        the volume of the unit cell):

           P =   5.0055377  (mod  16.7536134)  (e/Omega).bohr

           P =   0.0019513  (mod   0.0065310)  e/bohr^2

           P =   0.1115593  (mod   0.3733908)  C/m^2

        The polarization direction is:  ( 1.00000 , 0.00000 , 0.00000 )


               ==================================================



     Writing output data file ./wfc-out/pwscf.save/
 
     init_run     :      0.79s CPU      1.03s WALL (       1 calls)
     electrons    :    114.18s CPU    118.18s WALL (       1 calls)

     Called by init_run:
     wfcinit      :      0.00s CPU      0.00s WALL (       1 calls)
     potinit      :      0.06s CPU      0.08s WALL (       1 calls)
     hinit0       :      0.28s CPU      0.29s WALL (       1 calls)

     Called by electrons:
     c_bands      :    106.53s CPU    110.27s WALL (       1 calls)
     v_of_rho     :      0.04s CPU      0.05s WALL (       1 calls)
     newd         :      0.14s CPU      0.27s WALL (       1 calls)

     Called by c_bands:
     init_us_2    :      0.15s CPU      0.20s WALL (     344 calls)
     cegterg      :     96.99s CPU    100.32s WALL (     366 calls)

     Called by *egterg:
     cdiaghg      :      5.03s CPU      5.10s WALL (    7062 calls)
     h_psi        :     73.69s CPU     76.73s WALL (    7428 calls)
     s_psi        :      3.29s CPU      3.37s WALL (    7428 calls)
     g_psi        :      0.57s CPU      0.58s WALL (    6942 calls)

     Called by h_psi:
     h_psi:calbec :      4.77s CPU      4.95s WALL (    7428 calls)
     vloc_psi     :     64.39s CPU     67.16s WALL (    7428 calls)
     add_vuspsi   :      4.02s CPU      4.10s WALL (    7428 calls)

     General routines
     calbec       :      5.82s CPU      6.03s WALL (    7652 calls)
     fft          :      0.04s CPU      0.04s WALL (      13 calls)
     ffts         :      0.00s CPU      0.00s WALL (       1 calls)
     fftw         :     58.13s CPU     60.63s WALL (  275704 calls)
     interpolate  :      0.00s CPU      0.00s WALL (       1 calls)
     davcio       :      0.10s CPU      0.51s WALL (     464 calls)
 
     Parallel routines
     fft_scatt_xy :      7.64s CPU      7.97s WALL (  275718 calls)
     fft_scatt_yz :     33.44s CPU     34.89s WALL (  275718 calls)
 
     PWSCF        :   2m 1.55s CPU   3m21.67s WALL

 
   This run was terminated on:   6:40:31   8May2023            

=------------------------------------------------------------------------------=
   JOB DONE.
=------------------------------------------------------------------------------=
