 running on   24 total cores
 distrk:  each k-point on   24 cores,    1 groups
 distr:  one band on    1 cores,   24 groups
 using from now: INCAR     
 vasp.5.4.4.18Apr17-6-g9f103f2a35 (build Sep 16 2021 14:01:42) gamma-only       
  
 POSCAR found type information on POSCAR  Si
 POSCAR found :  1 types and      64 ions
 scaLAPACK will be used

 ----------------------------------------------------------------------------- 
|                                                                             |
|           W    W    AA    RRRRR   N    N  II  N    N   GGGG   !!!           |
|           W    W   A  A   R    R  NN   N  II  NN   N  G    G  !!!           |
|           W    W  A    A  R    R  N N  N  II  N N  N  G       !!!           |
|           W WW W  AAAAAA  RRRRR   N  N N  II  N  N N  G  GGG   !            |
|           WW  WW  A    A  R   R   N   NN  II  N   NN  G    G                |
|           W    W  A    A  R    R  N    N  II  N    N   GGGG   !!!           |
|                                                                             |
|      For optimal performance we recommend to set                            |
|        NCORE= 4 - approx SQRT( number of cores)                             |
|      NCORE specifies how many cores store one orbital (NPAR=cpu/NCORE).     |
|      This setting can  greatly improve the performance of VASP for DFT.     |
|      The default,   NCORE=1            might be grossly inefficient         |
|      on modern multi-core architectures or massively parallel machines.     |
|      Do your own testing !!!!                                               |
|      Unfortunately you need to use the default for GW and RPA calculations. |
|      (for HF NCORE is supported but not extensively tested yet)             |
|                                                                             |
 ----------------------------------------------------------------------------- 

 LDA part: xc-table for Pade appr. of Perdew
 found WAVECAR, reading the header
  number of bands has changed, file:    24 present:   168
  trying to continue reading WAVECAR, but it might fail
 WAVECAR: different cutoff or change in lattice found
 POSCAR, INCAR and KPOINTS ok, starting setup
 FFT: planning ...
 reading WAVECAR
 random initialization beyond band           25
 the WAVECAR file was read successfully
 initial charge from wavefunction
 prediction of wavefunctions initialized - no I/O
 entering main loop
       N       E                     dE             d eps       ncg     rms          rms(c)
RMM:   1     0.694150854352E+03    0.69415E+03   -0.16881E+03   368   0.273E+01BRMIX: very serious problems
 the old and the new charge density differ
 old charge density:    31.99982 new  255.99799
    0.122E+02
RMM:   2    -0.135263540003E+03   -0.82941E+03   -0.72486E+03   584   0.114E+02    0.521E+01
RMM:   3    -0.148957701876E+03   -0.13694E+02   -0.22626E+03   553   0.508E+01    0.445E+01
RMM:   4    -0.173258899551E+03   -0.24301E+02   -0.15536E+03   529   0.366E+01    0.239E+01
RMM:   5    -0.236136579219E+03   -0.62878E+02   -0.74811E+02   528   0.211E+01    0.169E+01
RMM:   6    -0.269460228109E+03   -0.33324E+02   -0.43989E+02   493   0.149E+01    0.885E+00
RMM:   7    -0.287365316029E+03   -0.17905E+02   -0.21035E+02   492   0.981E+00    0.613E+00
RMM:   8    -0.299298117426E+03   -0.11933E+02   -0.97361E+01   534   0.582E+00    0.522E+00
RMM:   9    -0.306284377066E+03   -0.69863E+01   -0.53737E+01   529   0.349E+00    0.378E+00
RMM:  10    -0.306737506715E+03   -0.45313E+00   -0.84761E+00   511   0.202E+00    0.236E+00
RMM:  11    -0.306795039372E+03   -0.57533E-01   -0.17507E+00   511   0.118E+00    0.910E-01
RMM:  12    -0.306870500956E+03   -0.75462E-01   -0.66572E-01   535   0.570E-01    0.658E-01
RMM:  13    -0.306856134139E+03    0.14367E-01   -0.92972E-02   534   0.258E-01    0.493E-01
RMM:  14    -0.306856726463E+03   -0.59232E-03   -0.21593E-01   469   0.327E-01    0.212E-01
RMM:  15    -0.306849623273E+03    0.71032E-02    0.39042E-02   514   0.142E-01    0.181E-01
RMM:  16    -0.306847390357E+03    0.22329E-02    0.98843E-04   462   0.934E-02    0.164E-01
RMM:  17    -0.306845367259E+03    0.20231E-02    0.12513E-02   524   0.737E-02    0.138E-01
RMM:  18    -0.306843954361E+03    0.14129E-02    0.58578E-03   436   0.777E-02    0.739E-02
RMM:  19    -0.306841733078E+03    0.22213E-02    0.19908E-02   495   0.677E-02    0.488E-02
RMM:  20    -0.306840585367E+03    0.11477E-02    0.10473E-02   451   0.473E-02    0.310E-02
RMM:  21    -0.306839784514E+03    0.80085E-03    0.77004E-03   382   0.403E-02    0.229E-02
RMM:  22    -0.306839250684E+03    0.53383E-03    0.51356E-03   330   0.351E-02    0.241E-02
RMM:  23    -0.306838733303E+03    0.51738E-03    0.51723E-03   264   0.292E-02    0.402E-02
RMM:  24    -0.306838391739E+03    0.34156E-03    0.36123E-03   243   0.279E-02    0.570E-02
RMM:  25    -0.306837858007E+03    0.53373E-03    0.51762E-03   214   0.267E-02    0.714E-02
RMM:  26    -0.306837376267E+03    0.48174E-03    0.48216E-03   215   0.265E-02    0.873E-02
RMM:  27    -0.306837261970E+03    0.11430E-03    0.22588E-03   243   0.275E-02    0.106E-01
RMM:  28    -0.306837011730E+03    0.25024E-03    0.35215E-03   251   0.279E-02    0.129E-01
RMM:  29    -0.306836956237E+03    0.55493E-04    0.15995E-03   264   0.292E-02    0.149E-01
RMM:  30    -0.306836476187E+03    0.48005E-03    0.46851E-03   228   0.266E-02    0.165E-01
RMM:  31    -0.306836259601E+03    0.21659E-03    0.21086E-03   228   0.265E-02    0.178E-01
RMM:  32    -0.306835969358E+03    0.29024E-03    0.36302E-03   229   0.255E-02    0.196E-01
RMM:  33    -0.306835682048E+03    0.28731E-03    0.26875E-03   224   0.249E-02    0.208E-01
RMM:  34    -0.306835384902E+03    0.29715E-03    0.31864E-03   222   0.244E-02    0.221E-01
RMM:  35    -0.306835125868E+03    0.25903E-03    0.28322E-03   223   0.238E-02    0.233E-01
RMM:  36    -0.306834842743E+03    0.28313E-03    0.28378E-03   221   0.234E-02    0.247E-01
RMM:  37    -0.306834585992E+03    0.25675E-03    0.26252E-03   203   0.227E-02    0.258E-01
RMM:  38    -0.306834295259E+03    0.29073E-03    0.29356E-03   193   0.224E-02    0.270E-01
RMM:  39    -0.306833999838E+03    0.29542E-03    0.27684E-03   192   0.221E-02    0.279E-01
RMM:  40    -0.306833745422E+03    0.25442E-03    0.25449E-03   187   0.217E-02    0.290E-01
RMM:  41    -0.306833474562E+03    0.27086E-03    0.27479E-03   185   0.214E-02    0.299E-01
RMM:  42    -0.306833254400E+03    0.22016E-03    0.22042E-03   175   0.209E-02    0.308E-01
RMM:  43    -0.306832970872E+03    0.28353E-03    0.27906E-03   171   0.206E-02    0.317E-01
RMM:  44    -0.306832784583E+03    0.18629E-03    0.19187E-03   178   0.205E-02    0.326E-01
RMM:  45    -0.306832497855E+03    0.28673E-03    0.27967E-03   171   0.200E-02    0.334E-01
RMM:  46    -0.306832312228E+03    0.18563E-03    0.18064E-03   164   0.195E-02    0.343E-01
RMM:  47    -0.306832090416E+03    0.22181E-03    0.24767E-03   189   0.195E-02    0.351E-01
RMM:  48    -0.306831906515E+03    0.18390E-03    0.18129E-03   168   0.191E-02    0.359E-01
RMM:  49    -0.306831679445E+03    0.22707E-03    0.24440E-03   168   0.188E-02    0.366E-01
RMM:  50    -0.306831525271E+03    0.15417E-03    0.16548E-03   160   0.182E-02    0.374E-01
RMM:  51    -0.306831301553E+03    0.22372E-03    0.23930E-03   156   0.180E-02    0.382E-01
RMM:  52    -0.306831240514E+03    0.61039E-04    0.13515E-03   179   0.180E-02    0.390E-01
RMM:  53    -0.306831027937E+03    0.21258E-03    0.23927E-03   176   0.180E-02    0.397E-01
RMM:  54    -0.306831050420E+03   -0.22483E-04    0.12327E-03   202   0.187E-02    0.406E-01
RMM:  55    -0.306830723205E+03    0.32721E-03    0.27370E-03   187   0.181E-02    0.413E-01
RMM:  56    -0.306830624922E+03    0.98283E-04    0.83764E-04   188   0.184E-02
    1 T=  2000. E= -.29054377E+03 F= -.30683062E+03 E0= -.30667959E+03  EK= 0.16287E+02 SP= 0.00E+00 SK= 0.00E+00
 bond charge predicted
       N       E                     dE             d eps       ncg     rms          rms(c)
RMM:   1    -0.306251802188E+03    0.57892E+00   -0.25719E+01   336   0.755E+00    0.157E+00
RMM:   2    -0.306182305133E+03    0.69497E-01    0.15908E-01   506   0.129E+00    0.112E+00
RMM:   3    -0.306152188574E+03    0.30117E-01    0.76529E-02   486   0.398E-01    0.544E-01
RMM:   4    -0.306139829170E+03    0.12359E-01    0.88289E-02   524   0.199E-01    0.237E-01
RMM:   5    -0.306130159116E+03    0.96701E-02    0.75500E-02   533   0.131E-01    0.120E-01
RMM:   6    -0.306124152664E+03    0.60065E-02    0.53082E-02   528   0.900E-02    0.809E-02
RMM:   7    -0.306118763173E+03    0.53895E-02    0.50217E-02   506   0.683E-02    0.685E-02
RMM:   8    -0.306114901654E+03    0.38615E-02    0.35885E-02   491   0.567E-02    0.647E-02
RMM:   9    -0.306110857905E+03    0.40437E-02    0.38548E-02   417   0.459E-02    0.766E-02
RMM:  10    -0.306108675845E+03    0.21821E-02    0.22994E-02   377   0.420E-02    0.121E-01
RMM:  11    -0.306105312131E+03    0.33637E-02    0.22017E-02   437   0.816E-02    0.585E-02
RMM:  12    -0.306098928418E+03    0.63837E-02    0.63108E-02   416   0.467E-02    0.141E-01
RMM:  13    -0.306096635987E+03    0.22924E-02    0.24886E-02   283   0.346E-02    0.180E-01
RMM:  14    -0.306094280496E+03    0.23555E-02    0.24133E-02   260   0.314E-02    0.224E-01
RMM:  15    -0.306092071849E+03    0.22086E-02    0.22037E-02   246   0.306E-02    0.256E-01
RMM:  16    -0.306090554598E+03    0.15173E-02    0.16207E-02   237   0.290E-02    0.292E-01
RMM:  17    -0.306088517938E+03    0.20367E-02    0.18758E-02   242   0.281E-02    0.317E-01
RMM:  18    -0.306087578449E+03    0.93949E-03    0.91611E-03   231   0.276E-02    0.340E-01
RMM:  19    -0.306086530309E+03    0.10481E-02    0.10841E-02   222   0.261E-02    0.356E-01
RMM:  20    -0.306086223088E+03    0.30722E-03    0.23366E-03   263   0.281E-02    0.362E-01
RMM:  21    -0.306085637890E+03    0.58520E-03    0.63438E-03   250   0.273E-02    0.371E-01
RMM:  22    -0.306085593942E+03    0.43949E-04    0.13529E-03   303   0.312E-02    0.377E-01
RMM:  23    -0.306085162493E+03    0.43145E-03    0.41107E-03   304   0.292E-02    0.383E-01
RMM:  24    -0.306084837570E+03    0.32492E-03    0.25950E-03   222   0.259E-02    0.388E-01
RMM:  25    -0.306084230566E+03    0.60700E-03    0.37673E-03   241   0.262E-02    0.392E-01
RMM:  26    -0.306083073311E+03    0.11573E-02    0.59054E-03   258   0.270E-02    0.390E-01
RMM:  27    -0.306081155083E+03    0.19182E-02    0.75207E-03   378   0.349E-02    0.381E-01
RMM:  28    -0.306079174322E+03    0.19808E-02    0.74465E-03   398   0.365E-02    0.367E-01
RMM:  29    -0.306077586150E+03    0.15882E-02    0.65136E-03   344   0.342E-02    0.359E-01
RMM:  30    -0.306075948632E+03    0.16375E-02    0.69341E-03   371   0.356E-02    0.345E-01
RMM:  31    -0.306074977473E+03    0.97116E-03    0.33219E-03   354   0.356E-02    0.336E-01
RMM:  32    -0.306074100968E+03    0.87651E-03    0.58474E-03   287   0.306E-02    0.334E-01
RMM:  33    -0.306073678192E+03    0.42278E-03    0.31342E-03   289   0.277E-02    0.338E-01
RMM:  34    -0.306073154982E+03    0.52321E-03    0.51277E-03   230   0.249E-02    0.340E-01
RMM:  35    -0.306072743928E+03    0.41105E-03    0.26155E-03   228   0.244E-02    0.343E-01
RMM:  36    -0.306072159673E+03    0.58425E-03    0.48857E-03   244   0.253E-02    0.345E-01
RMM:  37    -0.306071846350E+03    0.31332E-03    0.21412E-03   225   0.240E-02    0.348E-01
RMM:  38    -0.306071434786E+03    0.41156E-03    0.41287E-03   224   0.238E-02    0.352E-01
RMM:  39    -0.306071292789E+03    0.14200E-03    0.22795E-03   217   0.224E-02    0.358E-01
RMM:  40    -0.306070863173E+03    0.42962E-03    0.41209E-03   213   0.226E-02    0.361E-01
RMM:  41    -0.306070743303E+03    0.11987E-03    0.15577E-03   208   0.212E-02    0.365E-01
RMM:  42    -0.306070438746E+03    0.30456E-03    0.37820E-03   208   0.214E-02    0.371E-01
RMM:  43    -0.306070138549E+03    0.30020E-03    0.20513E-03   214   0.213E-02    0.372E-01
RMM:  44    -0.306069723563E+03    0.41499E-03    0.33488E-03   238   0.222E-02    0.375E-01
RMM:  45    -0.306069493719E+03    0.22984E-03    0.20259E-03   220   0.219E-02    0.376E-01
RMM:  46    -0.306069168164E+03    0.32556E-03    0.31257E-03   213   0.207E-02    0.379E-01
RMM:  47    -0.306068901754E+03    0.26641E-03    0.21846E-03   198   0.205E-02    0.382E-01
RMM:  48    -0.306068580042E+03    0.32171E-03    0.28128E-03   219   0.204E-02    0.384E-01
RMM:  49    -0.306068284817E+03    0.29522E-03    0.21608E-03   220   0.207E-02    0.386E-01
RMM:  50    -0.306068079962E+03    0.20486E-03    0.23130E-03   202   0.199E-02    0.389E-01
RMM:  51    -0.306067957632E+03    0.12233E-03    0.17307E-03   231   0.205E-02    0.391E-01
RMM:  52    -0.306066407098E+03    0.15505E-02    0.77318E-03   270   0.271E-02    0.387E-01
RMM:  53    -0.306066735607E+03   -0.32851E-03   -0.31059E-03   265   0.240E-02    0.387E-01
RMM:  54    -0.306065844456E+03    0.89115E-03    0.87899E-03   226   0.218E-02    0.395E-01
RMM:  55    -0.306066196325E+03   -0.35187E-03   -0.32862E-03   207   0.205E-02    0.393E-01
RMM:  56    -0.306065420484E+03    0.77584E-03    0.74388E-03   209   0.201E-02    0.400E-01
RMM:  57    -0.306067791004E+03   -0.23705E-02   -0.99858E-03   380   0.696E-02    0.430E-01
RMM:  58    -0.306067540801E+03    0.25020E-03    0.93332E-03   419   0.344E-02    0.452E-01
RMM:  59    -0.306067633906E+03   -0.93106E-04   -0.20246E-03   261   0.227E-02    0.451E-01
RMM:  60    -0.306067136885E+03    0.49702E-03    0.53533E-03   219   0.185E-02
    2 T=  1914. E= -.29048263E+03 F= -.30606714E+03 E0= -.30592829E+03  EK= 0.15585E+02 SP= -.74E-03 SK= 0.14E-05
 bond charge predicted
 prediction of wavefunctions
       N       E                     dE             d eps       ncg     rms          rms(c)
RMM:   1    -0.304259413160E+03    0.18082E+01   -0.10737E+00   376   0.160E+00    0.116E+00
RMM:   2    -0.304158314909E+03    0.10110E+00   -0.12743E-01   511   0.623E-01    0.583E-01
RMM:   3    -0.304128088078E+03    0.30227E-01    0.14954E-01   536   0.334E-01    0.367E-01
RMM:   4    -0.304103839681E+03    0.24248E-01    0.21291E-01   566   0.162E-01    0.286E-01
RMM:   5    -0.304097502168E+03    0.63375E-02    0.32590E-02   498   0.137E-01    0.176E-01
RMM:   6    -0.304090215388E+03    0.72868E-02    0.65000E-02   531   0.123E-01    0.708E-02
RMM:   7    -0.304089240412E+03    0.97498E-03    0.86829E-03   494   0.721E-02    0.708E-02
RMM:   8    -0.304085923314E+03    0.33171E-02    0.32192E-02   319   0.529E-02    0.108E-01
RMM:   9    -0.304085409119E+03    0.51420E-03    0.68630E-03   285   0.481E-02    0.160E-01
RMM:  10    -0.304082211174E+03    0.31979E-02    0.26111E-02   399   0.550E-02    0.166E-01
RMM:  11    -0.304081296611E+03    0.91456E-03    0.71525E-03   360   0.489E-02    0.206E-01
RMM:  12    -0.304078333292E+03    0.29633E-02    0.17296E-02   455   0.634E-02    0.184E-01
RMM:  13    -0.304078881898E+03   -0.54861E-03    0.79723E-03   428   0.597E-02    0.240E-01
RMM:  14    -0.304076578458E+03    0.23034E-02    0.18228E-02   285   0.439E-02    0.256E-01
RMM:  15    -0.304076472269E+03    0.10619E-03    0.21201E-03   240   0.410E-02    0.281E-01
RMM:  16    -0.304074599530E+03    0.18727E-02    0.16291E-02   263   0.422E-02    0.295E-01
RMM:  17    -0.304074074610E+03    0.52492E-03    0.26927E-03   253   0.413E-02    0.317E-01
RMM:  18    -0.304071088869E+03    0.29857E-02    0.14206E-02   421   0.540E-02    0.293E-01
RMM:  19    -0.304070224393E+03    0.86448E-03    0.69450E-03   317   0.420E-02    0.312E-01
RMM:  20    -0.304068935799E+03    0.12886E-02    0.12524E-02   247   0.380E-02    0.326E-01
RMM:  21    -0.304066448681E+03    0.24871E-02    0.90981E-03   420   0.517E-02    0.302E-01
RMM:  22    -0.304064337381E+03    0.21113E-02    0.14741E-02   394   0.473E-02    0.295E-01
RMM:  23    -0.304064378584E+03   -0.41203E-04    0.33006E-03   314   0.415E-02    0.304E-01
RMM:  24    -0.304063308074E+03    0.10705E-02    0.13364E-02   283   0.371E-02    0.312E-01
RMM:  25    -0.304062592289E+03    0.71579E-03    0.53621E-03   228   0.331E-02    0.314E-01
RMM:  26    -0.304062404102E+03    0.18819E-03    0.91563E-03   265   0.380E-02    0.327E-01
RMM:  27    -0.304062001346E+03    0.40276E-03    0.67150E-03   270   0.354E-02    0.337E-01
RMM:  28    -0.304060018177E+03    0.19832E-02    0.10054E-02   264   0.363E-02    0.329E-01
RMM:  29    -0.304058483020E+03    0.15352E-02    0.64493E-03   355   0.398E-02    0.320E-01
RMM:  30    -0.304057573811E+03    0.90921E-03    0.86318E-03   259   0.340E-02    0.326E-01
RMM:  31    -0.304056845538E+03    0.72827E-03    0.62921E-03   218   0.313E-02    0.329E-01
RMM:  32    -0.304055550163E+03    0.12954E-02    0.80922E-03   262   0.338E-02    0.325E-01
RMM:  33    -0.304054925207E+03    0.62496E-03    0.55045E-03   259   0.321E-02    0.326E-01
RMM:  34    -0.304054190917E+03    0.73429E-03    0.72424E-03   226   0.305E-02    0.328E-01
RMM:  35    -0.304053615089E+03    0.57583E-03    0.52609E-03   220   0.292E-02    0.330E-01
RMM:  36    -0.304052856236E+03    0.75885E-03    0.66380E-03   230   0.295E-02    0.332E-01
RMM:  37    -0.304052350525E+03    0.50571E-03    0.48555E-03   223   0.285E-02    0.333E-01
RMM:  38    -0.304052756673E+03   -0.40615E-03    0.37096E-03   253   0.326E-02    0.347E-01
RMM:  39    -0.304053617060E+03   -0.86039E-03    0.18082E-03   446   0.464E-02    0.368E-01
RMM:  40    -0.304053544641E+03    0.72419E-04    0.51663E-03   333   0.344E-02    0.381E-01
RMM:  41    -0.304052537800E+03    0.10068E-02    0.33758E-03   288   0.320E-02    0.378E-01
RMM:  42    -0.304052646745E+03   -0.10894E-03    0.28341E-03   290   0.319E-02    0.386E-01
RMM:  43    -0.304052865006E+03   -0.21826E-03    0.24279E-03   346   0.355E-02    0.396E-01
RMM:  44    -0.304054117534E+03   -0.12525E-02    0.21619E-03   426   0.396E-02    0.420E-01
RMM:  45    -0.304053790497E+03    0.32704E-03    0.50677E-03   276   0.296E-02    0.427E-01
RMM:  46    -0.304053929729E+03   -0.13923E-03    0.26141E-03   260   0.284E-02    0.436E-01
RMM:  47    -0.304054445350E+03   -0.51562E-03    0.23544E-03   304   0.311E-02    0.448E-01
RMM:  48    -0.304053861080E+03    0.58427E-03    0.48076E-03   258   0.274E-02    0.452E-01
RMM:  49    -0.304053452985E+03    0.40810E-03    0.25075E-03   227   0.260E-02    0.453E-01
RMM:  50    -0.304053853256E+03   -0.40027E-03    0.40448E-03   266   0.289E-02    0.466E-01
RMM:  51    -0.304054221280E+03   -0.36802E-03    0.25036E-03   363   0.307E-02    0.478E-01
RMM:  52    -0.304060606242E+03   -0.63850E-02   -0.87578E-03   435   0.695E-02    0.546E-01
RMM:  53    -0.304055507776E+03    0.50985E-02    0.85461E-03   472   0.462E-02    0.520E-01
RMM:  54    -0.304054368312E+03    0.11395E-02   -0.64091E-04   308   0.312E-02    0.510E-01
RMM:  55    -0.304054863773E+03   -0.49546E-03    0.70466E-03   287   0.274E-02    0.525E-01
RMM:  56    -0.304055155436E+03   -0.29166E-03   -0.46275E-04   223   0.233E-02    0.534E-01
RMM:  57    -0.304055660296E+03   -0.50486E-03    0.32333E-03   357   0.348E-02    0.548E-01
RMM:  58    -0.304055321967E+03    0.33833E-03    0.40708E-03   286   0.268E-02    0.549E-01
RMM:  59    -0.304054430044E+03    0.89192E-03    0.60110E-03   232   0.240E-02    0.550E-01
RMM:  60    -0.304053072260E+03    0.13578E-02    0.38444E-03   247   0.260E-02
    3 T=  1689. E= -.29033357E+03 F= -.30405307E+03 E0= -.30392791E+03  EK= 0.13751E+02 SP= -.34E-01 SK= 0.28E-02
 bond charge predicted
 prediction of wavefunctions
       N       E                     dE             d eps       ncg     rms          rms(c)
RMM:   1    -0.302313221986E+03    0.17412E+01   -0.51506E-01   499   0.165E+00    0.346E+00
RMM:   2    -0.301454059101E+03    0.85916E+00   -0.24572E+00   418   0.158E+00    0.175E+00
RMM:   3    -0.301386716133E+03    0.67343E-01   -0.62226E-01   542   0.950E-01    0.951E-01
RMM:   4    -0.301370462553E+03    0.16254E-01    0.56619E-02   525   0.335E-01    0.307E-01
RMM:   5    -0.301388075137E+03   -0.17613E-01   -0.22436E-01   528   0.173E-01    0.335E-01
RMM:   6    -0.301418551012E+03   -0.30476E-01   -0.32870E-01   547   0.966E-02    0.596E-01
RMM:   7    -0.301455274511E+03   -0.36723E-01   -0.30344E-01   467   0.985E-02    0.867E-01
RMM:   8    -0.301487531041E+03   -0.32257E-01   -0.12310E-01   508   0.127E-01    0.107E+00
RMM:   9    -0.301542030186E+03   -0.54499E-01   -0.13757E-01   513   0.175E-01    0.132E+00
RMM:  10    -0.301510375416E+03    0.31655E-01    0.29117E-02   476   0.107E-01    0.125E+00
RMM:  11    -0.301525494261E+03   -0.15119E-01   -0.41345E-02   472   0.636E-02    0.132E+00
RMM:  12    -0.301512722112E+03    0.12772E-01    0.34397E-02   445   0.589E-02    0.132E+00
RMM:  13    -0.301530779012E+03   -0.18057E-01   -0.31817E-02   447   0.709E-02    0.138E+00
RMM:  14    -0.301474408657E+03    0.56370E-01    0.51114E-02   437   0.187E-01    0.122E+00
RMM:  15    -0.301447712113E+03    0.26697E-01    0.19900E-02   542   0.146E-01    0.112E+00
RMM:  16    -0.301430334568E+03    0.17378E-01    0.50141E-02   545   0.876E-02    0.106E+00
RMM:  17    -0.301430083337E+03    0.25123E-03    0.95019E-03   324   0.472E-02    0.107E+00
RMM:  18    -0.301424394261E+03    0.56891E-02    0.28674E-02   369   0.453E-02    0.105E+00
RMM:  19    -0.301423752770E+03    0.64149E-03   -0.20499E-03   326   0.409E-02    0.105E+00
RMM:  20    -0.301404930069E+03    0.18823E-01    0.39069E-02   462   0.822E-02    0.964E-01
RMM:  21    -0.301350481363E+03    0.54449E-01   -0.28782E-02   451   0.285E-01    0.594E-01
RMM:  22    -0.301336540856E+03    0.13941E-01    0.34862E-02   564   0.166E-01    0.484E-01
RMM:  23    -0.301336377397E+03    0.16346E-03   -0.11667E-02   518   0.683E-02    0.446E-01
RMM:  24    -0.301336800568E+03   -0.42317E-03   -0.97682E-03   435   0.606E-02    0.426E-01
RMM:  25    -0.301333409414E+03    0.33912E-02    0.57897E-03   503   0.654E-02    0.377E-01
RMM:  26    -0.301326995311E+03    0.64141E-02    0.77083E-03   469   0.991E-02    0.294E-01
RMM:  27    -0.301322140964E+03    0.48543E-02    0.21369E-02   543   0.821E-02    0.257E-01
RMM:  28    -0.301317748645E+03    0.43923E-02    0.25572E-02   481   0.672E-02    0.240E-01
RMM:  29    -0.301314221617E+03    0.35270E-02    0.31871E-02   388   0.487E-02    0.273E-01
RMM:  30    -0.301310529462E+03    0.36922E-02    0.30025E-02   464   0.595E-02    0.284E-01
RMM:  31    -0.301309120094E+03    0.14094E-02    0.11864E-02   318   0.420E-02    0.313E-01
RMM:  32    -0.301306724321E+03    0.23958E-02    0.21652E-02   307   0.388E-02    0.329E-01
RMM:  33    -0.301307464258E+03   -0.73994E-03   -0.17922E-03   270   0.370E-02    0.350E-01
RMM:  34    -0.301305693848E+03    0.17704E-02    0.17151E-02   240   0.346E-02    0.363E-01
RMM:  35    -0.301305319332E+03    0.37452E-03   -0.11538E-03   266   0.359E-02    0.362E-01
RMM:  36    -0.301301979090E+03    0.33402E-02    0.19495E-02   439   0.439E-02    0.355E-01
RMM:  37    -0.301302092879E+03   -0.11379E-03   -0.42825E-03   308   0.354E-02    0.353E-01
RMM:  38    -0.301300572724E+03    0.15202E-02    0.14027E-02   244   0.322E-02    0.361E-01
RMM:  39    -0.301300887375E+03   -0.31465E-03   -0.31886E-03   222   0.314E-02    0.363E-01
RMM:  40    -0.301299334579E+03    0.15528E-02    0.12624E-02   258   0.331E-02    0.367E-01
RMM:  41    -0.301299543307E+03   -0.20873E-03   -0.25081E-03   251   0.314E-02    0.369E-01
RMM:  42    -0.301298784339E+03    0.75897E-03    0.84797E-03   268   0.338E-02    0.377E-01
RMM:  43    -0.301300649937E+03   -0.18656E-02   -0.85763E-03   423   0.432E-02    0.391E-01
RMM:  44    -0.301301447800E+03   -0.79786E-03    0.64069E-03   420   0.407E-02    0.415E-01
RMM:  45    -0.301301182519E+03    0.26528E-03    0.19012E-03   257   0.295E-02    0.421E-01
RMM:  46    -0.301300405947E+03    0.77657E-03    0.60822E-03   231   0.277E-02    0.424E-01
RMM:  47    -0.301297838221E+03    0.25677E-02    0.76795E-03   361   0.399E-02    0.411E-01
RMM:  48    -0.301297596966E+03    0.24126E-03    0.15322E-03   273   0.302E-02    0.412E-01
RMM:  49    -0.301298207846E+03   -0.61088E-03    0.17516E-03   243   0.280E-02    0.423E-01
RMM:  50    -0.301294626547E+03    0.35813E-02    0.13219E-02   430   0.391E-02    0.411E-01
RMM:  51    -0.301293377656E+03    0.12489E-02    0.31670E-04   332   0.352E-02    0.397E-01
RMM:  52    -0.301295399141E+03   -0.20215E-02   -0.28271E-03   440   0.435E-02    0.421E-01
RMM:  53    -0.301289951994E+03    0.54471E-02    0.23058E-02   441   0.473E-02    0.407E-01
RMM:  54    -0.301286909688E+03    0.30423E-02    0.20237E-03   478   0.512E-02    0.374E-01
RMM:  55    -0.301284399238E+03    0.25104E-02    0.14472E-02   389   0.380E-02    0.372E-01
RMM:  56    -0.301284327435E+03    0.71803E-04   -0.23353E-03   303   0.313E-02    0.368E-01
RMM:  57    -0.301285211813E+03   -0.88438E-03    0.25606E-03   429   0.413E-02    0.387E-01
RMM:  58    -0.301277840079E+03    0.73717E-02    0.27558E-02   454   0.686E-02    0.346E-01
RMM:  59    -0.301278387308E+03   -0.54723E-03   -0.20518E-03   440   0.421E-02    0.343E-01
RMM:  60    -0.301280167732E+03   -0.17804E-02    0.21129E-03   402   0.421E-02
    4 T=  1383. E= -.29016882E+03 F= -.30128017E+03 E0= -.30116926E+03  EK= 0.11260E+02 SP= -.19E+00 SK= 0.37E-01
Information: wavefunction orthogonal band   24  0.8710
Information: wavefunction orthogonal band   26  0.8830
Information: wavefunction orthogonal band  160  0.8665
Information: wavefunction orthogonal band  165  0.8761
Information: wavefunction orthogonal band  167  0.8846
Information: wavefunction orthogonal band  168  0.8722
 bond charge predicted
 prediction of wavefunctions
       N       E                     dE             d eps       ncg     rms          rms(c)
RMM:   1    -0.299243424547E+03    0.20350E+01   -0.14629E+00   490   0.169E+00    0.276E+00
RMM:   2    -0.298663471108E+03    0.57995E+00   -0.15511E+00   426   0.130E+00    0.140E+00
RMM:   3    -0.298548927987E+03    0.11454E+00    0.25876E-01   542   0.803E-01    0.785E-01
RMM:   4    -0.298495101446E+03    0.53827E-01    0.44021E-01   559   0.319E-01    0.380E-01
RMM:   5    -0.298479635364E+03    0.15466E-01    0.10930E-01   533   0.197E-01    0.200E-01
RMM:   6    -0.298468555261E+03    0.11080E-01    0.98805E-02   552   0.148E-01    0.111E-01
RMM:   7    -0.298462371963E+03    0.61833E-02    0.56940E-02   533   0.119E-01    0.657E-02
RMM:   8    -0.298455190146E+03    0.71818E-02    0.70046E-02   492   0.974E-02    0.496E-02
RMM:   9    -0.298451331835E+03    0.38583E-02    0.36955E-02   481   0.904E-02    0.356E-02
RMM:  10    -0.298445682192E+03    0.56496E-02    0.55612E-02   470   0.881E-02    0.281E-02
RMM:  11    -0.298442185212E+03    0.34970E-02    0.34291E-02   477   0.856E-02    0.161E-02
RMM:  12    -0.298438338665E+03    0.38465E-02    0.38327E-02   339   0.749E-02    0.179E-02
RMM:  13    -0.298435684858E+03    0.26538E-02    0.26271E-02   366   0.740E-02    0.195E-02
RMM:  14    -0.298433801707E+03    0.18832E-02    0.19069E-02   282   0.644E-02    0.439E-02
RMM:  15    -0.298432293366E+03    0.15083E-02    0.15719E-02   260   0.624E-02    0.647E-02
RMM:  16    -0.298430321178E+03    0.19722E-02    0.19845E-02   242   0.585E-02    0.827E-02
RMM:  17    -0.298428904656E+03    0.14165E-02    0.14177E-02   233   0.564E-02    0.943E-02
RMM:  18    -0.298426836591E+03    0.20681E-02    0.19596E-02   242   0.551E-02    0.104E-01
RMM:  19    -0.298425995945E+03    0.84065E-03    0.87186E-03   258   0.549E-02    0.113E-01
RMM:  20    -0.298423973014E+03    0.20229E-02    0.19731E-02   251   0.536E-02    0.127E-01
RMM:  21    -0.298423212669E+03    0.76034E-03    0.76839E-03   251   0.526E-02    0.134E-01
RMM:  22    -0.298421704666E+03    0.15080E-02    0.15079E-02   239   0.500E-02    0.148E-01
RMM:  23    -0.298420900219E+03    0.80445E-03    0.79861E-03   230   0.487E-02    0.155E-01
RMM:  24    -0.298419598939E+03    0.13013E-02    0.12770E-02   231   0.472E-02    0.166E-01
RMM:  25    -0.298418880437E+03    0.71850E-03    0.71834E-03   230   0.458E-02    0.173E-01
RMM:  26    -0.298417812397E+03    0.10680E-02    0.10707E-02   225   0.446E-02    0.184E-01
RMM:  27    -0.298417061970E+03    0.75043E-03    0.72887E-03   225   0.435E-02    0.190E-01
RMM:  28    -0.298416179717E+03    0.88225E-03    0.88200E-03   226   0.423E-02    0.200E-01
RMM:  29    -0.298415514665E+03    0.66505E-03    0.66821E-03   203   0.407E-02    0.206E-01
RMM:  30    -0.298414764851E+03    0.74981E-03    0.75815E-03   197   0.398E-02    0.216E-01
RMM:  31    -0.298414144695E+03    0.62016E-03    0.62183E-03   189   0.387E-02    0.221E-01
RMM:  32    -0.298413499875E+03    0.64482E-03    0.65545E-03   189   0.376E-02    0.230E-01
RMM:  33    -0.298412910673E+03    0.58920E-03    0.58600E-03   183   0.366E-02    0.235E-01
RMM:  34    -0.298412289127E+03    0.62155E-03    0.60038E-03   186   0.356E-02    0.244E-01
RMM:  35    -0.298411766537E+03    0.52259E-03    0.52023E-03   180   0.348E-02    0.249E-01
RMM:  36    -0.298411172977E+03    0.59356E-03    0.55937E-03   178   0.341E-02    0.256E-01
RMM:  37    -0.298410703958E+03    0.46902E-03    0.46225E-03   174   0.332E-02    0.260E-01
RMM:  38    -0.298410117775E+03    0.58618E-03    0.53420E-03   197   0.327E-02    0.267E-01
RMM:  39    -0.298409653629E+03    0.46415E-03    0.42859E-03   195   0.317E-02    0.271E-01
RMM:  40    -0.298409189929E+03    0.46370E-03    0.45154E-03   183   0.309E-02    0.278E-01
RMM:  41    -0.298408826708E+03    0.36322E-03    0.37341E-03   168   0.300E-02    0.282E-01
RMM:  42    -0.298408419635E+03    0.40707E-03    0.40851E-03   164   0.292E-02    0.289E-01
RMM:  43    -0.298408092446E+03    0.32719E-03    0.33983E-03   157   0.283E-02    0.293E-01
RMM:  44    -0.298407736762E+03    0.35568E-03    0.36509E-03   147   0.275E-02    0.300E-01
RMM:  45    -0.298407392722E+03    0.34404E-03    0.33011E-03   147   0.269E-02    0.304E-01
RMM:  46    -0.298407007531E+03    0.38519E-03    0.34787E-03   183   0.267E-02    0.309E-01
RMM:  47    -0.298406630222E+03    0.37731E-03    0.31850E-03   208   0.268E-02    0.312E-01
RMM:  48    -0.298406356573E+03    0.27365E-03    0.27517E-03   186   0.258E-02    0.317E-01
RMM:  49    -0.298406060989E+03    0.29558E-03    0.29193E-03   176   0.252E-02    0.322E-01
RMM:  50    -0.298405811379E+03    0.24961E-03    0.25097E-03   164   0.248E-02    0.327E-01
RMM:  51    -0.298405587956E+03    0.22342E-03    0.24957E-03   158   0.239E-02    0.331E-01
RMM:  52    -0.298405070537E+03    0.51742E-03    0.32557E-03   229   0.247E-02    0.333E-01
RMM:  53    -0.298404906791E+03    0.16375E-03    0.16633E-03   195   0.237E-02    0.337E-01
RMM:  54    -0.298404614139E+03    0.29265E-03    0.28710E-03   188   0.230E-02    0.342E-01
RMM:  55    -0.298404467189E+03    0.14695E-03    0.15223E-03   178   0.224E-02    0.345E-01
RMM:  56    -0.298404208432E+03    0.25876E-03    0.25624E-03   167   0.221E-02    0.350E-01
RMM:  57    -0.298404922201E+03   -0.71377E-03   -0.18520E-03   373   0.397E-02    0.356E-01
RMM:  58    -0.298404277323E+03    0.64488E-03    0.68411E-03   322   0.277E-02    0.366E-01
RMM:  59    -0.298404413870E+03   -0.13655E-03   -0.14741E-03   253   0.250E-02    0.365E-01
RMM:  60    -0.298404040178E+03    0.37369E-03    0.50180E-03   294   0.275E-02
    5 T=  1075. E= -.29003586E+03 F= -.29840404E+03 E0= -.29830828E+03  EK= 0.87542E+01 SP= -.57E+00 SK= 0.18E+00
Information: wavefunction orthogonal band   25  0.8574
Information: wavefunction orthogonal band  160  0.8305
Information: wavefunction orthogonal band  162  0.8947
Information: wavefunction orthogonal band  163  0.8880
Information: wavefunction orthogonal band  164  0.8805
Information: wavefunction orthogonal band  165  0.8847
 bond charge predicted
 prediction of wavefunctions
       N       E                     dE             d eps       ncg     rms          rms(c)
RMM:   1    -0.296690151357E+03    0.17143E+01   -0.10936E+00   468   0.125E+00    0.257E+00
RMM:   2    -0.296217284383E+03    0.47287E+00   -0.13995E+00   422   0.115E+00    0.122E+00
RMM:   3    -0.296145564225E+03    0.71720E-01   -0.15842E-01   549   0.767E-01    0.569E-01
RMM:   4    -0.296115245037E+03    0.30319E-01    0.24145E-01   553   0.275E-01    0.223E-01
RMM:   5    -0.296107433376E+03    0.78117E-02    0.59817E-02   538   0.125E-01    0.170E-01
RMM:   6    -0.296097554510E+03    0.98789E-02    0.84089E-02   500   0.984E-02    0.164E-01
RMM:   7    -0.296092809756E+03    0.47448E-02    0.28225E-02   491   0.120E-01    0.112E-01
RMM:   8    -0.296087231356E+03    0.55784E-02    0.50216E-02   538   0.100E-01    0.673E-02
RMM:   9    -0.296087429831E+03   -0.19848E-03   -0.31977E-03   493   0.664E-02    0.350E-02
RMM:  10    -0.296084310365E+03    0.31195E-02    0.30791E-02   371   0.564E-02    0.289E-02
RMM:  11    -0.296084050088E+03    0.26028E-03    0.19529E-03   463   0.593E-02    0.144E-02
RMM:  12    -0.296082155967E+03    0.18941E-02    0.18901E-02   319   0.483E-02    0.180E-02
RMM:  13    -0.296082100460E+03    0.55507E-04    0.45188E-04   286   0.445E-02
    6 T=   842. E= -.28995818E+03 F= -.29608210E+03 E0= -.29599957E+03  EK= 0.68584E+01 SP= -.13E+01 SK= 0.57E+00
Information: wavefunction orthogonal band  157  0.8515
 bond charge predicted
 prediction of wavefunctions
       N       E                     dE             d eps       ncg     rms          rms(c)
RMM:   1    -0.295112410040E+03    0.96975E+00   -0.47830E-01   473   0.823E-01    0.174E+00
RMM:   2    -0.294890009621E+03    0.22240E+00   -0.65302E-01   438   0.824E-01    0.931E-01
RMM:   3    -0.294831146435E+03    0.58863E-01    0.15241E-01   553   0.561E-01    0.521E-01
RMM:   4    -0.294802125787E+03    0.29021E-01    0.24223E-01   553   0.249E-01    0.218E-01
RMM:   5    -0.294796640946E+03    0.54848E-02    0.41201E-02   551   0.148E-01    0.108E-01
RMM:   6    -0.294792085745E+03    0.45552E-02    0.42704E-02   548   0.110E-01    0.579E-02
RMM:   7    -0.294790722501E+03    0.13632E-02    0.12424E-02   443   0.893E-02    0.391E-02
RMM:   8    -0.294787520956E+03    0.32015E-02    0.31483E-02   408   0.823E-02    0.356E-02
RMM:   9    -0.294784458933E+03    0.30620E-02    0.29839E-02   469   0.854E-02    0.268E-02
RMM:  10    -0.294781870017E+03    0.25889E-02    0.25549E-02   443   0.813E-02    0.196E-02
RMM:  11    -0.294778821190E+03    0.30488E-02    0.30391E-02   454   0.802E-02    0.120E-02
RMM:  12    -0.294777620520E+03    0.12007E-02    0.12014E-02   347   0.724E-02    0.106E-02
RMM:  13    -0.294774869434E+03    0.27511E-02    0.27497E-02   375   0.717E-02    0.149E-02
RMM:  14    -0.294775190628E+03   -0.32119E-03   -0.30676E-03   271   0.633E-02    0.306E-02
RMM:  15    -0.294773689191E+03    0.15014E-02    0.15455E-02   244   0.607E-02    0.515E-02
RMM:  16    -0.294773096412E+03    0.59278E-03    0.60631E-03   227   0.573E-02    0.667E-02
RMM:  17    -0.294771863293E+03    0.12331E-02    0.12468E-02   219   0.560E-02    0.821E-02
RMM:  18    -0.294770815119E+03    0.10482E-02    0.10022E-02   211   0.541E-02    0.938E-02
RMM:  19    -0.294770010303E+03    0.80482E-03    0.81685E-03   209   0.528E-02    0.108E-01
RMM:  20    -0.294769117018E+03    0.89328E-03    0.89658E-03   193   0.513E-02    0.121E-01
RMM:  21    -0.294768290134E+03    0.82688E-03    0.82524E-03   200   0.500E-02    0.134E-01
RMM:  22    -0.294767941075E+03    0.34906E-03    0.43789E-03   203   0.491E-02    0.149E-01
RMM:  23    -0.294766980254E+03    0.96082E-03    0.97119E-03   197   0.480E-02    0.162E-01
RMM:  24    -0.294766419489E+03    0.56076E-03    0.54848E-03   188   0.466E-02    0.174E-01
RMM:  25    -0.294765616600E+03    0.80289E-03    0.80669E-03   186   0.456E-02    0.185E-01
RMM:  26    -0.294765107082E+03    0.50952E-03    0.51572E-03   184   0.445E-02    0.197E-01
RMM:  27    -0.294764386863E+03    0.72022E-03    0.72009E-03   171   0.431E-02    0.208E-01
RMM:  28    -0.294763951119E+03    0.43574E-03    0.45244E-03   192   0.425E-02    0.220E-01
RMM:  29    -0.294763299014E+03    0.65210E-03    0.65927E-03   181   0.413E-02    0.231E-01
RMM:  30    -0.294762851604E+03    0.44741E-03    0.44893E-03   175   0.402E-02    0.241E-01
RMM:  31    -0.294762266124E+03    0.58548E-03    0.58198E-03   173   0.391E-02    0.251E-01
RMM:  32    -0.294761805405E+03    0.46072E-03    0.44964E-03   173   0.380E-02    0.262E-01
RMM:  33    -0.294761298809E+03    0.50660E-03    0.50302E-03   158   0.366E-02    0.271E-01
RMM:  34    -0.294760841307E+03    0.45750E-03    0.44076E-03   163   0.358E-02    0.281E-01
RMM:  35    -0.294760410269E+03    0.43104E-03    0.43019E-03   150   0.345E-02    0.290E-01
RMM:  36    -0.294759997964E+03    0.41230E-03    0.41156E-03   153   0.336E-02    0.299E-01
RMM:  37    -0.294759622659E+03    0.37530E-03    0.38047E-03   150   0.328E-02    0.307E-01
RMM:  38    -0.294759222065E+03    0.40059E-03    0.38907E-03   153   0.319E-02    0.316E-01
RMM:  39    -0.294758898772E+03    0.32329E-03    0.33024E-03   154   0.314E-02    0.324E-01
RMM:  40    -0.294758550424E+03    0.34835E-03    0.35243E-03   147   0.305E-02    0.333E-01
RMM:  41    -0.294758184288E+03    0.36614E-03    0.33921E-03   148   0.298E-02    0.340E-01
RMM:  42    -0.294757883211E+03    0.30108E-03    0.29743E-03   150   0.292E-02    0.348E-01
RMM:  43    -0.294757549977E+03    0.33323E-03    0.31649E-03   151   0.284E-02    0.355E-01
RMM:  44    -0.294757279237E+03    0.27074E-03    0.26630E-03   145   0.278E-02    0.363E-01
RMM:  45    -0.294756992196E+03    0.28704E-03    0.28019E-03   144   0.272E-02    0.370E-01
RMM:  46    -0.294756683633E+03    0.30856E-03    0.26304E-03   155   0.267E-02    0.377E-01
RMM:  47    -0.294756317951E+03    0.36568E-03    0.28432E-03   169   0.265E-02    0.383E-01
RMM:  48    -0.294756100626E+03    0.21732E-03    0.20026E-03   161   0.259E-02    0.389E-01
RMM:  49    -0.294755750743E+03    0.34988E-03    0.27402E-03   190   0.258E-02    0.395E-01
RMM:  50    -0.294755524461E+03    0.22628E-03    0.18932E-03   203   0.254E-02    0.401E-01
RMM:  51    -0.294755259457E+03    0.26500E-03    0.24420E-03   189   0.246E-02    0.407E-01
RMM:  52    -0.294754676971E+03    0.58249E-03    0.30922E-03   219   0.249E-02    0.411E-01
RMM:  53    -0.294754608248E+03    0.68722E-04    0.92504E-04   200   0.239E-02
    7 T=   741. E= -.28991275E+03 F= -.29475461E+03 E0= -.29468037E+03  EK= 0.60305E+01 SP= -.25E+01 SK= 0.13E+01
Information: wavefunction orthogonal band  163  0.6679
 bond charge predicted
 prediction of wavefunctions
       N       E                     dE             d eps       ncg     rms          rms(c)
RMM:   1    -0.294571734280E+03    0.18294E+00   -0.52162E-01   457   0.695E-01    0.105E+00
RMM:   2    -0.294486474366E+03    0.85260E-01   -0.22550E-01   479   0.537E-01    0.535E-01
RMM:   3    -0.294466447734E+03    0.20027E-01    0.73707E-02   557   0.322E-01    0.337E-01
RMM:   4    -0.294456886212E+03    0.95615E-02    0.67515E-02   556   0.173E-01    0.190E-01
RMM:   5    -0.294453534825E+03    0.33514E-02    0.25285E-02   529   0.125E-01    0.811E-02
RMM:   6    -0.294451669161E+03    0.18657E-02    0.16937E-02   534   0.899E-02    0.405E-02
RMM:   7    -0.294450789897E+03    0.87926E-03    0.83764E-03   343   0.683E-02    0.360E-02
RMM:   8    -0.294449368019E+03    0.14219E-02    0.13704E-02   335   0.633E-02    0.369E-02
RMM:   9    -0.294450089387E+03   -0.72137E-03   -0.66397E-03   287   0.581E-02    0.568E-02
RMM:  10    -0.294447417231E+03    0.26722E-02    0.25520E-02   324   0.597E-02    0.594E-02
RMM:  11    -0.294447818580E+03   -0.40135E-03   -0.50575E-03   396   0.613E-02    0.654E-02
RMM:  12    -0.294444879126E+03    0.29395E-02    0.27723E-02   415   0.619E-02    0.630E-02
RMM:  13    -0.294446706235E+03   -0.18271E-02   -0.17706E-02   278   0.510E-02    0.771E-02
RMM:  14    -0.294444365529E+03    0.23407E-02    0.23265E-02   242   0.469E-02    0.915E-02
RMM:  15    -0.294445644748E+03   -0.12792E-02   -0.12841E-02   250   0.456E-02    0.973E-02
RMM:  16    -0.294444075485E+03    0.15693E-02    0.15873E-02   247   0.448E-02    0.114E-01
RMM:  17    -0.294445010740E+03   -0.93526E-03   -0.89224E-03   262   0.447E-02    0.120E-01
RMM:  18    -0.294443811392E+03    0.11993E-02    0.12030E-02   241   0.419E-02    0.135E-01
RMM:  19    -0.294444436072E+03   -0.62468E-03   -0.61453E-03   240   0.401E-02    0.141E-01
RMM:  20    -0.294443596369E+03    0.83970E-03    0.86619E-03   264   0.407E-02    0.154E-01
RMM:  21    -0.294444086933E+03   -0.49056E-03   -0.44109E-03   255   0.392E-02    0.161E-01
RMM:  22    -0.294443230171E+03    0.85676E-03    0.77245E-03   248   0.368E-02    0.172E-01
RMM:  23    -0.294443427520E+03   -0.19735E-03   -0.28669E-03   244   0.363E-02    0.175E-01
RMM:  24    -0.294442813094E+03    0.61443E-03    0.56048E-03   248   0.350E-02    0.185E-01
RMM:  25    -0.294443081342E+03   -0.26825E-03   -0.25149E-03   221   0.333E-02    0.190E-01
RMM:  26    -0.294442644402E+03    0.43694E-03    0.43748E-03   218   0.319E-02    0.200E-01
RMM:  27    -0.294442520729E+03    0.12367E-03   -0.64343E-04   253   0.330E-02    0.202E-01
RMM:  28    -0.294442036282E+03    0.48445E-03    0.38373E-03   254   0.324E-02    0.208E-01
RMM:  29    -0.294441839895E+03    0.19639E-03    0.16671E-04   262   0.327E-02    0.210E-01
RMM:  30    -0.294441033782E+03    0.80611E-03    0.46027E-03   297   0.340E-02    0.210E-01
RMM:  31    -0.294441165157E+03   -0.13138E-03   -0.17148E-03   260   0.307E-02    0.215E-01
RMM:  32    -0.294440622043E+03    0.54311E-03    0.42318E-03   259   0.305E-02    0.221E-01
RMM:  33    -0.294440787064E+03   -0.16502E-03   -0.18421E-03   246   0.285E-02    0.224E-01
RMM:  34    -0.294440498356E+03    0.28871E-03    0.30550E-03   232   0.272E-02    0.232E-01
RMM:  35    -0.294440312649E+03    0.18571E-03   -0.84095E-05   257   0.274E-02    0.233E-01
RMM:  36    -0.294440273599E+03    0.39050E-04    0.10343E-03   240   0.257E-02    0.239E-01
RMM:  37    -0.294440207843E+03    0.65755E-04    0.37310E-04   225   0.248E-02
    8 T=   786. E= -.28984632E+03 F= -.29444021E+03 E0= -.29436860E+03  EK= 0.64003E+01 SP= -.41E+01 SK= 0.23E+01
Information: wavefunction orthogonal band  164  0.8103
 bond charge predicted
 prediction of wavefunctions
       N       E                     dE             d eps       ncg     rms          rms(c)
RMM:   1    -0.295474580801E+03   -0.10343E+01    0.91360E-01   511   0.842E-01    0.216E+00
RMM:   2    -0.295099799116E+03    0.37478E+00   -0.10604E+00   438   0.103E+00    0.106E+00
RMM:   3    -0.295035286670E+03    0.64512E-01    0.12745E-01   557   0.612E-01    0.568E-01
RMM:   4    -0.295005336405E+03    0.29950E-01    0.23715E-01   549   0.257E-01    0.239E-01
RMM:   5    -0.294997883174E+03    0.74532E-02    0.51818E-02   550   0.144E-01    0.163E-01
RMM:   6    -0.294989756703E+03    0.81265E-02    0.69826E-02   530   0.126E-01    0.103E-01
RMM:   7    -0.294988040209E+03    0.17165E-02    0.13822E-02   537   0.103E-01    0.492E-02
RMM:   8    -0.294985006885E+03    0.30333E-02    0.29841E-02   402   0.695E-02    0.381E-02
RMM:   9    -0.294983819311E+03    0.11876E-02    0.11417E-02   325   0.595E-02    0.435E-02
RMM:  10    -0.294982539254E+03    0.12801E-02    0.13134E-02   291   0.539E-02    0.602E-02
RMM:  11    -0.294981007970E+03    0.15313E-02    0.14714E-02   285   0.551E-02    0.670E-02
RMM:  12    -0.294979800191E+03    0.12078E-02    0.11520E-02   399   0.575E-02    0.760E-02
RMM:  13    -0.294978375840E+03    0.14244E-02    0.13605E-02   380   0.542E-02    0.838E-02
RMM:  14    -0.294977676086E+03    0.69975E-03    0.68939E-03   253   0.468E-02    0.955E-02
RMM:  15    -0.294976729488E+03    0.94660E-03    0.95216E-03   240   0.446E-02    0.108E-01
RMM:  16    -0.294975847550E+03    0.88194E-03    0.77836E-03   250   0.440E-02    0.114E-01
RMM:  17    -0.294975051178E+03    0.79637E-03    0.72417E-03   265   0.431E-02    0.122E-01
RMM:  18    -0.294974343088E+03    0.70809E-03    0.62986E-03   265   0.429E-02    0.128E-01
RMM:  19    -0.294973893527E+03    0.44956E-03    0.45236E-03   232   0.406E-02    0.139E-01
RMM:  20    -0.294973395419E+03    0.49811E-03    0.51161E-03   236   0.388E-02    0.149E-01
RMM:  21    -0.294972866226E+03    0.52919E-03    0.46478E-03   240   0.380E-02    0.157E-01
RMM:  22    -0.294972486872E+03    0.37935E-03    0.37579E-03   230   0.363E-02    0.165E-01
RMM:  23    -0.294972155023E+03    0.33185E-03    0.33676E-03   229   0.352E-02    0.175E-01
RMM:  24    -0.294971832890E+03    0.32213E-03    0.32351E-03   221   0.336E-02    0.183E-01
RMM:  25    -0.294971559606E+03    0.27328E-03    0.26393E-03   207   0.323E-02    0.191E-01
RMM:  26    -0.294971303367E+03    0.25624E-03    0.26235E-03   200   0.313E-02    0.198E-01
RMM:  27    -0.294971135684E+03    0.16768E-03    0.18374E-03   186   0.303E-02    0.207E-01
RMM:  28    -0.294970881804E+03    0.25388E-03    0.24376E-03   188   0.296E-02    0.213E-01
RMM:  29    -0.294970755287E+03    0.12652E-03    0.12623E-03   181   0.287E-02    0.220E-01
RMM:  30    -0.294970481413E+03    0.27387E-03    0.23398E-03   198   0.282E-02    0.226E-01
RMM:  31    -0.294970343837E+03    0.13758E-03    0.93499E-04   219   0.279E-02    0.232E-01
RMM:  32    -0.294969950625E+03    0.39321E-03    0.25624E-03   262   0.293E-02    0.233E-01
RMM:  33    -0.294969905311E+03    0.45314E-04    0.70224E-05   256   0.294E-02
    9 T=   961. E= -.28986420E+03 F= -.29496991E+03 E0= -.29489736E+03  EK= 0.78268E+01 SP= -.62E+01 SK= 0.35E+01
Information: wavefunction orthogonal band  167  0.8769
 bond charge predicted
 prediction of wavefunctions
       N       E                     dE             d eps       ncg     rms          rms(c)
RMM:   1    -0.296027722700E+03   -0.10578E+01   -0.54703E-01   488   0.882E-01    0.140E+00
RMM:   2    -0.295873871906E+03    0.15385E+00   -0.30507E-01   480   0.669E-01    0.747E-01
RMM:   3    -0.295831834886E+03    0.42037E-01    0.82464E-02   551   0.464E-01    0.374E-01
RMM:   4    -0.295816394623E+03    0.15440E-01    0.12958E-01   560   0.192E-01    0.187E-01
RMM:   5    -0.295813661892E+03    0.27327E-02    0.19174E-02   537   0.114E-01    0.836E-02
RMM:   6    -0.295810306665E+03    0.33552E-02    0.32055E-02   530   0.737E-02    0.538E-02
RMM:   7    -0.295809683385E+03    0.62328E-03    0.52727E-03   419   0.587E-02    0.337E-02
RMM:   8    -0.295807323593E+03    0.23598E-02    0.23119E-02   396   0.543E-02    0.238E-02
RMM:   9    -0.295806740049E+03    0.58354E-03    0.55495E-03   330   0.480E-02    0.211E-02
RMM:  10    -0.295804881457E+03    0.18586E-02    0.18343E-02   326   0.455E-02    0.201E-02
RMM:  11    -0.295804466407E+03    0.41505E-03    0.40583E-03   283   0.412E-02    0.277E-02
RMM:  12    -0.295803710118E+03    0.75629E-03    0.84406E-03   268   0.395E-02    0.495E-02
RMM:  13    -0.295802059264E+03    0.16509E-02    0.15037E-02   343   0.437E-02    0.425E-02
RMM:  14    -0.295801899367E+03    0.15990E-03    0.18743E-03   284   0.380E-02    0.506E-02
RMM:  15    -0.295800388866E+03    0.15105E-02    0.14650E-02   259   0.345E-02    0.603E-02
RMM:  16    -0.295800199632E+03    0.18923E-03    0.16566E-03   250   0.331E-02    0.621E-02
RMM:  17    -0.295798963690E+03    0.12359E-02    0.12126E-02   249   0.328E-02    0.738E-02
RMM:  18    -0.295798834278E+03    0.12941E-03    0.13296E-03   240   0.307E-02    0.780E-02
RMM:  19    -0.295797822500E+03    0.10118E-02    0.10119E-02   235   0.300E-02    0.905E-02
RMM:  20    -0.295797443083E+03    0.37942E-03    0.29708E-03   252   0.303E-02    0.886E-02
RMM:  21    -0.295796677576E+03    0.76551E-03    0.74842E-03   257   0.294E-02    0.980E-02
RMM:  22    -0.295796361667E+03    0.31591E-03    0.30872E-03   247   0.288E-02    0.103E-01
RMM:  23    -0.295795709624E+03    0.65204E-03    0.62735E-03   237   0.273E-02    0.111E-01
RMM:  24    -0.295795751022E+03   -0.41398E-04    0.80709E-04   275   0.295E-02
   10 T=  1231. E= -.28986928E+03 F= -.29579575E+03 E0= -.29572730E+03  EK= 0.10023E+02 SP= -.88E+01 SK= 0.47E+01
Information: wavefunction orthogonal band  165  0.8565
Information: wavefunction orthogonal band  166  0.8781
Information: wavefunction orthogonal band  168  0.8814
 bond charge predicted
 prediction of wavefunctions
       N       E                     dE             d eps       ncg     rms          rms(c)
RMM:   1    -0.296667270682E+03   -0.87156E+00   -0.39386E-01   506   0.869E-01    0.117E+00
RMM:   2    -0.296534000130E+03    0.13327E+00    0.70792E-02   466   0.574E-01    0.648E-01
RMM:   3    -0.296500634499E+03    0.33366E-01    0.11789E-01   548   0.370E-01    0.381E-01
RMM:   4    -0.296481596432E+03    0.19038E-01    0.15442E-01   556   0.197E-01    0.183E-01
RMM:   5    -0.296476301052E+03    0.52954E-02    0.41534E-02   542   0.132E-01    0.879E-02
RMM:   6    -0.296470285298E+03    0.60158E-02    0.58160E-02   545   0.859E-02    0.618E-02
RMM:   7    -0.296468635539E+03    0.16498E-02    0.15070E-02   414   0.641E-02    0.529E-02
RMM:   8    -0.296465071874E+03    0.35637E-02    0.34732E-02   366   0.570E-02    0.614E-02
RMM:   9    -0.296464755927E+03    0.31595E-03    0.51016E-03   334   0.541E-02    0.917E-02
RMM:  10    -0.296460251158E+03    0.45048E-02    0.38634E-02   427   0.765E-02    0.525E-02
RMM:  11    -0.296459171417E+03    0.10797E-02    0.95827E-03   413   0.562E-02    0.513E-02
RMM:  12    -0.296456469468E+03    0.27019E-02    0.26229E-02   338   0.498E-02    0.603E-02
RMM:  13    -0.296455563915E+03    0.90555E-03    0.89359E-03   280   0.434E-02    0.741E-02
RMM:  14    -0.296453665043E+03    0.18989E-02    0.19020E-02   247   0.407E-02    0.903E-02
RMM:  15    -0.296452093249E+03    0.15718E-02    0.12794E-02   355   0.481E-02    0.807E-02
RMM:  16    -0.296450443530E+03    0.16497E-02    0.15295E-02   351   0.440E-02    0.869E-02
RMM:  17    -0.296449342258E+03    0.11013E-02    0.10842E-02   272   0.391E-02    0.978E-02
RMM:  18    -0.296448216699E+03    0.11256E-02    0.11397E-02   243   0.365E-02    0.111E-01
RMM:  19    -0.296447139930E+03    0.10768E-02    0.10515E-02   242   0.354E-02    0.121E-01
RMM:  20    -0.296445771509E+03    0.13684E-02    0.11625E-02   285   0.384E-02    0.124E-01
RMM:  21    -0.296444725289E+03    0.10462E-02    0.96655E-03   301   0.365E-02    0.131E-01
RMM:  22    -0.296443699893E+03    0.10254E-02    0.95531E-03   300   0.358E-02    0.139E-01
RMM:  23    -0.296442811974E+03    0.88792E-03    0.87008E-03   251   0.330E-02    0.149E-01
RMM:  24    -0.296442108015E+03    0.70396E-03    0.71382E-03   230   0.308E-02    0.159E-01
RMM:  25    -0.296441048607E+03    0.10594E-02    0.93535E-03   266   0.315E-02    0.165E-01
RMM:  26    -0.296440485327E+03    0.56328E-03    0.53289E-03   237   0.292E-02    0.172E-01
RMM:  27    -0.296439599841E+03    0.88549E-03    0.87639E-03   230   0.284E-02    0.182E-01
RMM:  28    -0.296439136815E+03    0.46303E-03    0.46287E-03   231   0.267E-02    0.189E-01
RMM:  29    -0.296438352997E+03    0.78382E-03    0.78887E-03   220   0.257E-02    0.200E-01
RMM:  30    -0.296437936835E+03    0.41616E-03    0.41230E-03   212   0.248E-02    0.206E-01
RMM:  31    -0.296437194869E+03    0.74197E-03    0.72385E-03   220   0.243E-02    0.215E-01
RMM:  32    -0.296436968482E+03    0.22639E-03    0.29664E-03   209   0.233E-02    0.222E-01
RMM:  33    -0.296436134646E+03    0.83384E-03    0.77196E-03   204   0.228E-02    0.232E-01
RMM:  34    -0.296435933108E+03    0.20154E-03    0.21722E-03   196   0.220E-02    0.237E-01
RMM:  35    -0.296434972326E+03    0.96078E-03    0.79968E-03   250   0.235E-02    0.243E-01
RMM:  36    -0.296434836984E+03    0.13534E-03    0.13758E-03   229   0.219E-02    0.248E-01
RMM:  37    -0.296433980785E+03    0.85620E-03    0.78529E-03   248   0.233E-02    0.256E-01
RMM:  38    -0.296434159117E+03   -0.17833E-03   -0.90338E-05   247   0.224E-02    0.262E-01
RMM:  39    -0.296433463107E+03    0.69601E-03    0.77349E-03   240   0.221E-02    0.274E-01
RMM:  40    -0.296433386234E+03    0.76874E-04    0.18764E-04   212   0.198E-02
   11 T=  1552. E= -.28985068E+03 F= -.29643339E+03 E0= -.29636989E+03  EK= 0.12642E+02 SP= -.12E+02 SK= 0.55E+01
 bond charge predicted
 prediction of wavefunctions
       N       E                     dE             d eps       ncg     rms          rms(c)
RMM:   1    -0.296640329191E+03   -0.20687E+00   -0.53120E-01   468   0.971E-01    0.110E+00
RMM:   2    -0.296552654594E+03    0.87675E-01   -0.97919E-02   504   0.547E-01    0.536E-01
RMM:   3    -0.296530827154E+03    0.21827E-01    0.75809E-02   547   0.313E-01    0.287E-01
RMM:   4    -0.296523221507E+03    0.76056E-02    0.58565E-02   563   0.155E-01    0.160E-01
RMM:   5    -0.296519189993E+03    0.40315E-02    0.33977E-02   547   0.108E-01    0.776E-02
RMM:   6    -0.296517295436E+03    0.18946E-02    0.16821E-02   534   0.775E-02    0.481E-02
RMM:   7    -0.296515713515E+03    0.15819E-02    0.14956E-02   476   0.628E-02    0.436E-02
RMM:   8    -0.296514717742E+03    0.99577E-03    0.91940E-03   384   0.536E-02    0.434E-02
RMM:   9    -0.296514204936E+03    0.51281E-03    0.58678E-03   317   0.460E-02    0.742E-02
RMM:  10    -0.296513278991E+03    0.92595E-03    0.71290E-03   387   0.495E-02    0.644E-02
RMM:  11    -0.296512785745E+03    0.49325E-03    0.34578E-03   386   0.475E-02    0.637E-02
RMM:  12    -0.296512104006E+03    0.68174E-03    0.59634E-03   309   0.409E-02    0.626E-02
RMM:  13    -0.296511964110E+03    0.13990E-03    0.12222E-03   262   0.361E-02    0.718E-02
RMM:  14    -0.296511585110E+03    0.37900E-03    0.33524E-03   267   0.366E-02    0.709E-02
RMM:  15    -0.296511274508E+03    0.31060E-03    0.23823E-03   272   0.353E-02    0.749E-02
RMM:  16    -0.296511221462E+03    0.53046E-04    0.80923E-04   245   0.332E-02
   12 T=  1885. E= -.28979028E+03 F= -.29651122E+03 E0= -.29644624E+03  EK= 0.15354E+02 SP= -.15E+02 SK= 0.59E+01
Information: wavefunction orthogonal band   25  0.8954
 bond charge predicted
 prediction of wavefunctions
       N       E                     dE             d eps       ncg     rms          rms(c)
RMM:   1    -0.296379910165E+03    0.13136E+00   -0.69232E-01   508   0.115E+00    0.216E+00
RMM:   2    -0.296042047014E+03    0.33786E+00   -0.10422E+00   452   0.103E+00    0.115E+00
RMM:   3    -0.295986367040E+03    0.55680E-01    0.17474E-02   541   0.605E-01    0.657E-01
RMM:   4    -0.295968215123E+03    0.18152E-01    0.12888E-01   559   0.250E-01    0.270E-01
RMM:   5    -0.295965597802E+03    0.26173E-02    0.15979E-02   548   0.129E-01    0.101E-01
RMM:   6    -0.295962392497E+03    0.32053E-02    0.28913E-02   503   0.836E-02    0.550E-02
RMM:   7    -0.295962591758E+03   -0.19926E-03   -0.26322E-03   436   0.643E-02    0.401E-02
RMM:   8    -0.295960446002E+03    0.21458E-02    0.20945E-02   347   0.569E-02    0.302E-02
RMM:   9    -0.295960237282E+03    0.20872E-03    0.16268E-03   389   0.568E-02    0.226E-02
RMM:  10    -0.295958760623E+03    0.14767E-02    0.14496E-02   331   0.515E-02    0.219E-02
RMM:  11    -0.295958329000E+03    0.43162E-03    0.39888E-03   339   0.509E-02    0.194E-02
RMM:  12    -0.295957056118E+03    0.12729E-02    0.12465E-02   366   0.511E-02    0.157E-02
RMM:  13    -0.295956558109E+03    0.49801E-03    0.48442E-03   365   0.504E-02    0.905E-03
RMM:  14    -0.295955476550E+03    0.10816E-02    0.10818E-02   371   0.496E-02    0.753E-03
RMM:  15    -0.295955408438E+03    0.68111E-04    0.67350E-04   286   0.428E-02
   13 T=  2195. E= -.28981206E+03 F= -.29595541E+03 E0= -.29589074E+03  EK= 0.17873E+02 SP= -.18E+02 SK= 0.58E+01
Information: wavefunction orthogonal band  163  0.8971
 bond charge predicted
 prediction of wavefunctions
       N       E                     dE             d eps       ncg     rms          rms(c)
RMM:   1    -0.294760281315E+03    0.11952E+01   -0.84450E-01   478   0.113E+00    0.116E+00
RMM:   2    -0.294626467933E+03    0.13381E+00   -0.68292E-02   488   0.625E-01    0.602E-01
RMM:   3    -0.294608578143E+03    0.17890E-01    0.17153E-02   541   0.347E-01    0.351E-01
RMM:   4    -0.294596010418E+03    0.12568E-01    0.10054E-01   546   0.167E-01    0.162E-01
RMM:   5    -0.294595098534E+03    0.91188E-03    0.13612E-03   540   0.105E-01    0.747E-02
RMM:   6    -0.294591699650E+03    0.33989E-02    0.32380E-02   494   0.746E-02    0.517E-02
RMM:   7    -0.294591820889E+03   -0.12124E-03   -0.23625E-03   459   0.644E-02    0.294E-02
RMM:   8    -0.294589798272E+03    0.20226E-02    0.19869E-02   335   0.559E-02    0.325E-02
RMM:   9    -0.294589500547E+03    0.29772E-03    0.22702E-03   397   0.572E-02    0.189E-02
RMM:  10    -0.294587504491E+03    0.19961E-02    0.19749E-02   382   0.563E-02    0.202E-02
RMM:  11    -0.294587632708E+03   -0.12822E-03   -0.15250E-03   337   0.511E-02    0.134E-02
RMM:  12    -0.294585935476E+03    0.16972E-02    0.16857E-02   330   0.485E-02    0.215E-02
RMM:  13    -0.294587508922E+03   -0.15734E-02   -0.14929E-02   291   0.451E-02    0.387E-02
RMM:  14    -0.294584635211E+03    0.28737E-02    0.28229E-02   305   0.432E-02    0.509E-02
RMM:  15    -0.294586333690E+03   -0.16985E-02   -0.16786E-02   237   0.389E-02    0.527E-02
RMM:  16    -0.294584046764E+03    0.22869E-02    0.22815E-02   224   0.375E-02    0.726E-02
RMM:  17    -0.294585154569E+03   -0.11078E-02   -0.11451E-02   247   0.367E-02    0.715E-02
RMM:  18    -0.294583458423E+03    0.16961E-02    0.17042E-02   258   0.371E-02    0.876E-02
RMM:  19    -0.294584339554E+03   -0.88113E-03   -0.88042E-03   240   0.349E-02    0.901E-02
RMM:  20    -0.294582756779E+03    0.15828E-02    0.15332E-02   243   0.348E-02    0.103E-01
RMM:  21    -0.294583576534E+03   -0.81976E-03   -0.81207E-03   236   0.332E-02    0.104E-01
RMM:  22    -0.294582244685E+03    0.13318E-02    0.13099E-02   234   0.323E-02    0.118E-01
RMM:  23    -0.294582891933E+03   -0.64725E-03   -0.65235E-03   229   0.312E-02    0.120E-01
RMM:  24    -0.294581799090E+03    0.10928E-02    0.10814E-02   233   0.303E-02    0.132E-01
RMM:  25    -0.294582290608E+03   -0.49152E-03   -0.50297E-03   233   0.296E-02    0.134E-01
RMM:  26    -0.294581417557E+03    0.87305E-03    0.87117E-03   226   0.284E-02    0.146E-01
RMM:  27    -0.294581813608E+03   -0.39605E-03   -0.39265E-03   210   0.272E-02    0.148E-01
RMM:  28    -0.294581091538E+03    0.72207E-03    0.72212E-03   202   0.265E-02    0.159E-01
RMM:  29    -0.294581445645E+03   -0.35411E-03   -0.33473E-03   196   0.255E-02    0.162E-01
RMM:  30    -0.294580737954E+03    0.70769E-03    0.67229E-03   199   0.252E-02    0.172E-01
RMM:  31    -0.294581071874E+03   -0.33392E-03   -0.32061E-03   185   0.242E-02    0.173E-01
RMM:  32    -0.294580458454E+03    0.61342E-03    0.60136E-03   182   0.235E-02    0.184E-01
RMM:  33    -0.294580716784E+03   -0.25833E-03   -0.26513E-03   178   0.229E-02    0.185E-01
RMM:  34    -0.294580234164E+03    0.48262E-03    0.49206E-03   168   0.223E-02    0.195E-01
RMM:  35    -0.294580407750E+03   -0.17359E-03   -0.19308E-03   184   0.218E-02    0.196E-01
RMM:  36    -0.294580024080E+03    0.38367E-03    0.39496E-03   182   0.212E-02    0.205E-01
RMM:  37    -0.294580166611E+03   -0.14253E-03   -0.14629E-03   162   0.201E-02    0.207E-01
RMM:  38    -0.294579833250E+03    0.33336E-03    0.33488E-03   153   0.194E-02    0.215E-01
RMM:  39    -0.294579929335E+03   -0.96085E-04   -0.10909E-03   166   0.191E-02    0.216E-01
RMM:  40    -0.294579655673E+03    0.27366E-03    0.27450E-03   159   0.186E-02    0.223E-01
RMM:  41    -0.294579723052E+03   -0.67380E-04   -0.77819E-04   167   0.182E-02
   14 T=  2446. E= -.28982188E+03 F= -.29457972E+03 E0= -.29451874E+03  EK= 0.19917E+02 SP= -.20E+02 SK= 0.53E+01
Information: wavefunction orthogonal band  167  0.8826
 bond charge predicted
 prediction of wavefunctions
       N       E                     dE             d eps       ncg     rms          rms(c)
RMM:   1    -0.292478298709E+03    0.21014E+01   -0.13264E+00   452   0.124E+00    0.782E-01
RMM:   2    -0.292414684675E+03    0.63614E-01    0.85683E-02   532   0.518E-01    0.410E-01
RMM:   3    -0.292398508119E+03    0.16177E-01    0.75676E-02   542   0.259E-01    0.254E-01
RMM:   4    -0.292386349031E+03    0.12159E-01    0.99832E-02   552   0.152E-01    0.155E-01
RMM:   5    -0.292380946300E+03    0.54027E-02    0.45030E-02   525   0.118E-01    0.922E-02
RMM:   6    -0.292374669538E+03    0.62768E-02    0.58224E-02   514   0.970E-02    0.572E-02
RMM:   7    -0.292371906120E+03    0.27634E-02    0.25693E-02   507   0.834E-02    0.400E-02
RMM:   8    -0.292367705926E+03    0.42002E-02    0.40920E-02   485   0.776E-02    0.275E-02
RMM:   9    -0.292366237416E+03    0.14685E-02    0.14127E-02   492   0.654E-02    0.198E-02
RMM:  10    -0.292363801864E+03    0.24356E-02    0.24070E-02   405   0.573E-02    0.237E-02
RMM:  11    -0.292363799446E+03    0.24180E-05    0.24501E-04   281   0.463E-02
   15 T=  2610. E= -.28977944E+03 F= -.29236380E+03 E0= -.29230416E+03  EK= 0.21254E+02 SP= -.23E+02 SK= 0.45E+01
 bond charge predicted
 prediction of wavefunctions
       N       E                     dE             d eps       ncg     rms          rms(c)
RMM:   1    -0.289869142692E+03    0.24947E+01   -0.39338E-01   496   0.137E+00    0.178E+00
RMM:   2    -0.289613547762E+03    0.25559E+00   -0.56772E-01   477   0.920E-01    0.840E-01
RMM:   3    -0.289562115048E+03    0.51433E-01    0.18927E-01   553   0.486E-01    0.462E-01
RMM:   4    -0.289540317033E+03    0.21798E-01    0.16252E-01   550   0.240E-01    0.250E-01
RMM:   5    -0.289529037599E+03    0.11279E-01    0.89733E-02   522   0.167E-01    0.132E-01
RMM:   6    -0.289524940806E+03    0.40968E-02    0.35822E-02   549   0.119E-01    0.754E-02
RMM:   7    -0.289521676919E+03    0.32639E-02    0.31068E-02   489   0.883E-02    0.457E-02
RMM:   8    -0.289520199405E+03    0.14775E-02    0.13917E-02   481   0.804E-02    0.265E-02
RMM:   9    -0.289518655743E+03    0.15437E-02    0.15139E-02   349   0.687E-02    0.242E-02
RMM:  10    -0.289518003749E+03    0.65199E-03    0.63195E-03   307   0.639E-02    0.293E-02
RMM:  11    -0.289518195196E+03   -0.19145E-03   -0.11136E-03   280   0.598E-02    0.524E-02
RMM:  12    -0.289515092331E+03    0.31029E-02    0.29303E-02   415   0.660E-02    0.439E-02
RMM:  13    -0.289515769745E+03   -0.67741E-03   -0.71619E-03   310   0.582E-02    0.504E-02
RMM:  14    -0.289513141759E+03    0.26280E-02    0.25340E-02   314   0.590E-02    0.534E-02
RMM:  15    -0.289514613534E+03   -0.14718E-02   -0.13934E-02   278   0.545E-02    0.692E-02
RMM:  16    -0.289512137279E+03    0.24763E-02    0.24351E-02   250   0.524E-02    0.821E-02
RMM:  17    -0.289513048015E+03   -0.91074E-03   -0.92972E-03   239   0.500E-02    0.884E-02
RMM:  18    -0.289511115558E+03    0.19325E-02    0.19217E-02   234   0.487E-02    0.104E-01
RMM:  19    -0.289511737383E+03   -0.62182E-03   -0.60756E-03   232   0.467E-02    0.113E-01
RMM:  20    -0.289510029566E+03    0.17078E-02    0.16492E-02   232   0.461E-02    0.125E-01
RMM:  21    -0.289510544257E+03   -0.51469E-03   -0.51113E-03   226   0.450E-02    0.133E-01
RMM:  22    -0.289509152622E+03    0.13916E-02    0.13779E-02   237   0.441E-02    0.147E-01
RMM:  23    -0.289509469198E+03   -0.31658E-03   -0.32848E-03   243   0.429E-02    0.154E-01
RMM:  24    -0.289508197307E+03    0.12719E-02    0.12340E-02   249   0.416E-02    0.167E-01
RMM:  25    -0.289508514427E+03   -0.31712E-03   -0.31600E-03   227   0.399E-02    0.175E-01
RMM:  26    -0.289507550791E+03    0.96364E-03    0.97301E-03   208   0.384E-02    0.188E-01
RMM:  27    -0.289507367641E+03    0.18315E-03    0.53609E-04   241   0.385E-02    0.193E-01
RMM:  28    -0.289506730446E+03    0.63720E-03    0.63770E-03   219   0.371E-02    0.204E-01
RMM:  29    -0.289506671500E+03    0.58945E-04    0.73885E-04   216   0.363E-02
   16 T=  2679. E= -.28970460E+03 F= -.28950667E+03 E0= -.28944845E+03  EK= 0.21817E+02 SP= -.26E+02 SK= 0.36E+01
 bond charge predicted
 prediction of wavefunctions
       N       E                     dE             d eps       ncg     rms          rms(c)
RMM:   1    -0.286803649539E+03    0.27031E+01   -0.14437E+00   492   0.164E+00    0.139E+00
RMM:   2    -0.286591352150E+03    0.21230E+00    0.17938E-01   513   0.804E-01    0.716E-01
RMM:   3    -0.286525002969E+03    0.66349E-01    0.41169E-01   558   0.423E-01    0.430E-01
RMM:   4    -0.286480448603E+03    0.44554E-01    0.38319E-01   540   0.251E-01    0.259E-01
RMM:   5    -0.286455042350E+03    0.25406E-01    0.22341E-01   542   0.182E-01    0.206E-01
RMM:   6    -0.286438409763E+03    0.16633E-01    0.14143E-01   525   0.178E-01    0.122E-01
RMM:   7    -0.286427413322E+03    0.10996E-01    0.10469E-01   560   0.152E-01    0.502E-02
RMM:   8    -0.286424727460E+03    0.26859E-02    0.25813E-02   492   0.932E-02    0.498E-02
RMM:   9    -0.286418547991E+03    0.61795E-02    0.60973E-02   301   0.742E-02    0.656E-02
RMM:  10    -0.286414373525E+03    0.41745E-02    0.39372E-02   475   0.837E-02    0.564E-02
RMM:  11    -0.286413402017E+03    0.97151E-03    0.11063E-02   310   0.698E-02    0.866E-02
RMM:  12    -0.286405478850E+03    0.79232E-02    0.75489E-02   430   0.805E-02    0.791E-02
RMM:  13    -0.286404326940E+03    0.11519E-02    0.95118E-03   411   0.737E-02    0.743E-02
RMM:  14    -0.286397584760E+03    0.67422E-02    0.65066E-02   435   0.762E-02    0.777E-02
RMM:  15    -0.286397284578E+03    0.30018E-03    0.23670E-03   314   0.646E-02    0.842E-02
RMM:  16    -0.286393385512E+03    0.38991E-02    0.39126E-02   261   0.593E-02    0.106E-01
RMM:  17    -0.286390751221E+03    0.26343E-02    0.23454E-02   369   0.650E-02    0.103E-01
RMM:  18    -0.286388880517E+03    0.18707E-02    0.18721E-02   277   0.574E-02    0.120E-01
RMM:  19    -0.286387250692E+03    0.16298E-02    0.17080E-02   254   0.534E-02    0.138E-01
RMM:  20    -0.286385093825E+03    0.21569E-02    0.20831E-02   245   0.514E-02    0.152E-01
RMM:  21    -0.286383855363E+03    0.12385E-02    0.12620E-02   240   0.499E-02    0.165E-01
RMM:  22    -0.286381994521E+03    0.18608E-02    0.18597E-02   236   0.483E-02    0.180E-01
RMM:  23    -0.286380854873E+03    0.11396E-02    0.11492E-02   218   0.464E-02    0.193E-01
RMM:  24    -0.286379283543E+03    0.15713E-02    0.15742E-02   217   0.449E-02    0.207E-01
RMM:  25    -0.286378335557E+03    0.94799E-03    0.99040E-03   196   0.432E-02    0.220E-01
RMM:  26    -0.286376369651E+03    0.19659E-02    0.17471E-02   264   0.444E-02    0.229E-01
RMM:  27    -0.286374995248E+03    0.13744E-02    0.10703E-02   312   0.469E-02    0.233E-01
RMM:  28    -0.286372360282E+03    0.26350E-02    0.20517E-02   397   0.510E-02    0.232E-01
RMM:  29    -0.286371386891E+03    0.97339E-03    0.70396E-03   313   0.468E-02    0.235E-01
RMM:  30    -0.286369789257E+03    0.15976E-02    0.14659E-02   321   0.444E-02    0.244E-01
RMM:  31    -0.286369247443E+03    0.54181E-03    0.50876E-03   269   0.420E-02    0.251E-01
RMM:  32    -0.286368377252E+03    0.87019E-03    0.99445E-03   265   0.413E-02    0.262E-01
RMM:  33    -0.286367691460E+03    0.68579E-03    0.69421E-03   260   0.406E-02    0.271E-01
RMM:  34    -0.286366402872E+03    0.12886E-02    0.11439E-02   261   0.395E-02    0.280E-01
RMM:  35    -0.286365885043E+03    0.51783E-03    0.50668E-03   249   0.369E-02    0.289E-01
RMM:  36    -0.286365088464E+03    0.79658E-03    0.83586E-03   240   0.355E-02    0.301E-01
RMM:  37    -0.286364412858E+03    0.67561E-03    0.60315E-03   236   0.337E-02    0.308E-01
RMM:  38    -0.286363848251E+03    0.56461E-03    0.60467E-03   233   0.324E-02    0.318E-01
RMM:  39    -0.286363347664E+03    0.50059E-03    0.53326E-03   225   0.312E-02    0.327E-01
RMM:  40    -0.286362753701E+03    0.59396E-03    0.57741E-03   210   0.298E-02    0.336E-01
RMM:  41    -0.286362316377E+03    0.43732E-03    0.44211E-03   211   0.294E-02    0.344E-01
RMM:  42    -0.286361666336E+03    0.65004E-03    0.56439E-03   212   0.284E-02    0.351E-01
RMM:  43    -0.286361378093E+03    0.28824E-03    0.31167E-03   212   0.279E-02    0.359E-01
RMM:  44    -0.286360863828E+03    0.51427E-03    0.51611E-03   201   0.271E-02    0.367E-01
RMM:  45    -0.286360477346E+03    0.38648E-03    0.32366E-03   194   0.262E-02    0.373E-01
RMM:  46    -0.286360042694E+03    0.43465E-03    0.41525E-03   199   0.259E-02    0.381E-01
RMM:  47    -0.286359966645E+03    0.76048E-04    0.20463E-03   196   0.250E-02    0.388E-01
RMM:  48    -0.286359585192E+03    0.38145E-03    0.40634E-03   195   0.244E-02    0.397E-01
RMM:  49    -0.286359389363E+03    0.19583E-03    0.19462E-03   187   0.236E-02    0.402E-01
RMM:  50    -0.286359026820E+03    0.36254E-03    0.36092E-03   183   0.229E-02    0.410E-01
RMM:  51    -0.286358860770E+03    0.16605E-03    0.16683E-03   177   0.222E-02    0.415E-01
RMM:  52    -0.286358276326E+03    0.58444E-03    0.35982E-03   242   0.237E-02    0.419E-01
RMM:  53    -0.286358137519E+03    0.13881E-03    0.12689E-03   213   0.226E-02    0.424E-01
RMM:  54    -0.286357822098E+03    0.31542E-03    0.30516E-03   210   0.222E-02    0.431E-01
RMM:  55    -0.286357763033E+03    0.59064E-04    0.97263E-04   197   0.210E-02
   17 T=  2683. E= -.28953703E+03 F= -.28635776E+03 E0= -.28630338E+03  EK= 0.21852E+02 SP= -.28E+02 SK= 0.28E+01
Information: wavefunction orthogonal band   24  0.8190
Information: wavefunction orthogonal band  167  0.8846
 bond charge predicted
 prediction of wavefunctions
       N       E                     dE             d eps       ncg     rms          rms(c)
RMM:   1    -0.284386136976E+03    0.19717E+01   -0.11930E+00   493   0.172E+00    0.262E+00
RMM:   2    -0.283828218386E+03    0.55792E+00   -0.95298E-01   462   0.130E+00    0.119E+00
RMM:   3    -0.283710867135E+03    0.11735E+00    0.58305E-01   549   0.642E-01    0.670E-01
RMM:   4    -0.283664622688E+03    0.46244E-01    0.34010E-01   551   0.324E-01    0.343E-01
RMM:   5    -0.283646725667E+03    0.17897E-01    0.14800E-01   535   0.198E-01    0.155E-01
RMM:   6    -0.283641857884E+03    0.48678E-02    0.43205E-02   559   0.128E-01    0.758E-02
RMM:   7    -0.283639109395E+03    0.27485E-02    0.26325E-02   500   0.924E-02    0.449E-02
RMM:   8    -0.283636317395E+03    0.27920E-02    0.27129E-02   394   0.805E-02    0.418E-02
RMM:   9    -0.283634812019E+03    0.15054E-02    0.14672E-02   338   0.723E-02    0.567E-02
RMM:  10    -0.283634659244E+03    0.15277E-03    0.30730E-03   283   0.671E-02    0.857E-02
RMM:  11    -0.283631865248E+03    0.27940E-02    0.26632E-02   297   0.634E-02    0.101E-01
RMM:  12    -0.283632065890E+03   -0.20064E-03   -0.16146E-03   268   0.601E-02    0.118E-01
RMM:  13    -0.283630776961E+03    0.12889E-02    0.14189E-02   245   0.576E-02    0.142E-01
RMM:  14    -0.283630009528E+03    0.76743E-03    0.67465E-03   278   0.572E-02    0.154E-01
RMM:  15    -0.283629329741E+03    0.67979E-03    0.79360E-03   342   0.586E-02    0.176E-01
RMM:  16    -0.283630796942E+03   -0.14672E-02   -0.56670E-03   468   0.703E-02    0.210E-01
RMM:  17    -0.283630143531E+03    0.65341E-03    0.96250E-03   325   0.545E-02    0.236E-01
RMM:  18    -0.283629182870E+03    0.96066E-03    0.48184E-03   261   0.496E-02    0.242E-01
RMM:  19    -0.283628833170E+03    0.34970E-03    0.32703E-03   232   0.464E-02    0.256E-01
RMM:  20    -0.283627966516E+03    0.86665E-03    0.59716E-03   240   0.454E-02    0.265E-01
RMM:  21    -0.283627857507E+03    0.10901E-03    0.49820E-04   253   0.453E-02    0.276E-01
RMM:  22    -0.283628200186E+03   -0.34268E-03   -0.39033E-04   325   0.504E-02    0.292E-01
RMM:  23    -0.283630072695E+03   -0.18725E-02   -0.63677E-03   392   0.524E-02    0.320E-01
RMM:  24    -0.283629191497E+03    0.88120E-03    0.77958E-03   280   0.444E-02    0.334E-01
RMM:  25    -0.283629548295E+03   -0.35680E-03   -0.45383E-03   226   0.391E-02    0.343E-01
RMM:  26    -0.283629337876E+03    0.21042E-03    0.36803E-03   220   0.377E-02    0.357E-01
RMM:  27    -0.283629705156E+03   -0.36728E-03   -0.32852E-03   214   0.362E-02    0.366E-01
RMM:  28    -0.283629498573E+03    0.20658E-03    0.23038E-03   209   0.351E-02    0.377E-01
RMM:  29    -0.283629586189E+03   -0.87615E-04   -0.21762E-03   207   0.340E-02    0.385E-01
RMM:  30    -0.283626356494E+03    0.32297E-02    0.87530E-03   388   0.504E-02    0.365E-01
RMM:  31    -0.283625456206E+03    0.90029E-03   -0.41007E-03   464   0.479E-02    0.352E-01
RMM:  32    -0.283625428273E+03    0.27934E-04    0.29840E-03   283   0.361E-02    0.368E-01
RMM:  33    -0.283626052917E+03   -0.62464E-03   -0.35134E-03   250   0.339E-02    0.378E-01
RMM:  34    -0.283626720541E+03   -0.66762E-03   -0.16868E-04   273   0.354E-02    0.395E-01
RMM:  35    -0.283628964443E+03   -0.22439E-02   -0.66927E-03   400   0.422E-02    0.419E-01
RMM:  36    -0.283629740288E+03   -0.77584E-03    0.58460E-04   332   0.367E-02    0.437E-01
RMM:  37    -0.283630144644E+03   -0.40436E-03   -0.27861E-03   265   0.314E-02    0.444E-01
RMM:  38    -0.283630068861E+03    0.75783E-04   -0.19888E-04   235   0.294E-02
   18 T=  2678. E= -.28949293E+03 F= -.28363007E+03 E0= -.28357529E+03  EK= 0.21808E+02 SP= -.30E+02 SK= 0.22E+01
 bond charge predicted
 prediction of wavefunctions
       N       E                     dE             d eps       ncg     rms          rms(c)
RMM:   1    -0.281847179753E+03    0.17830E+01   -0.10385E+00   467   0.150E+00    0.212E+00
RMM:   2    -0.281519159670E+03    0.32802E+00   -0.72416E-01   473   0.999E-01    0.101E+00
RMM:   3    -0.281458291098E+03    0.60869E-01    0.13260E-01   550   0.538E-01    0.541E-01
RMM:   4    -0.281445547915E+03    0.12743E-01    0.54648E-02   561   0.269E-01    0.240E-01
RMM:   5    -0.281439376351E+03    0.61716E-02    0.53226E-02   565   0.137E-01    0.114E-01
RMM:   6    -0.281437692019E+03    0.16843E-02    0.13958E-02   517   0.893E-02    0.631E-02
RMM:   7    -0.281435559462E+03    0.21326E-02    0.19349E-02   472   0.682E-02    0.603E-02
RMM:   8    -0.281434582538E+03    0.97692E-03    0.78620E-03   443   0.622E-02    0.615E-02
RMM:   9    -0.281433944810E+03    0.63773E-03    0.78683E-03   299   0.497E-02    0.984E-02
RMM:  10    -0.281433461994E+03    0.48282E-03    0.32371E-04   411   0.573E-02    0.879E-02
RMM:  11    -0.281431872824E+03    0.15892E-02    0.13530E-02   358   0.516E-02    0.105E-01
RMM:  12    -0.281431432026E+03    0.44080E-03    0.11185E-03   391   0.513E-02    0.106E-01
RMM:  13    -0.281430682259E+03    0.74977E-03    0.77231E-03   288   0.429E-02    0.136E-01
RMM:  14    -0.281430796270E+03   -0.11401E-03   -0.10496E-03   245   0.390E-02    0.152E-01
RMM:  15    -0.281430099422E+03    0.69685E-03    0.44357E-03   262   0.393E-02    0.168E-01
RMM:  16    -0.281430630015E+03   -0.53059E-03   -0.38911E-03   255   0.373E-02    0.186E-01
RMM:  17    -0.281430613541E+03    0.16474E-04    0.13353E-03   242   0.366E-02    0.209E-01
RMM:  18    -0.281431481739E+03   -0.86820E-03   -0.52843E-03   254   0.362E-02    0.229E-01
RMM:  19    -0.281431441718E+03    0.40021E-04   -0.44365E-04   252   0.342E-02
   19 T=  2697. E= -.28942198E+03 F= -.28143144E+03 E0= -.28137287E+03  EK= 0.21963E+02 SP= -.32E+02 SK= 0.16E+01
Information: wavefunction orthogonal band   40  0.8212
 bond charge predicted
 prediction of wavefunctions
       N       E                     dE             d eps       ncg     rms          rms(c)
RMM:   1    -0.280410437050E+03    0.10210E+01   -0.81364E-01   504   0.146E+00    0.236E+00
RMM:   2    -0.279966202962E+03    0.44423E+00   -0.11062E+00   447   0.113E+00    0.110E+00
RMM:   3    -0.279899586003E+03    0.66617E-01    0.17883E-01   553   0.567E-01    0.605E-01
RMM:   4    -0.279882346335E+03    0.17240E-01    0.80292E-02   549   0.285E-01    0.255E-01
RMM:   5    -0.279876640895E+03    0.57054E-02    0.49196E-02   569   0.151E-01    0.121E-01
RMM:   6    -0.279873145702E+03    0.34952E-02    0.30465E-02   520   0.953E-02    0.101E-01
RMM:   7    -0.279871990793E+03    0.11549E-02    0.70495E-03   468   0.798E-02    0.988E-02
RMM:   8    -0.279870034225E+03    0.19566E-02    0.16307E-02   414   0.715E-02    0.118E-01
RMM:   9    -0.279877004283E+03   -0.69701E-02   -0.45561E-02   435   0.100E-01    0.218E-01
RMM:  10    -0.279867582564E+03    0.94217E-02    0.56501E-02   421   0.107E-01    0.175E-01
RMM:  11    -0.279867630353E+03   -0.47789E-04   -0.14150E-02   519   0.845E-02    0.160E-01
RMM:  12    -0.279860753106E+03    0.68772E-02    0.43882E-02   442   0.117E-01    0.847E-02
RMM:  13    -0.279858332565E+03    0.24205E-02    0.17998E-02   538   0.951E-02    0.704E-02
RMM:  14    -0.279853834954E+03    0.44976E-02    0.39974E-02   490   0.896E-02    0.382E-02
RMM:  15    -0.279850862331E+03    0.29726E-02    0.28301E-02   525   0.795E-02    0.464E-02
RMM:  16    -0.279848423511E+03    0.24388E-02    0.23872E-02   326   0.550E-02    0.759E-02
RMM:  17    -0.279849539086E+03   -0.11156E-02   -0.60972E-03   345   0.569E-02    0.137E-01
RMM:  18    -0.279847546516E+03    0.19926E-02    0.17017E-02   278   0.476E-02    0.157E-01
RMM:  19    -0.279848088938E+03   -0.54242E-03   -0.57673E-03   236   0.445E-02    0.183E-01
RMM:  20    -0.279847569664E+03    0.51927E-03    0.62032E-03   231   0.424E-02    0.209E-01
RMM:  21    -0.279848217038E+03   -0.64737E-03   -0.66200E-03   216   0.401E-02    0.229E-01
RMM:  22    -0.279848116317E+03    0.10072E-03    0.12790E-03   213   0.391E-02    0.250E-01
RMM:  23    -0.279848850155E+03   -0.73384E-03   -0.73832E-03   208   0.374E-02    0.267E-01
RMM:  24    -0.279849380255E+03   -0.53010E-03   -0.26854E-03   245   0.373E-02    0.288E-01
RMM:  25    -0.279849067301E+03    0.31295E-03   -0.37434E-03   255   0.382E-02    0.292E-01
RMM:  26    -0.279847789817E+03    0.12775E-02    0.52297E-04   389   0.454E-02    0.282E-01
RMM:  27    -0.279848009008E+03   -0.21919E-03   -0.59218E-03   327   0.406E-02    0.291E-01
RMM:  28    -0.279847226504E+03    0.78250E-03    0.12363E-04   327   0.416E-02    0.289E-01
RMM:  29    -0.279847484033E+03   -0.25753E-03   -0.62443E-03   346   0.395E-02    0.296E-01
RMM:  30    -0.279847232061E+03    0.25197E-03   -0.14648E-03   322   0.373E-02    0.301E-01
RMM:  31    -0.279847980031E+03   -0.74797E-03   -0.74824E-03   263   0.342E-02    0.310E-01
RMM:  32    -0.279848594255E+03   -0.61422E-03   -0.37659E-03   249   0.337E-02    0.326E-01
RMM:  33    -0.279849544830E+03   -0.95057E-03   -0.75851E-03   246   0.330E-02    0.335E-01
RMM:  34    -0.279849718440E+03   -0.17361E-03   -0.34088E-03   241   0.313E-02    0.345E-01
RMM:  35    -0.279850332248E+03   -0.61381E-03   -0.68512E-03   234   0.299E-02    0.350E-01
RMM:  36    -0.279850799854E+03   -0.46761E-03   -0.46223E-03   230   0.287E-02    0.359E-01
RMM:  37    -0.279851467864E+03   -0.66801E-03   -0.65386E-03   244   0.284E-02    0.364E-01
RMM:  38    -0.279851814241E+03   -0.34638E-03   -0.44866E-03   247   0.281E-02    0.372E-01
RMM:  39    -0.279852426214E+03   -0.61197E-03   -0.63211E-03   239   0.273E-02    0.377E-01
RMM:  40    -0.279852894965E+03   -0.46875E-03   -0.48156E-03   220   0.261E-02    0.384E-01
RMM:  41    -0.279853506755E+03   -0.61179E-03   -0.61142E-03   214   0.253E-02    0.388E-01
RMM:  42    -0.279853982885E+03   -0.47613E-03   -0.48871E-03   208   0.246E-02    0.394E-01
RMM:  43    -0.279854612926E+03   -0.63004E-03   -0.59470E-03   202   0.237E-02    0.399E-01
RMM:  44    -0.279855156266E+03   -0.54334E-03   -0.49428E-03   199   0.231E-02    0.405E-01
RMM:  45    -0.279855689614E+03   -0.53335E-03   -0.56629E-03   179   0.224E-02    0.409E-01
RMM:  46    -0.279856063474E+03   -0.37386E-03   -0.47356E-03   173   0.220E-02    0.413E-01
[...]
RMM:   3    -0.274483220576E+03    0.44474E-01    0.14799E-01   545   0.403E-01    0.559E-01
RMM:   4    -0.274476321189E+03    0.68994E-02   -0.85927E-02   514   0.255E-01    0.307E-01
RMM:   5    -0.274467689730E+03    0.86315E-02    0.53199E-02   551   0.181E-01    0.131E-01
RMM:   6    -0.274468041824E+03   -0.35209E-03   -0.65991E-03   546   0.103E-01    0.911E-02
RMM:   7    -0.274465520439E+03    0.25214E-02    0.22022E-02   451   0.807E-02    0.632E-02
RMM:   8    -0.274466591567E+03   -0.10711E-02   -0.12635E-02   458   0.756E-02    0.583E-02
RMM:   9    -0.274465031201E+03    0.15604E-02    0.13536E-02   461   0.800E-02    0.272E-02
RMM:  10    -0.274466326627E+03   -0.12954E-02   -0.13190E-02   396   0.684E-02    0.217E-02
RMM:  11    -0.274465511892E+03    0.81474E-03    0.79215E-03   338   0.629E-02    0.198E-02
RMM:  12    -0.274466649777E+03   -0.11379E-02   -0.11513E-02   304   0.580E-02    0.331E-02
RMM:  13    -0.274466277215E+03    0.37256E-03    0.39262E-03   255   0.540E-02    0.504E-02
RMM:  14    -0.274467156627E+03   -0.87941E-03   -0.92476E-03   253   0.532E-02    0.570E-02
RMM:  15    -0.274466983575E+03    0.17305E-03    0.17203E-03   250   0.510E-02    0.729E-02
RMM:  16    -0.274467871874E+03   -0.88830E-03   -0.81990E-03   236   0.489E-02    0.882E-02
RMM:  17    -0.274468086297E+03   -0.21442E-03   -0.39469E-04   263   0.497E-02    0.110E-01
RMM:  18    -0.274468684749E+03   -0.59845E-03   -0.52645E-03   239   0.472E-02    0.123E-01
RMM:  19    -0.274468727686E+03   -0.42938E-04   -0.40511E-04   225   0.455E-02
   25 T=  2552. E= -.28915803E+03 F= -.27446873E+03 E0= -.27441727E+03  EK= 0.20779E+02 SP= -.35E+02 SK= 0.25E-01
 bond charge predicted
 prediction of wavefunctions
       N       E                     dE             d eps       ncg     rms          rms(c)
RMM:   1    -0.273650887304E+03    0.81780E+00    0.53683E-01   467   0.138E+00    0.855E-01
RMM:   2    -0.273657040506E+03   -0.61532E-02    0.75428E-02   530   0.503E-01    0.446E-01
RMM:   3    -0.273629352511E+03    0.27688E-01    0.18595E-01   560   0.239E-01    0.332E-01
RMM:   4    -0.273620524969E+03    0.88275E-02    0.37984E-02   512   0.181E-01    0.194E-01
RMM:   5    -0.273613403612E+03    0.71214E-02    0.61633E-02   554   0.123E-01    0.114E-01
RMM:   6    -0.273612142791E+03    0.12608E-02    0.87169E-03   522   0.953E-02    0.548E-02
RMM:   7    -0.273610304399E+03    0.18384E-02    0.17773E-02   501   0.733E-02    0.334E-02
RMM:   8    -0.273610420513E+03   -0.11611E-03   -0.15121E-03   344   0.597E-02    0.249E-02
RMM:   9    -0.273608837041E+03    0.15835E-02    0.15537E-02   348   0.583E-02    0.218E-02
RMM:  10    -0.273608761853E+03    0.75188E-04    0.46704E-04   352   0.566E-02
   26 T=  2418. E= -.28902257E+03 F= -.27360876E+03 E0= -.27355324E+03  EK= 0.19690E+02 SP= -.35E+02 SK= 0.98E-01
 bond charge predicted
 prediction of wavefunctions
       N       E                     dE             d eps       ncg     rms          rms(c)
RMM:   1    -0.273366992682E+03    0.24184E+00    0.17763E-01   512   0.128E+00    0.163E+00
RMM:   2    -0.273180843918E+03    0.18615E+00   -0.67273E-01   450   0.857E-01    0.761E-01
RMM:   3    -0.273144622859E+03    0.36221E-01    0.16118E-01   560   0.442E-01    0.430E-01
RMM:   4    -0.273141903086E+03    0.27198E-02   -0.10139E-02   557   0.230E-01    0.211E-01
RMM:   5    -0.273139125761E+03    0.27773E-02    0.22696E-02   552   0.148E-01    0.897E-02
RMM:   6    -0.273144474697E+03   -0.53489E-02   -0.55201E-02   501   0.113E-01    0.487E-02
RMM:   7    -0.273146469361E+03   -0.19947E-02   -0.20898E-02   458   0.102E-01    0.382E-02
RMM:   8    -0.273152131595E+03   -0.56622E-02   -0.57208E-02   352   0.921E-02    0.409E-02
RMM:   9    -0.273157725073E+03   -0.55935E-02   -0.54174E-02   325   0.875E-02    0.804E-02
RMM:  10    -0.273158380854E+03   -0.65578E-03   -0.10606E-02   447   0.929E-02    0.612E-02
RMM:  11    -0.273162843691E+03   -0.44628E-02   -0.45963E-02   326   0.822E-02    0.666E-02
RMM:  12    -0.273164853773E+03   -0.20101E-02   -0.21105E-02   334   0.789E-02    0.742E-02
RMM:  13    -0.273168915355E+03   -0.40616E-02   -0.40393E-02   263   0.730E-02    0.928E-02
RMM:  14    -0.273171204614E+03   -0.22893E-02   -0.23040E-02   239   0.703E-02    0.107E-01
RMM:  15    -0.273174698784E+03   -0.34942E-02   -0.34327E-02   234   0.671E-02    0.126E-01
RMM:  16    -0.273176492173E+03   -0.17934E-02   -0.18944E-02   244   0.662E-02    0.137E-01
RMM:  17    -0.273179719433E+03   -0.32273E-02   -0.31514E-02   250   0.641E-02    0.154E-01
RMM:  18    -0.273181981672E+03   -0.22622E-02   -0.21138E-02   248   0.647E-02    0.173E-01
RMM:  19    -0.273185317841E+03   -0.33362E-02   -0.30040E-02   280   0.659E-02    0.197E-01
RMM:  20    -0.273187547382E+03   -0.22295E-02   -0.19811E-02   275   0.632E-02    0.216E-01
RMM:  21    -0.273189978656E+03   -0.24313E-02   -0.23185E-02   259   0.615E-02    0.232E-01
RMM:  22    -0.273191965161E+03   -0.19865E-02   -0.18733E-02   233   0.593E-02    0.248E-01
RMM:  23    -0.273194085621E+03   -0.21205E-02   -0.20082E-02   238   0.578E-02    0.263E-01
RMM:  24    -0.273195400820E+03   -0.13152E-02   -0.14571E-02   218   0.552E-02    0.273E-01
RMM:  25    -0.273198885822E+03   -0.34850E-02   -0.26110E-02   354   0.622E-02    0.302E-01
RMM:  26    -0.273200438315E+03   -0.15525E-02   -0.11050E-02   330   0.583E-02    0.323E-01
RMM:  27    -0.273202431753E+03   -0.19934E-02   -0.18910E-02   258   0.536E-02    0.335E-01
RMM:  28    -0.273203335738E+03   -0.90399E-03   -0.96579E-03   248   0.525E-02    0.345E-01
RMM:  29    -0.273204966542E+03   -0.16308E-02   -0.16233E-02   244   0.519E-02    0.356E-01
RMM:  30    -0.273205688904E+03   -0.72236E-03   -0.88596E-03   250   0.501E-02    0.364E-01
RMM:  31    -0.273207239677E+03   -0.15508E-02   -0.15180E-02   240   0.486E-02    0.374E-01
RMM:  32    -0.273208211261E+03   -0.97158E-03   -0.95173E-03   228   0.465E-02    0.384E-01
RMM:  33    -0.273209529031E+03   -0.13178E-02   -0.13396E-02   225   0.453E-02    0.393E-01
RMM:  34    -0.273210450403E+03   -0.92137E-03   -0.86971E-03   223   0.439E-02    0.403E-01
RMM:  35    -0.273211856448E+03   -0.14060E-02   -0.13353E-02   224   0.425E-02    0.413E-01
RMM:  36    -0.273212480221E+03   -0.62377E-03   -0.67553E-03   211   0.414E-02    0.421E-01
RMM:  37    -0.273213625027E+03   -0.11448E-02   -0.12601E-02   205   0.403E-02    0.429E-01
RMM:  38    -0.273213178409E+03    0.44662E-03   -0.42492E-03   255   0.444E-02    0.426E-01
RMM:  39    -0.273212759195E+03    0.41921E-03   -0.11079E-02   438   0.554E-02    0.415E-01
RMM:  40    -0.273213413101E+03   -0.65391E-03   -0.64793E-03   303   0.422E-02    0.422E-01
RMM:  41    -0.273214423935E+03   -0.10108E-02   -0.10737E-02   285   0.401E-02    0.431E-01
RMM:  42    -0.273214800220E+03   -0.37628E-03   -0.55696E-03   255   0.394E-02    0.435E-01
RMM:  43    -0.273215891061E+03   -0.10908E-02   -0.10826E-02   239   0.380E-02    0.445E-01
RMM:  44    -0.273216421219E+03   -0.53016E-03   -0.52490E-03   232   0.363E-02    0.452E-01
RMM:  45    -0.273217484376E+03   -0.10632E-02   -0.10231E-02   235   0.356E-02    0.461E-01
RMM:  46    -0.273218041187E+03   -0.55681E-03   -0.54241E-03   234   0.343E-02    0.468E-01
RMM:  47    -0.273218856547E+03   -0.81536E-03   -0.87900E-03   237   0.337E-02    0.475E-01
RMM:  48    -0.273219370290E+03   -0.51374E-03   -0.52468E-03   216   0.324E-02    0.482E-01
RMM:  49    -0.273220190090E+03   -0.81980E-03   -0.82157E-03   214   0.314E-02    0.489E-01
RMM:  50    -0.273220673103E+03   -0.48301E-03   -0.50202E-03   209   0.307E-02    0.495E-01
RMM:  51    -0.273221443818E+03   -0.77072E-03   -0.75881E-03   206   0.298E-02    0.503E-01
RMM:  52    -0.273222570000E+03   -0.11262E-02   -0.65466E-03   225   0.298E-02    0.514E-01
RMM:  53    -0.273223148813E+03   -0.57881E-03   -0.58093E-03   216   0.291E-02    0.520E-01
RMM:  54    -0.273223663241E+03   -0.51443E-03   -0.58004E-03   210   0.282E-02    0.526E-01
RMM:  55    -0.273224234163E+03   -0.57092E-03   -0.56820E-03   195   0.272E-02    0.532E-01
RMM:  56    -0.273224789035E+03   -0.55487E-03   -0.54234E-03   193   0.267E-02    0.539E-01
RMM:  57    -0.273223873642E+03    0.91539E-03   -0.90397E-03   418   0.550E-02    0.529E-01
RMM:  58    -0.273223942685E+03   -0.69043E-04    0.58816E-03   328   0.348E-02    0.536E-01
RMM:  59    -0.273224532578E+03   -0.58989E-03    0.13372E-02   265   0.305E-02    0.542E-01
RMM:  60    -0.273224907586E+03   -0.37501E-03   -0.14566E-03   247   0.276E-02
   27 T=  2305. E= -.28901112E+03 F= -.27322491E+03 E0= -.27316665E+03  EK= 0.18774E+02 SP= -.35E+02 SK= 0.18E+00
 bond charge predicted
 prediction of wavefunctions
       N       E                     dE             d eps       ncg     rms          rms(c)
RMM:   1    -0.273357642613E+03   -0.13311E+00   -0.12313E+00   490   0.129E+00    0.164E+00
RMM:   2    -0.273165712797E+03    0.19193E+00   -0.38898E-01   464   0.896E-01    0.829E-01
RMM:   3    -0.273137956044E+03    0.27757E-01    0.20682E-01   548   0.422E-01    0.486E-01
RMM:   4    -0.273124377799E+03    0.13578E-01    0.66091E-02   557   0.235E-01    0.289E-01
RMM:   5    -0.273119623525E+03    0.47543E-02    0.29746E-02   541   0.164E-01    0.132E-01
RMM:   6    -0.273117330223E+03    0.22933E-02    0.19153E-02   544   0.107E-01    0.748E-02
RMM:   7    -0.273115830489E+03    0.14997E-02    0.13667E-02   424   0.810E-02    0.507E-02
RMM:   8    -0.273114854478E+03    0.97601E-03    0.89072E-03   406   0.751E-02    0.324E-02
RMM:   9    -0.273113727773E+03    0.11267E-02    0.11020E-02   343   0.693E-02    0.356E-02
RMM:  10    -0.273112747646E+03    0.98013E-03    0.93225E-03   319   0.667E-02    0.247E-02
RMM:  11    -0.273111034575E+03    0.17131E-02    0.16953E-02   418   0.693E-02    0.247E-02
RMM:  12    -0.273111005820E+03    0.28756E-04    0.18833E-04   328   0.623E-02
   28 T=  2211. E= -.28900572E+03 F= -.27311101E+03 E0= -.27305195E+03  EK= 0.18003E+02 SP= -.34E+02 SK= 0.26E+00
 bond charge predicted
 prediction of wavefunctions
       N       E                     dE             d eps       ncg     rms          rms(c)
RMM:   1    -0.273346398171E+03   -0.23536E+00    0.89010E+00   489   0.136E+00    0.190E+00
RMM:   2    -0.273102404164E+03    0.24399E+00    0.11928E-01   463   0.103E+00    0.925E-01
RMM:   3    -0.273028595871E+03    0.73808E-01    0.43524E-01   537   0.476E-01    0.590E-01
RMM:   4    -0.273014259140E+03    0.14337E-01    0.16181E-03   517   0.309E-01    0.342E-01
RMM:   5    -0.272999498483E+03    0.14761E-01    0.11724E-01   558   0.199E-01    0.209E-01
RMM:   6    -0.272994762566E+03    0.47359E-02    0.32548E-02   525   0.162E-01    0.109E-01
RMM:   7    -0.272993157186E+03    0.16054E-02    0.12913E-02   552   0.124E-01    0.625E-02
RMM:   8    -0.272993342702E+03   -0.18552E-03   -0.30094E-03   493   0.950E-02    0.419E-02
RMM:   9    -0.272993849095E+03   -0.50639E-03   -0.56022E-03   369   0.839E-02    0.378E-02
RMM:  10    -0.272995127142E+03   -0.12780E-02   -0.13001E-02   332   0.778E-02    0.499E-02
RMM:  11    -0.272998176025E+03   -0.30489E-02   -0.28674E-02   292   0.746E-02    0.795E-02
RMM:  12    -0.272997682246E+03    0.49378E-03    0.39781E-03   301   0.702E-02    0.930E-02
RMM:  13    -0.273000305891E+03   -0.26236E-02   -0.25913E-02   268   0.671E-02    0.108E-01
RMM:  14    -0.273000647376E+03   -0.34149E-03   -0.29680E-03   235   0.641E-02    0.129E-01
RMM:  15    -0.273002349190E+03   -0.17018E-02   -0.17072E-02   256   0.635E-02    0.142E-01
RMM:  16    -0.273003264470E+03   -0.91528E-03   -0.82216E-03   323   0.666E-02    0.163E-01
RMM:  17    -0.273005260451E+03   -0.19960E-02   -0.16587E-02   438   0.703E-02    0.187E-01
RMM:  18    -0.273004512528E+03    0.74792E-03    0.30853E-03   303   0.623E-02    0.193E-01
RMM:  19    -0.273004276046E+03    0.23648E-03   -0.52623E-03   413   0.669E-02    0.180E-01
RMM:  20    -0.273004828842E+03   -0.55280E-03   -0.70884E-03   286   0.577E-02    0.190E-01
RMM:  21    -0.273005890160E+03   -0.10613E-02   -0.91593E-03   238   0.529E-02    0.204E-01
RMM:  22    -0.273003592694E+03    0.22975E-02    0.11687E-02   434   0.711E-02    0.186E-01
RMM:  23    -0.273003675348E+03   -0.82654E-04   -0.73349E-03   439   0.641E-02    0.173E-01
RMM:  24    -0.273001071723E+03    0.26036E-02    0.16754E-02   478   0.718E-02    0.153E-01
RMM:  25    -0.273002027191E+03   -0.95547E-03   -0.12093E-02   364   0.560E-02    0.150E-01
RMM:  26    -0.273001041224E+03    0.98597E-03    0.80685E-03   338   0.521E-02    0.154E-01
RMM:  27    -0.273002354280E+03   -0.13131E-02   -0.10181E-02   276   0.476E-02    0.163E-01
RMM:  28    -0.273002255661E+03    0.98619E-04    0.20660E-02   240   0.457E-02    0.176E-01
RMM:  29    -0.273001912047E+03    0.34361E-03    0.59823E-03   228   0.424E-02    0.185E-01
RMM:  30    -0.273002528360E+03   -0.61631E-03   -0.82680E-03   267   0.428E-02    0.191E-01
RMM:  31    -0.273002835631E+03   -0.30727E-03   -0.19781E-03   243   0.402E-02    0.201E-01
RMM:  32    -0.273003889761E+03   -0.10541E-02   -0.77338E-03   255   0.403E-02    0.221E-01
RMM:  33    -0.273003347649E+03    0.54211E-03    0.32691E-03   236   0.379E-02    0.223E-01
RMM:  34    -0.273004297738E+03   -0.95009E-03   -0.87790E-03   233   0.365E-02    0.235E-01
RMM:  35    -0.273004473266E+03   -0.17553E-03    0.42774E-04   239   0.366E-02    0.248E-01
RMM:  36    -0.273004047118E+03    0.42615E-03   -0.52991E-04   250   0.371E-02    0.248E-01
RMM:  37    -0.273003399131E+03    0.64799E-03    0.15898E-03   325   0.397E-02    0.242E-01
RMM:  38    -0.273003741590E+03   -0.34246E-03   -0.40973E-03   271   0.362E-02    0.250E-01
RMM:  39    -0.273003374308E+03    0.36728E-03    0.21083E-03   244   0.350E-02    0.253E-01
RMM:  40    -0.273003794193E+03   -0.41989E-03   -0.46602E-03   254   0.333E-02    0.260E-01
RMM:  41    -0.273003606059E+03    0.18813E-03    0.17457E-03   238   0.326E-02    0.266E-01
RMM:  42    -0.273004129223E+03   -0.52316E-03   -0.48411E-03   225   0.304E-02    0.274E-01
RMM:  43    -0.273003647559E+03    0.48166E-03    0.31219E-03   260   0.313E-02    0.277E-01
RMM:  44    -0.273004655859E+03   -0.10083E-02   -0.72852E-03   235   0.293E-02    0.288E-01
RMM:  45    -0.273004184968E+03    0.47089E-03    0.43248E-03   222   0.281E-02    0.295E-01
RMM:  46    -0.273004872832E+03   -0.68786E-03   -0.65381E-03   216   0.273E-02    0.301E-01
RMM:  47    -0.273004423380E+03    0.44945E-03    0.54806E-03   268   0.301E-02    0.299E-01
RMM:  48    -0.273004500925E+03   -0.77545E-04    0.39619E-02   265   0.296E-02    0.303E-01
RMM:  49    -0.273003848931E+03    0.65199E-03    0.69803E-03   239   0.267E-02    0.311E-01
RMM:  50    -0.273004841404E+03   -0.99247E-03   -0.93357E-03   219   0.244E-02    0.318E-01
RMM:  51    -0.273004807069E+03    0.34336E-04    0.40356E-03   238   0.246E-02    0.329E-01
RMM:  52    -0.273009186064E+03   -0.43790E-02   -0.17746E-02   399   0.449E-02    0.382E-01
RMM:  53    -0.273008374836E+03    0.81123E-03    0.10192E-02   314   0.295E-02    0.393E-01
RMM:  54    -0.273008787357E+03   -0.41252E-03   -0.95775E-03   248   0.250E-02    0.391E-01
RMM:  55    -0.273006846614E+03    0.19407E-02    0.85402E-03   292   0.301E-02    0.382E-01
RMM:  56    -0.273006008012E+03    0.83860E-03   -0.53998E-03   364   0.316E-02    0.363E-01
RMM:  57    -0.273010368660E+03   -0.43606E-02   -0.29403E-03   465   0.549E-02    0.423E-01
RMM:  58    -0.273010808039E+03   -0.43938E-03    0.12095E-03   327   0.296E-02    0.439E-01
RMM:  59    -0.273012668497E+03   -0.18605E-02   -0.76688E-03   357   0.290E-02    0.459E-01
RMM:  60    -0.273012502318E+03    0.16618E-03    0.30856E-03   281   0.237E-02
   29 T=  2108. E= -.28901530E+03 F= -.27301250E+03 E0= -.27295129E+03  EK= 0.17165E+02 SP= -.33E+02 SK= 0.32E+00
 bond charge predicted
 prediction of wavefunctions
       N       E                     dE             d eps       ncg     rms          rms(c)
RMM:   1    -0.272911060970E+03    0.10161E+00   -0.63787E-01   519   0.134E+00    0.155E+00
RMM:   2    -0.272672615360E+03    0.23845E+00    0.42953E+00   495   0.105E+00    0.825E-01
RMM:   3    -0.272716676826E+03   -0.44061E-01    0.31881E-01   548   0.445E-01    0.485E-01
RMM:   4    -0.272711717357E+03    0.49595E-02   -0.28599E-02   549   0.223E-01    0.319E-01
RMM:   5    -0.272699680051E+03    0.12037E-01    0.87585E-02   525   0.168E-01    0.169E-01
RMM:   6    -0.272703138907E+03   -0.34589E-02   -0.43469E-02   535   0.121E-01    0.936E-02
RMM:   7    -0.272699227506E+03    0.39114E-02    0.37042E-02   511   0.935E-02    0.608E-02
RMM:   8    -0.272702188116E+03   -0.29606E-02   -0.31113E-02   460   0.814E-02    0.402E-02
RMM:   9    -0.272699786591E+03    0.24015E-02    0.23533E-02   433   0.749E-02    0.391E-02
RMM:  10    -0.272702238102E+03   -0.24515E-02   -0.25112E-02   336   0.684E-02    0.305E-02
RMM:  11    -0.272701519266E+03    0.71884E-03    0.71679E-03   287   0.617E-02    0.505E-02
RMM:  12    -0.272705087258E+03   -0.35680E-02   -0.33967E-02   270   0.592E-02    0.709E-02
RMM:  13    -0.272704326972E+03    0.76029E-03    0.82737E-03   278   0.558E-02    0.948E-02
RMM:  14    -0.272706164774E+03   -0.18378E-02   -0.19549E-02   253   0.527E-02    0.964E-02
RMM:  15    -0.272706374024E+03   -0.20925E-03   -0.14962E-03   240   0.501E-02    0.115E-01
RMM:  16    -0.272707941826E+03   -0.15678E-02   -0.15455E-02   239   0.486E-02    0.125E-01
RMM:  17    -0.272706747052E+03    0.11948E-02    0.78052E-03   319   0.554E-02    0.122E-01
RMM:  18    -0.272707495486E+03   -0.74843E-03   -0.11284E-02   417   0.567E-02    0.108E-01
RMM:  19    -0.272707678995E+03   -0.18351E-03   -0.22562E-03   287   0.480E-02    0.120E-01
RMM:  20    -0.272708720129E+03   -0.10411E-02   -0.10327E-02   244   0.443E-02    0.126E-01
RMM:  21    -0.272709176818E+03   -0.45669E-03   -0.42108E-03   231   0.421E-02    0.138E-01
RMM:  22    -0.272710064109E+03   -0.88729E-03   -0.87768E-03   236   0.411E-02    0.144E-01
RMM:  23    -0.272710825152E+03   -0.76104E-03   -0.56344E-03   225   0.395E-02    0.155E-01
RMM:  24    -0.272711437389E+03   -0.61224E-03    0.29116E-02   226   0.395E-02    0.161E-01
RMM:  25    -0.272711684705E+03   -0.24732E-03    0.15372E-01   223   0.425E-02    0.173E-01
RMM:  26    -0.272712377607E+03   -0.69290E-03   -0.51216E-03   204   0.351E-02    0.181E-01
RMM:  27    -0.272712838858E+03   -0.46125E-03   -0.48779E-03   205   0.340E-02    0.189E-01
RMM:  28    -0.272713437414E+03   -0.59856E-03   -0.59885E-03   199   0.327E-02    0.196E-01
RMM:  29    -0.272713909988E+03   -0.47257E-03   -0.45909E-03   203   0.318E-02    0.204E-01
RMM:  30    -0.272714494298E+03   -0.58431E-03   -0.55934E-03   181   0.307E-02    0.210E-01
RMM:  31    -0.272714902503E+03   -0.40821E-03   -0.40193E-03   181   0.298E-02    0.218E-01
RMM:  32    -0.272715399564E+03   -0.49706E-03   -0.49668E-03   171   0.289E-02    0.223E-01
RMM:  33    -0.272715814384E+03   -0.41482E-03   -0.39447E-03   175   0.281E-02    0.230E-01
RMM:  34    -0.272716272575E+03   -0.45819E-03   -0.44478E-03   167   0.272E-02    0.235E-01
RMM:  35    -0.272716654636E+03   -0.38206E-03   -0.37609E-03   171   0.267E-02    0.241E-01
RMM:  36    -0.272717176779E+03   -0.52214E-03   -0.43750E-03   174   0.263E-02    0.246E-01
RMM:  37    -0.272717482746E+03   -0.30597E-03    0.61517E-02   174   0.271E-02    0.252E-01
RMM:  38    -0.272717485480E+03   -0.27343E-05    0.88092E-02   168   0.290E-02    0.257E-01
RMM:  39    -0.272718200253E+03   -0.71477E-03   -0.66584E-03   158   0.234E-02    0.264E-01
RMM:  40    -0.272718273406E+03   -0.73152E-04   -0.67267E-04   151   0.230E-02
   30 T=  1984. E= -.28899037E+03 F= -.27271827E+03 E0= -.27265238E+03  EK= 0.16157E+02 SP= -.33E+02 SK= 0.34E+00
 bond charge predicted
 prediction of wavefunctions
 wavefunctions rotated
 writing wavefunctions
