 vasp.5.4.4.18Apr17-6-g9f103f2a35 (build Jan 05 2022 20:33:25) complex          
  
 POSCAR found type information on POSCAR  Te Mo
 02/POSCAR found :  2 types and       6 ions
 scaLAPACK will be used
 LDA part: xc-table for Pade appr. of Perdew
 POSCAR found type information on POSCAR  Te Mo
 00/POSCAR found :  2 types and       6 ions
 POSCAR found type information on POSCAR  Te Mo
 04/POSCAR found :  2 types and       6 ions
 Jacobian:    11.4521530763955     
 POSCAR, INCAR and KPOINTS ok, starting setup
 FFT: planning ...
 WAVECAR not read
 entering main loop
       N       E                     dE             d eps       ncg     rms          rms(c)
DAV:   1     0.268512269160E+03    0.26851E+03   -0.11428E+04  3264   0.116E+03
DAV:   2     0.299877009161E+01   -0.26551E+03   -0.25776E+03  5272   0.183E+02
DAV:   3    -0.329444383702E+02   -0.35943E+02   -0.35446E+02  4328   0.763E+01
DAV:   4    -0.344492385750E+02   -0.15048E+01   -0.14929E+01  5088   0.191E+01
DAV:   5    -0.344779198961E+02   -0.28681E-01   -0.28650E-01  4768   0.277E+00    0.227E+01
DAV:   6    -0.336139278969E+02    0.86399E+00   -0.34276E+00  4608   0.919E+00    0.103E+01
DAV:   7    -0.342033447939E+02   -0.58942E+00   -0.89402E+00  4480   0.138E+01    0.792E+00
DAV:   8    -0.334961842711E+02    0.70716E+00   -0.10437E+01  4608   0.104E+01    0.458E+00
DAV:   9    -0.332213326176E+02    0.27485E+00   -0.21800E+00  4536   0.533E+00    0.159E+00
DAV:  10    -0.332113591404E+02    0.99735E-02   -0.10181E-01  4136   0.159E+00    0.736E-01
DAV:  11    -0.332102104662E+02    0.11487E-02   -0.13804E-02  4152   0.658E-01    0.571E-01
DAV:  12    -0.332088696653E+02    0.13408E-02   -0.35342E-03  4384   0.284E-01    0.167E-01
DAV:  13    -0.332084888421E+02    0.38082E-03   -0.17524E-03  4768   0.202E-01    0.494E-02
DAV:  14    -0.332084019695E+02    0.86873E-04   -0.29425E-04  4096   0.783E-02    0.649E-02
DAV:  15    -0.332083757977E+02    0.26172E-04   -0.15439E-04  4480   0.452E-02    0.420E-02
DAV:  16    -0.332084473030E+02   -0.71505E-04   -0.72944E-05  4080   0.346E-02    0.275E-02
DAV:  17    -0.332085341965E+02   -0.86894E-04   -0.23250E-05  4120   0.216E-02    0.177E-02
DAV:  18    -0.332086464368E+02   -0.11224E-03   -0.30600E-05  3768   0.202E-02    0.582E-03
DAV:  19    -0.332087316558E+02   -0.85219E-04   -0.78657E-06  4000   0.117E-02    0.445E-03
DAV:  20    -0.332088011521E+02   -0.69496E-04   -0.44365E-06  3328   0.968E-03    0.424E-03
DAV:  21    -0.332088283487E+02   -0.27197E-04   -0.52099E-07  3144   0.363E-03    0.221E-03
DAV:  22    -0.332088555231E+02   -0.27174E-04   -0.68766E-07  2888   0.273E-03    0.976E-04
DAV:  23    -0.332088653982E+02   -0.98751E-05   -0.13081E-07  2416   0.123E-03    0.957E-04
DAV:  24    -0.332088759935E+02   -0.10595E-04   -0.32401E-07  2736   0.134E-03    0.445E-04
DAV:  25    -0.332088779228E+02   -0.19292E-05   -0.40476E-08  1896   0.614E-04    0.363E-04
DAV:  26    -0.332088803661E+02   -0.24433E-05   -0.58025E-08  2072   0.602E-04    0.122E-04
DAV:  27    -0.332088810099E+02   -0.64382E-06   -0.20269E-08  1672   0.344E-04
   1 F= -.33208881E+02 E0= -.33199269E+02  d E =-.332089E+02
quench:  g(F)=  0.000E+00 g(S)=  0.000E+00 dE (1.order)= 0.000E+00
 bond charge predicted
       N       E                     dE             d eps       ncg     rms          rms(c)
DAV:   1    -0.334929265491E+02   -0.28405E+00   -0.63299E+00  3264   0.123E+01    0.114E+00
DAV:   2    -0.335051920403E+02   -0.12265E-01   -0.18146E-01  4424   0.199E+00    0.884E-01
DAV:   3    -0.335113796327E+02   -0.61876E-02   -0.22461E-01  4912   0.175E+00    0.935E-01
DAV:   4    -0.334991764125E+02    0.12203E-01   -0.12886E-01  4784   0.124E+00    0.405E-01
DAV:   5    -0.334980359951E+02    0.11404E-02   -0.83933E-03  4352   0.364E-01    0.223E-01
DAV:   6    -0.334977776844E+02    0.25831E-03   -0.18066E-03  4320   0.219E-01    0.543E-02
DAV:   7    -0.334977653761E+02    0.12308E-04   -0.17195E-04  4200   0.775E-02    0.273E-02
DAV:   8    -0.334977653692E+02    0.69663E-08   -0.24063E-05  4968   0.233E-02    0.212E-02
DAV:   9    -0.334977642055E+02    0.11637E-05   -0.67843E-06  3904   0.128E-02    0.120E-02
DAV:  10    -0.334977630145E+02    0.11910E-05   -0.53839E-06  3016   0.109E-02    0.323E-03
DAV:  11    -0.334977631566E+02   -0.14216E-06   -0.75364E-07  1976   0.503E-03
   2 F= -.33497763E+02 E0= -.33487686E+02  d E =-.288882E+00
quench:  g(F)=  0.000E+00 g(S)=  0.000E+00 dE (1.order)= 0.000E+00
 bond charge predicted
       N       E                     dE             d eps       ncg     rms          rms(c)
DAV:   1    -0.337848002824E+02   -0.28704E+00   -0.17438E+01  3264   0.203E+01    0.184E+00
DAV:   2    -0.338171479097E+02   -0.32348E-01   -0.45592E-01  4408   0.316E+00    0.128E+00
DAV:   3    -0.338383214720E+02   -0.21174E-01   -0.52591E-01  4952   0.265E+00    0.150E+00
DAV:   4    -0.338054466372E+02    0.32875E-01   -0.31942E-01  4832   0.194E+00    0.612E-01
DAV:   5    -0.338030334004E+02    0.24132E-02   -0.16852E-02  4192   0.529E-01    0.327E-01
DAV:   6    -0.338024925210E+02    0.54088E-03   -0.42749E-03  4560   0.340E-01    0.864E-02
DAV:   7    -0.338024465252E+02    0.45996E-04   -0.52591E-04  4136   0.131E-01    0.431E-02
DAV:   8    -0.338024491082E+02   -0.25830E-05   -0.69104E-05  4936   0.406E-02    0.314E-02
DAV:   9    -0.338024444442E+02    0.46640E-05   -0.25011E-05  4672   0.244E-02    0.171E-02
DAV:  10    -0.338024431626E+02    0.12816E-05   -0.10445E-05  4320   0.150E-02    0.479E-03
DAV:  11    -0.338024436348E+02   -0.47217E-06   -0.87160E-07  2264   0.557E-03
   3 F= -.33802444E+02 E0= -.33792078E+02  d E =-.304680E+00
quench:  g(F)=  0.000E+00 g(S)=  0.000E+00 dE (1.order)= 0.000E+00
 bond charge predicted
       N       E                     dE             d eps       ncg     rms          rms(c)
DAV:   1    -0.339580333870E+02   -0.15559E+00   -0.17811E+01  3264   0.205E+01    0.193E+00
DAV:   2    -0.339884400650E+02   -0.30407E-01   -0.41007E-01  4352   0.309E+00    0.112E+00
DAV:   3    -0.340007877289E+02   -0.12348E-01   -0.23074E-01  4928   0.181E+00    0.114E+00
DAV:   4    -0.339875876875E+02    0.13200E-01   -0.22864E-01  4864   0.162E+00    0.739E-01
DAV:   5    -0.339832338862E+02    0.43538E-02   -0.30468E-02  4600   0.633E-01    0.275E-01
DAV:   6    -0.339825761703E+02    0.65772E-03   -0.46705E-03  4736   0.341E-01    0.569E-02
DAV:   7    -0.339825724232E+02    0.37470E-05   -0.32805E-04  4232   0.108E-01    0.430E-02
DAV:   8    -0.339825700069E+02    0.24163E-05   -0.32707E-05  5296   0.266E-02    0.347E-02
DAV:   9    -0.339825649920E+02    0.50150E-05   -0.22918E-05  4352   0.217E-02    0.140E-02
DAV:  10    -0.339825640114E+02    0.98057E-06   -0.88614E-06  4488   0.146E-02
   4 F= -.33982564E+02 E0= -.33971478E+02  d E =-.180120E+00
quench:  g(F)=  0.000E+00 g(S)=  0.000E+00 dE (1.order)= 0.000E+00
 bond charge predicted
       N       E                     dE             d eps       ncg     rms          rms(c)
DAV:   1    -0.340555512841E+02   -0.72986E-01   -0.15413E+01  3264   0.190E+01    0.147E+00
DAV:   2    -0.340769056846E+02   -0.21354E-01   -0.29554E-01  4456   0.268E+00    0.771E-01
DAV:   3    -0.340757964883E+02    0.11092E-02   -0.15049E-02  4368   0.672E-01    0.462E-01
DAV:   4    -0.340757344990E+02    0.61989E-04   -0.74051E-03  4688   0.446E-01    0.372E-01
DAV:   5    -0.340750950209E+02    0.63948E-03   -0.65983E-03  4776   0.393E-01    0.750E-02
DAV:   6    -0.340749718090E+02    0.12321E-03   -0.10529E-03  4664   0.174E-01    0.794E-02
DAV:   7    -0.340749656060E+02    0.62030E-05   -0.16485E-04  5000   0.574E-02    0.638E-02
DAV:   8    -0.340749653239E+02    0.28212E-06   -0.76978E-05  4912   0.348E-02    0.497E-02
DAV:   9    -0.340749588324E+02    0.64914E-05   -0.10252E-04  4752   0.390E-02    0.157E-02
DAV:  10    -0.340749575570E+02    0.12754E-05   -0.19967E-05  4664   0.185E-02    0.558E-03
DAV:  11    -0.340749584429E+02   -0.88585E-06   -0.12616E-06  2328   0.671E-03
   5 F= -.34074958E+02 E0= -.34063417E+02  d E =-.923944E-01
quench:  g(F)=  0.000E+00 g(S)=  0.000E+00 dE (1.order)= 0.000E+00
 bond charge predicted
       N       E                     dE             d eps       ncg     rms          rms(c)
DAV:   1    -0.341123047023E+02   -0.37347E-01   -0.89698E+00  3264   0.145E+01    0.943E-01
DAV:   2    -0.341247627911E+02   -0.12458E-01   -0.15372E-01  4480   0.189E+00    0.301E-01
DAV:   3    -0.341243255857E+02    0.43721E-03   -0.44751E-03  4960   0.336E-01    0.241E-01
DAV:   4    -0.341248490887E+02   -0.52350E-03   -0.74653E-03  5008   0.319E-01    0.252E-01
DAV:   5    -0.341241596744E+02    0.68941E-03   -0.10800E-02  5000   0.367E-01    0.128E-01
DAV:   6    -0.341239333341E+02    0.22634E-03   -0.20281E-03  4584   0.179E-01    0.356E-02
DAV:   7    -0.341239119488E+02    0.21385E-04   -0.16237E-04  4304   0.639E-02    0.237E-02
DAV:   8    -0.341239133399E+02   -0.13911E-05   -0.14678E-05  4696   0.192E-02    0.154E-02
DAV:   9    -0.341239135470E+02   -0.20704E-06   -0.60221E-06  3608   0.120E-02
   6 F= -.34123914E+02 E0= -.34112454E+02  d E =-.489551E-01
quench:  g(F)=  0.000E+00 g(S)=  0.000E+00 dE (1.order)= 0.000E+00
 bond charge predicted
       N       E                     dE             d eps       ncg     rms          rms(c)
DAV:   1    -0.341486786638E+02   -0.24765E-01   -0.31446E+00  3264   0.860E+00    0.639E-01
DAV:   2    -0.341527882607E+02   -0.41096E-02   -0.59732E-02  4472   0.120E+00    0.254E-01
DAV:   3    -0.341538335848E+02   -0.10453E-02   -0.21457E-02  4792   0.597E-01    0.351E-01
DAV:   4    -0.341522359563E+02    0.15976E-02   -0.12910E-02  4896   0.413E-01    0.161E-01
DAV:   5    -0.341521142925E+02    0.12166E-03   -0.12650E-03  4576   0.151E-01    0.104E-01
DAV:   6    -0.341520513070E+02    0.62985E-04   -0.73922E-04  4400   0.126E-01    0.464E-02
DAV:   7    -0.341520281484E+02    0.23159E-04   -0.14894E-04  4288   0.681E-02    0.216E-02
DAV:   8    -0.341520271922E+02    0.95624E-06   -0.21616E-05  4584   0.234E-02    0.152E-02
DAV:   9    -0.341520266753E+02    0.51690E-06   -0.77655E-06  4208   0.139E-02
   7 F= -.34152027E+02 E0= -.34140560E+02  d E =-.281131E-01
quench:  g(F)=  0.000E+00 g(S)=  0.000E+00 dE (1.order)= 0.000E+00
 bond charge predicted
       N       E                     dE             d eps       ncg     rms          rms(c)
DAV:   1    -0.341699379074E+02   -0.17911E-01   -0.92784E-01  3264   0.469E+00    0.408E-01
DAV:   2    -0.341710046663E+02   -0.10668E-02   -0.17399E-02  4440   0.636E-01    0.171E-01
DAV:   3    -0.341714774907E+02   -0.47282E-03   -0.86801E-03  4896   0.361E-01    0.222E-01
DAV:   4    -0.341707859541E+02    0.69154E-03   -0.69235E-03  4912   0.301E-01    0.988E-02
DAV:   5    -0.341706734836E+02    0.11247E-03   -0.59418E-04  4128   0.963E-02    0.378E-02
DAV:   6    -0.341706712508E+02    0.22329E-05   -0.14180E-04  4480   0.593E-02    0.263E-02
DAV:   7    -0.341706676359E+02    0.36148E-05   -0.21645E-05  4472   0.248E-02    0.105E-02
DAV:   8    -0.341706684574E+02   -0.82146E-06   -0.50484E-06  3704   0.105E-02
   8 F= -.34170668E+02 E0= -.34159404E+02  d E =-.186418E-01
quench:  g(F)=  0.000E+00 g(S)=  0.000E+00 dE (1.order)= 0.000E+00
 bond charge predicted
       N       E                     dE             d eps       ncg     rms          rms(c)
DAV:   1    -0.341885537885E+02   -0.17886E-01   -0.80538E-01  3264   0.439E+00    0.308E-01
DAV:   2    -0.341895072904E+02   -0.95350E-03   -0.16382E-02  4432   0.615E-01    0.120E-01
DAV:   3    -0.341895033493E+02    0.39411E-05   -0.21110E-03  5160   0.198E-01    0.122E-01
DAV:   4    -0.341894012664E+02    0.10208E-03   -0.23943E-03  4912   0.182E-01    0.894E-02
DAV:   5    -0.341892774916E+02    0.12377E-03   -0.60127E-04  4856   0.931E-02    0.321E-02
DAV:   6    -0.341892742807E+02    0.32109E-05   -0.52391E-05  4224   0.401E-02    0.170E-02
DAV:   7    -0.341892744951E+02   -0.21442E-06   -0.70867E-06  4048   0.149E-02
   9 F= -.34189274E+02 E0= -.34178151E+02  d E =-.186060E-01
quench:  g(F)=  0.000E+00 g(S)=  0.000E+00 dE (1.order)= 0.000E+00
 bond charge predicted
       N       E                     dE             d eps       ncg     rms          rms(c)
DAV:   1    -0.342077608375E+02   -0.18487E-01   -0.11047E+00  3264   0.515E+00    0.354E-01
DAV:   2    -0.342091663070E+02   -0.14055E-02   -0.22489E-02  4448   0.719E-01    0.149E-01
DAV:   3    -0.342094260495E+02   -0.25974E-03   -0.62928E-03  4944   0.324E-01    0.191E-01
DAV:   4    -0.342089289840E+02    0.49707E-03   -0.48331E-03  4872   0.260E-01    0.896E-02
DAV:   5    -0.342088119719E+02    0.11701E-03   -0.46344E-04  3936   0.886E-02    0.361E-02
DAV:   6    -0.342088103464E+02    0.16256E-05   -0.57346E-05  4768   0.395E-02    0.211E-02
DAV:   7    -0.342088103171E+02    0.29228E-07   -0.97722E-06  4384   0.161E-02
  10 F= -.34208810E+02 E0= -.34197846E+02  d E =-.195358E-01
quench:  g(F)=  0.000E+00 g(S)=  0.000E+00 dE (1.order)= 0.000E+00
 bond charge predicted
       N       E                     dE             d eps       ncg     rms          rms(c)
DAV:   1    -0.342271485525E+02   -0.18338E-01   -0.13349E+00  3264   0.567E+00    0.381E-01
DAV:   2    -0.342290432778E+02   -0.18947E-02   -0.28653E-02  4440   0.812E-01    0.172E-01
DAV:   3    -0.342294932920E+02   -0.45001E-03   -0.97977E-03  4896   0.405E-01    0.231E-01
DAV:   4    -0.342286992929E+02    0.79400E-03   -0.65895E-03  4872   0.306E-01    0.951E-02
DAV:   5    -0.342285757899E+02    0.12350E-03   -0.46955E-04  3800   0.930E-02    0.418E-02
DAV:   6    -0.342285720114E+02    0.37785E-05   -0.72564E-05  4800   0.433E-02    0.243E-02
DAV:   7    -0.342285717590E+02    0.25237E-06   -0.10859E-05  4344   0.171E-02    0.120E-02
DAV:   8    -0.342285723458E+02   -0.58673E-06   -0.68332E-06  3712   0.131E-02
  11 F= -.34228572E+02 E0= -.34217709E+02  d E =-.197620E-01
quench:  g(F)=  0.000E+00 g(S)=  0.000E+00 dE (1.order)= 0.000E+00
 bond charge predicted
       N       E                     dE             d eps       ncg     rms          rms(c)
DAV:   1    -0.342465278816E+02   -0.17956E-01   -0.15522E+00  3264   0.611E+00    0.397E-01
DAV:   2    -0.342489503505E+02   -0.24225E-02   -0.35106E-02  4496   0.898E-01    0.214E-01
DAV:   3    -0.342497389282E+02   -0.78858E-03   -0.17414E-02  4896   0.539E-01    0.291E-01
DAV:   4    -0.342483541373E+02    0.13848E-02   -0.10037E-02  4920   0.382E-01    0.992E-02
DAV:   5    -0.342482210706E+02    0.13307E-03   -0.52705E-04  3704   0.103E-01    0.461E-02
DAV:   6    -0.342482167839E+02    0.42868E-05   -0.74967E-05  4832   0.423E-02    0.245E-02
DAV:   7    -0.342482171310E+02   -0.34709E-06   -0.10999E-05  4424   0.171E-02    0.129E-02
DAV:   8    -0.342482176715E+02   -0.54051E-06   -0.83895E-06  3864   0.141E-02
  12 F= -.34248218E+02 E0= -.34237412E+02  d E =-.196453E-01
quench:  g(F)=  0.000E+00 g(S)=  0.000E+00 dE (1.order)= 0.000E+00
 bond charge predicted
       N       E                     dE             d eps       ncg     rms          rms(c)
DAV:   1    -0.342660063826E+02   -0.17789E-01   -0.15824E+00  3264   0.617E+00    0.389E-01
DAV:   2    -0.342687870194E+02   -0.27806E-02   -0.39106E-02  4432   0.948E-01    0.227E-01
DAV:   3    -0.342694887082E+02   -0.70169E-03   -0.17943E-02  4904   0.559E-01    0.289E-01
DAV:   4    -0.342681165404E+02    0.13722E-02   -0.98073E-03  4928   0.383E-01    0.103E-01
DAV:   5    -0.342679701999E+02    0.14634E-03   -0.55388E-04  3696   0.108E-01    0.488E-02
DAV:   6    -0.342679653509E+02    0.48490E-05   -0.80418E-05  4872   0.433E-02    0.225E-02
DAV:   7    -0.342679665093E+02   -0.11584E-05   -0.17749E-05  4400   0.217E-02    0.164E-02
DAV:   8    -0.342679663053E+02    0.20400E-06   -0.75831E-06  3768   0.142E-02
  13 F= -.34267966E+02 E0= -.34257124E+02  d E =-.197486E-01
quench:  g(F)=  0.000E+00 g(S)=  0.000E+00 dE (1.order)= 0.000E+00
 bond charge predicted
       N       E                     dE             d eps       ncg     rms          rms(c)
DAV:   1    -0.342860142166E+02   -0.18048E-01   -0.17581E+00  3264   0.649E+00    0.409E-01
DAV:   2    -0.342891345032E+02   -0.31203E-02   -0.44361E-02  4440   0.102E+00    0.277E-01
DAV:   3    -0.342898522823E+02   -0.71778E-03   -0.25080E-02  4888   0.665E-01    0.318E-01
DAV:   4    -0.342880873642E+02    0.17649E-02   -0.12386E-02  4936   0.435E-01    0.109E-01
DAV:   5    -0.342879117282E+02    0.17564E-03   -0.70216E-04  3688   0.121E-01    0.482E-02
DAV:   6    -0.342879106265E+02    0.11017E-05   -0.88421E-05  4896   0.437E-02    0.250E-02
DAV:   7    -0.342879116171E+02   -0.99060E-06   -0.12255E-05  4544   0.178E-02    0.131E-02
DAV:   8    -0.342879117520E+02   -0.13488E-06   -0.96341E-06  4072   0.150E-02
  14 F= -.34287912E+02 E0= -.34277081E+02  d E =-.199454E-01
quench:  g(F)=  0.000E+00 g(S)=  0.000E+00 dE (1.order)= 0.000E+00
 bond charge predicted
       N       E                     dE             d eps       ncg     rms          rms(c)
DAV:   1    -0.343044149760E+02   -0.16503E-01   -0.15296E+00  3264   0.604E+00    0.405E-01
DAV:   2    -0.343069128093E+02   -0.24978E-02   -0.37423E-02  4344   0.937E-01    0.196E-01
DAV:   3    -0.343073135033E+02   -0.40069E-03   -0.10399E-02  4952   0.444E-01    0.240E-01
DAV:   4    -0.343064726963E+02    0.84081E-03   -0.67614E-03  4944   0.327E-01    0.112E-01
DAV:   5    -0.343063105187E+02    0.16218E-03   -0.67752E-04  3920   0.120E-01    0.534E-02
DAV:   6    -0.343062993106E+02    0.11208E-04   -0.19010E-04  4640   0.663E-02    0.227E-02
DAV:   7    -0.343062988198E+02    0.49080E-06   -0.50480E-05  4496   0.363E-02    0.217E-02
DAV:   8    -0.343062984607E+02    0.35906E-06   -0.40796E-06  3824   0.117E-02
  15 F= -.34306298E+02 E0= -.34295240E+02  d E =-.183867E-01
quench:  g(F)=  0.000E+00 g(S)=  0.000E+00 dE (1.order)= 0.000E+00
 bond charge predicted
       N       E                     dE             d eps       ncg     rms          rms(c)
DAV:   1    -0.343207923997E+02   -0.14494E-01   -0.10623E+00  3264   0.504E+00    0.478E-01
DAV:   2    -0.343216013770E+02   -0.80898E-03   -0.23508E-02  4416   0.755E-01    0.240E-01
DAV:   3    -0.343226058572E+02   -0.10045E-02   -0.20141E-02  4936   0.588E-01    0.318E-01
DAV:   4    -0.343208600186E+02    0.17458E-02   -0.12780E-02  5008   0.447E-01    0.114E-01
DAV:   5    -0.343206852381E+02    0.17478E-03   -0.82117E-04  3896   0.125E-01    0.523E-02
DAV:   6    -0.343206758498E+02    0.93883E-05   -0.23034E-04  4600   0.733E-02    0.356E-02
DAV:   7    -0.343206711287E+02    0.47211E-05   -0.32615E-05  4528   0.299E-02    0.156E-02
DAV:   8    -0.343206718707E+02   -0.74205E-06   -0.56851E-06  4080   0.115E-02
  16 F= -.34320672E+02 E0= -.34309723E+02  d E =-.143734E-01
quench:  g(F)=  0.000E+00 g(S)=  0.000E+00 dE (1.order)= 0.000E+00
 bond charge predicted
       N       E                     dE             d eps       ncg     rms          rms(c)
DAV:   1    -0.343327980338E+02   -0.12127E-01   -0.30018E-01  3264   0.271E+00    0.224E-01
DAV:   2    -0.343324108597E+02    0.38717E-03   -0.67876E-03  4400   0.406E-01    0.987E-02
DAV:   3    -0.343322082000E+02    0.20266E-03   -0.96135E-04  4840   0.143E-01    0.807E-02
DAV:   4    -0.343322231025E+02   -0.14903E-04   -0.17732E-03  4936   0.171E-01    0.901E-02
DAV:   5    -0.343320614259E+02    0.16168E-03   -0.83719E-04  4880   0.117E-01    0.250E-02
DAV:   6    -0.343320610608E+02    0.36508E-06   -0.10450E-04  4184   0.499E-02    0.284E-02
DAV:   7    -0.343320566339E+02    0.44269E-05   -0.18276E-05  4344   0.220E-02    0.838E-03
DAV:   8    -0.343320565975E+02    0.36419E-07   -0.27950E-06  2776   0.810E-03
  17 F= -.34332057E+02 E0= -.34320940E+02  d E =-.113847E-01
quench:  g(F)=  0.000E+00 g(S)=  0.000E+00 dE (1.order)= 0.000E+00
 bond charge predicted
       N       E                     dE             d eps       ncg     rms          rms(c)
DAV:   1    -0.343445360738E+02   -0.12479E-01   -0.30519E-01  3264   0.274E+00    0.229E-01
DAV:   2    -0.343442068300E+02    0.32924E-03   -0.84068E-03  4440   0.451E-01    0.126E-01
DAV:   3    -0.343443190449E+02   -0.11221E-03   -0.49238E-03  4920   0.297E-01    0.166E-01
DAV:   4    -0.343438384575E+02    0.48059E-03   -0.37267E-03  4976   0.246E-01    0.633E-02
DAV:   5    -0.343437440595E+02    0.94398E-04   -0.40531E-04  4160   0.874E-02    0.246E-02
DAV:   6    -0.343437435332E+02    0.52629E-06   -0.69521E-05  4592   0.417E-02    0.272E-02
DAV:   7    -0.343437418489E+02    0.16842E-05   -0.77501E-06  4192   0.150E-02    0.134E-02
DAV:   8    -0.343437416742E+02    0.17470E-06   -0.41621E-06  3128   0.934E-03
  18 F= -.34343742E+02 E0= -.34332540E+02  d E =-.116851E-01
quench:  g(F)=  0.000E+00 g(S)=  0.000E+00 dE (1.order)= 0.000E+00
 bond charge predicted
       N       E                     dE             d eps       ncg     rms          rms(c)
DAV:   1    -0.343568273541E+02   -0.13086E-01   -0.41488E-01  3264   0.318E+00    0.248E-01
DAV:   2    -0.343567121352E+02    0.11522E-03   -0.11245E-02  4408   0.520E-01    0.139E-01
DAV:   3    -0.343568912623E+02   -0.17913E-03   -0.62566E-03  4920   0.338E-01    0.183E-01
DAV:   4    -0.343562927739E+02    0.59849E-03   -0.43227E-03  4976   0.265E-01    0.668E-02
DAV:   5    -0.343561882540E+02    0.10452E-03   -0.41595E-04  3904   0.903E-02    0.262E-02
DAV:   6    -0.343561882445E+02    0.94383E-08   -0.61558E-05  4784   0.390E-02    0.253E-02
DAV:   7    -0.343561871060E+02    0.11385E-05   -0.79014E-06  4200   0.145E-02    0.127E-02
DAV:   8    -0.343561873295E+02   -0.22353E-06   -0.31174E-06  2856   0.955E-03
  19 F= -.34356187E+02 E0= -.34344932E+02  d E =-.124457E-01
quench:  g(F)=  0.000E+00 g(S)=  0.000E+00 dE (1.order)= 0.000E+00
 bond charge predicted
       N       E                     dE             d eps       ncg     rms          rms(c)
DAV:   1    -0.343698093469E+02   -0.13622E-01   -0.54430E-01  3264   0.364E+00    0.267E-01
DAV:   2    -0.343699489123E+02   -0.13957E-03   -0.14465E-02  4408   0.589E-01    0.150E-01
DAV:   3    -0.343701686392E+02   -0.21973E-03   -0.71696E-03  4920   0.365E-01    0.195E-01
DAV:   4    -0.343694943788E+02    0.67426E-03   -0.47833E-03  4976   0.280E-01    0.722E-02
DAV:   5    -0.343693767668E+02    0.11761E-03   -0.44522E-04  3864   0.950E-02    0.281E-02
DAV:   6    -0.343693766853E+02    0.81479E-07   -0.56389E-05  4864   0.377E-02    0.226E-02
DAV:   7    -0.343693764541E+02    0.23121E-06   -0.82384E-06  4296   0.145E-02
  20 F= -.34369376E+02 E0= -.34358091E+02  d E =-.131891E-01
quench:  g(F)=  0.000E+00 g(S)=  0.000E+00 dE (1.order)= 0.000E+00
 bond charge predicted
       N       E                     dE             d eps       ncg     rms          rms(c)
DAV:   1    -0.343835210982E+02   -0.14144E-01   -0.69763E-01  3264   0.411E+00    0.289E-01
DAV:   2    -0.343839227565E+02   -0.40166E-03   -0.18051E-02  4384   0.657E-01    0.158E-01
DAV:   3    -0.343841477657E+02   -0.22501E-03   -0.74837E-03  4920   0.378E-01    0.201E-01
DAV:   4    -0.343834564577E+02    0.69131E-03   -0.51555E-03  4968   0.293E-01    0.809E-02
DAV:   5    -0.343833166398E+02    0.13982E-03   -0.52084E-04  3968   0.102E-01    0.304E-02
DAV:   6    -0.343833160659E+02    0.57387E-06   -0.72160E-05  4800   0.432E-02    0.234E-02
DAV:   7    -0.343833157217E+02    0.34423E-06   -0.11070E-05  4496   0.167E-02    0.109E-02
DAV:   8    -0.343833163758E+02   -0.65412E-06   -0.62891E-06  3752   0.127E-02
  21 F= -.34383316E+02 E0= -.34372028E+02  d E =-.139399E-01
quench:  g(F)=  0.000E+00 g(S)=  0.000E+00 dE (1.order)= 0.000E+00
 bond charge predicted
       N       E                     dE             d eps       ncg     rms          rms(c)
DAV:   1    -0.343978306536E+02   -0.14515E-01   -0.86762E-01  3264   0.457E+00    0.310E-01
DAV:   2    -0.343985649179E+02   -0.73426E-03   -0.21996E-02  4368   0.726E-01    0.164E-01
DAV:   3    -0.343987980182E+02   -0.23310E-03   -0.76628E-03  4912   0.388E-01    0.205E-01
DAV:   4    -0.343980989548E+02    0.69906E-03   -0.53534E-03  4968   0.301E-01    0.876E-02
DAV:   5    -0.343979425682E+02    0.15639E-03   -0.56929E-04  3992   0.108E-01    0.327E-02
DAV:   6    -0.343979413170E+02    0.12511E-05   -0.74150E-05  4728   0.448E-02    0.190E-02
DAV:   7    -0.343979419329E+02   -0.61581E-06   -0.99300E-06  4072   0.170E-02
  22 F= -.34397942E+02 E0= -.34386660E+02  d E =-.146256E-01
quench:  g(F)=  0.000E+00 g(S)=  0.000E+00 dE (1.order)= 0.000E+00
 bond charge predicted
       N       E                     dE             d eps       ncg     rms          rms(c)
DAV:   1    -0.344127876702E+02   -0.14846E-01   -0.10756E+00  3264   0.508E+00    0.335E-01
DAV:   2    -0.344138539752E+02   -0.10663E-02   -0.26284E-02  4352   0.793E-01    0.165E-01
DAV:   3    -0.344140131528E+02   -0.15918E-03   -0.67293E-03  4880   0.371E-01    0.196E-01
DAV:   4    -0.344134254928E+02    0.58766E-03   -0.51734E-03  4968   0.298E-01    0.984E-02
DAV:   5    -0.344132389887E+02    0.18650E-03   -0.69335E-04  4152   0.119E-01    0.355E-02
DAV:   6    -0.344132368308E+02    0.21579E-05   -0.99756E-05  4576   0.524E-02    0.183E-02
DAV:   7    -0.344132378131E+02   -0.98227E-06   -0.20915E-05  4328   0.239E-02    0.144E-02
DAV:   8    -0.344132380195E+02   -0.20640E-06   -0.44920E-06  3544   0.116E-02
  23 F= -.34413238E+02 E0= -.34401976E+02  d E =-.152961E-01
quench:  g(F)=  0.000E+00 g(S)=  0.000E+00 dE (1.order)= 0.000E+00
 bond charge predicted
       N       E                     dE             d eps       ncg     rms          rms(c)
DAV:   1    -0.344282490754E+02   -0.15011E-01   -0.12996E+00  3272   0.558E+00    0.360E-01
DAV:   2    -0.344297438032E+02   -0.14947E-02   -0.31105E-02  4336   0.862E-01    0.168E-01
DAV:   3    -0.344298404699E+02   -0.96667E-04   -0.60313E-03  4840   0.359E-01    0.189E-01
DAV:   4    -0.344293544461E+02    0.48602E-03   -0.49366E-03  4912   0.295E-01    0.108E-01
DAV:   5    -0.344291444785E+02    0.20997E-03   -0.81582E-04  4384   0.128E-01    0.382E-02
DAV:   6    -0.344291395827E+02    0.48957E-05   -0.12184E-04  4344   0.590E-02    0.186E-02
DAV:   7    -0.344291408155E+02   -0.12328E-05   -0.24709E-05  4312   0.262E-02    0.148E-02
DAV:   8    -0.344291409558E+02   -0.14031E-06   -0.39805E-06  3576   0.115E-02
  24 F= -.34429141E+02 E0= -.34417894E+02  d E =-.159029E-01
quench:  g(F)=  0.000E+00 g(S)=  0.000E+00 dE (1.order)= 0.000E+00
 bond charge predicted
       N       E                     dE             d eps       ncg     rms          rms(c)
DAV:   1    -0.344439948778E+02   -0.14854E-01   -0.15677E+00  3272   0.612E+00    0.379E-01
DAV:   2    -0.344461246919E+02   -0.21298E-02   -0.36321E-02  4304   0.931E-01    0.171E-01
DAV:   3    -0.344461998505E+02   -0.75159E-04   -0.55003E-03  4824   0.350E-01    0.182E-01
DAV:   4    -0.344458013660E+02    0.39848E-03   -0.46166E-03  4896   0.288E-01    0.115E-01
DAV:   5    -0.344455883888E+02    0.21298E-03   -0.89295E-04  4568   0.133E-01    0.419E-02
DAV:   6    -0.344455801770E+02    0.82118E-05   -0.16465E-04  4344   0.672E-02    0.180E-02
DAV:   7    -0.344455811278E+02   -0.95084E-06   -0.36642E-05  4368   0.317E-02    0.158E-02
DAV:   8    -0.344455809606E+02    0.16728E-06   -0.34367E-06  3496   0.113E-02
  25 F= -.34445581E+02 E0= -.34434378E+02  d E =-.164400E-01
quench:  g(F)=  0.000E+00 g(S)=  0.000E+00 dE (1.order)= 0.000E+00
 bond charge predicted
       N       E                     dE             d eps       ncg     rms          rms(c)
DAV:   1    -0.344591671440E+02   -0.13586E-01   -0.18395E+00  3280   0.660E+00    0.361E-01
DAV:   2    -0.344625528090E+02   -0.33857E-02   -0.41325E-02  4296   0.989E-01    0.176E-01
DAV:   3    -0.344627804603E+02   -0.22765E-03   -0.62236E-03  4840   0.377E-01    0.187E-01
DAV:   4    -0.344623433566E+02    0.43710E-03   -0.42989E-03  4872   0.279E-01    0.111E-01
DAV:   5    -0.344622155516E+02    0.12780E-03   -0.60289E-04  4520   0.110E-01    0.529E-02
DAV:   6    -0.344622020045E+02    0.13547E-04   -0.26334E-04  4400   0.795E-02    0.226E-02
DAV:   7    -0.344621974235E+02    0.45810E-05   -0.48313E-05  4400   0.374E-02    0.100E-02
DAV:   8    -0.344621975200E+02   -0.96496E-07   -0.48114E-06  4184   0.115E-02
  26 F= -.34462198E+02 E0= -.34451104E+02  d E =-.166166E-01
quench:  g(F)=  0.000E+00 g(S)=  0.000E+00 dE (1.order)= 0.000E+00
 bond charge predicted
       N       E                     dE             d eps       ncg     rms          rms(c)
DAV:   1    -0.344747351707E+02   -0.12538E-01   -0.22221E+00  3280   0.723E+00    0.396E-01
DAV:   2    -0.344787619901E+02   -0.40268E-02   -0.46444E-02  4328   0.105E+00    0.186E-01
DAV:   3    -0.344790596795E+02   -0.29769E-03   -0.70577E-03  4888   0.402E-01    0.197E-01
DAV:   4    -0.344785582486E+02    0.50143E-03   -0.50489E-03  4912   0.303E-01    0.118E-01
DAV:   5    -0.344784202547E+02    0.13799E-03   -0.68181E-04  4464   0.117E-01    0.523E-02
DAV:   6    -0.344784060933E+02    0.14161E-04   -0.28695E-04  4392   0.831E-02    0.243E-02
DAV:   7    -0.344784018841E+02    0.42093E-05   -0.45891E-05  4448   0.366E-02    0.100E-02
DAV:   8    -0.344784017800E+02    0.10406E-06   -0.52771E-06  4152   0.118E-02
  27 F= -.34478402E+02 E0= -.34467561E+02  d E =-.162043E-01
quench:  g(F)=  0.000E+00 g(S)=  0.000E+00 dE (1.order)= 0.000E+00
 bond charge predicted
       N       E                     dE             d eps       ncg     rms          rms(c)
DAV:   1    -0.344886167551E+02   -0.10215E-01   -0.23628E+00  3280   0.744E+00    0.441E-01
DAV:   2    -0.344927854892E+02   -0.41687E-02   -0.49597E-02  4280   0.109E+00    0.183E-01
DAV:   3    -0.344926756842E+02    0.10980E-03   -0.21403E-03  4704   0.241E-01    0.132E-01
DAV:   4    -0.344926273677E+02    0.48317E-04   -0.58885E-04  4904   0.120E-01    0.101E-01
DAV:   5    -0.344927034669E+02   -0.76099E-04   -0.13747E-03  4904   0.160E-01    0.991E-02
DAV:   6    -0.344925698872E+02    0.13358E-03   -0.12468E-03  4880   0.153E-01    0.360E-02
DAV:   7    -0.344925479064E+02    0.21981E-04   -0.14334E-04  4528   0.541E-02    0.848E-03
DAV:   8    -0.344925481526E+02   -0.24615E-06   -0.72228E-06  4352   0.145E-02
  28 F= -.34492548E+02 E0= -.34481549E+02  d E =-.141464E-01
quench:  g(F)=  0.000E+00 g(S)=  0.000E+00 dE (1.order)= 0.000E+00
 bond charge predicted
       N       E                     dE             d eps       ncg     rms          rms(c)
DAV:   1    -0.344975077972E+02   -0.49599E-02   -0.21692E+00  3280   0.716E+00    0.517E-01
DAV:   2    -0.345011619217E+02   -0.36541E-02   -0.42129E-02  4376   0.100E+00    0.209E-01
DAV:   3    -0.345016146675E+02   -0.45275E-03   -0.85145E-03  4904   0.430E-01    0.225E-01
DAV:   4    -0.345009213338E+02    0.69333E-03   -0.65496E-03  4912   0.345E-01    0.132E-01
DAV:   5    -0.345007531144E+02    0.16822E-03   -0.85624E-04  4072   0.133E-01    0.388E-02
DAV:   6    -0.345007440801E+02    0.90343E-05   -0.20200E-04  4616   0.730E-02    0.183E-02
DAV:   7    -0.345007427391E+02    0.13411E-05   -0.20866E-05  4408   0.251E-02    0.110E-02
DAV:   8    -0.345007423371E+02    0.40193E-06   -0.41661E-06  3672   0.103E-02
  29 F= -.34500742E+02 E0= -.34490165E+02  d E =-.819418E-02
quench:  g(F)=  0.000E+00 g(S)=  0.000E+00 dE (1.order)= 0.000E+00
 bond charge predicted
       N       E                     dE             d eps       ncg     rms          rms(c)
DAV:   1    -0.345053550856E+02   -0.46123E-02   -0.63323E-01  3264   0.386E+00    0.344E-01
DAV:   2    -0.345060352986E+02   -0.68021E-03   -0.11796E-02  4376   0.545E-01    0.140E-01
DAV:   3    -0.345060654872E+02   -0.30189E-04   -0.23526E-03  4736   0.228E-01    0.124E-01
DAV:   4    -0.345059613031E+02    0.10418E-03   -0.21943E-03  4928   0.200E-01    0.100E-01
DAV:   5    -0.345058652121E+02    0.96091E-04   -0.69811E-04  4800   0.113E-01    0.527E-02
DAV:   6    -0.345058443709E+02    0.20841E-04   -0.29436E-04  4600   0.765E-02    0.280E-02
DAV:   7    -0.345058373924E+02    0.69785E-05   -0.31389E-05  4432   0.296E-02    0.650E-03
DAV:   8    -0.345058367046E+02    0.68785E-06   -0.94256E-06  4432   0.136E-02
  30 F= -.34505837E+02 E0= -.34494979E+02  d E =-.509437E-02
quench:  g(F)=  0.000E+00 g(S)=  0.000E+00 dE (1.order)= 0.000E+00
 bond charge predicted
       N       E                     dE             d eps       ncg     rms          rms(c)
DAV:   1    -0.345082105907E+02   -0.23732E-02   -0.24466E-01  3336   0.240E+00    0.136E-01
DAV:   2    -0.345086345106E+02   -0.42392E-03   -0.57340E-03  4304   0.364E-01    0.639E-02
DAV:   3    -0.345086440243E+02   -0.95138E-05   -0.70001E-04  4856   0.129E-01    0.671E-02
DAV:   4    -0.345085969122E+02    0.47112E-04   -0.48832E-04  4896   0.965E-02    0.416E-02
DAV:   5    -0.345085821317E+02    0.14780E-04   -0.13900E-04  4776   0.508E-02    0.209E-02
DAV:   6    -0.345085759248E+02    0.62070E-05   -0.67881E-05  4520   0.383E-02    0.113E-02
DAV:   7    -0.345085759012E+02    0.23614E-07   -0.49853E-06  3896   0.123E-02
  31 F= -.34508576E+02 E0= -.34497741E+02  d E =-.273920E-02
quench:  g(F)=  0.000E+00 g(S)=  0.000E+00 dE (1.order)= 0.000E+00
 bond charge predicted
       N       E                     dE             d eps       ncg     rms          rms(c)
DAV:   1    -0.345102385471E+02   -0.16626E-02   -0.33019E-01  3352   0.278E+00    0.145E-01
DAV:   2    -0.345108409580E+02   -0.60241E-03   -0.79476E-03  4296   0.426E-01    0.672E-02
DAV:   3    -0.345108109729E+02    0.29985E-04   -0.34594E-04  4688   0.972E-02    0.529E-02
DAV:   4    -0.345107991935E+02    0.11779E-04   -0.94121E-05  4864   0.474E-02    0.354E-02
DAV:   5    -0.345107996028E+02   -0.40932E-06   -0.15140E-04  4856   0.548E-02    0.312E-02
DAV:   6    -0.345107890047E+02    0.10598E-04   -0.14003E-04  4888   0.525E-02    0.146E-02
DAV:   7    -0.345107857931E+02    0.32116E-05   -0.19989E-05  4752   0.200E-02    0.312E-03
DAV:   8    -0.345107858365E+02   -0.43416E-07   -0.71685E-07  2376   0.513E-03
  32 F= -.34510786E+02 E0= -.34499896E+02  d E =-.220994E-02
quench:  g(F)=  0.000E+00 g(S)=  0.000E+00 dE (1.order)= 0.000E+00
 bond charge predicted
       N       E                     dE             d eps       ncg     rms          rms(c)
DAV:   1    -0.345108526660E+02   -0.66873E-04   -0.40968E-01  3368   0.309E+00    0.155E-01
DAV:   2    -0.345117105459E+02   -0.85788E-03   -0.10621E-02  4304   0.488E-01    0.735E-02
DAV:   3    -0.345116842764E+02    0.26270E-04   -0.42416E-04  4960   0.107E-01    0.592E-02
DAV:   4    -0.345116767151E+02    0.75613E-05   -0.18322E-04  4888   0.609E-02    0.442E-02
DAV:   5    -0.345116904606E+02   -0.13745E-04   -0.38960E-04  4928   0.843E-02    0.473E-02
DAV:   6    -0.345116549018E+02    0.35559E-04   -0.21755E-04  4848   0.654E-02    0.121E-02
DAV:   7    -0.345116538681E+02    0.10337E-05   -0.14379E-05  4232   0.187E-02    0.431E-03
DAV:   8    -0.345116538645E+02    0.35539E-08   -0.12782E-06  2560   0.588E-03
  33 F= -.34511654E+02 E0= -.34500686E+02  d E =-.868028E-03
quench:  g(F)=  0.000E+00 g(S)=  0.000E+00 dE (1.order)= 0.000E+00
 bond charge predicted
       N       E                     dE             d eps       ncg     rms          rms(c)
DAV:   1    -0.345091547670E+02    0.24991E-02   -0.46345E-01  3384   0.326E+00    0.165E-01
DAV:   2    -0.345103177802E+02   -0.11630E-02   -0.13860E-02  4344   0.553E-01    0.899E-02
DAV:   3    -0.345103342751E+02   -0.16495E-04   -0.11757E-03  5040   0.170E-01    0.842E-02
DAV:   4    -0.345102719917E+02    0.62283E-04   -0.66027E-04  4920   0.112E-01    0.562E-02
DAV:   5    -0.345102525744E+02    0.19417E-04   -0.22696E-04  4760   0.670E-02    0.333E-02
DAV:   6    -0.345102411865E+02    0.11388E-04   -0.11785E-04  4472   0.502E-02    0.156E-02
DAV:   7    -0.345102406920E+02    0.49449E-06   -0.90144E-06  4120   0.166E-02
  34 F= -.34510241E+02 E0= -.34499110E+02  d E =0.141317E-02
quench:  g(F)=  0.000E+00 g(S)=  0.000E+00 dE (1.order)= 0.000E+00
 bond charge predicted
       N       E                     dE             d eps       ncg     rms          rms(c)
DAV:   1    -0.345046304484E+02    0.56107E-02   -0.50936E-01  3400   0.338E+00    0.176E-01
DAV:   2    -0.345061583529E+02   -0.15279E-02   -0.17622E-02  4368   0.623E-01    0.112E-01
DAV:   3    -0.345062196690E+02   -0.61316E-04   -0.24935E-03  4992   0.241E-01    0.110E-01
DAV:   4    -0.345060650254E+02    0.15464E-03   -0.12030E-03  4896   0.149E-01    0.607E-02
DAV:   5    -0.345060463348E+02    0.18691E-04   -0.21792E-04  4576   0.673E-02    0.353E-02
DAV:   6    -0.345060346741E+02    0.11661E-04   -0.11569E-04  4520   0.503E-02    0.156E-02
DAV:   7    -0.345060351093E+02   -0.43522E-06   -0.90318E-06  4104   0.164E-02
  35 F= -.34506035E+02 E0= -.34494626E+02  d E =0.420558E-02
quench:  g(F)=  0.000E+00 g(S)=  0.000E+00 dE (1.order)= 0.000E+00
 bond charge predicted
       N       E                     dE             d eps       ncg     rms          rms(c)
DAV:   1    -0.344977879133E+02    0.82468E-02   -0.61985E-01  3392   0.373E+00    0.200E-01
DAV:   2    -0.344998071966E+02   -0.20193E-02   -0.23056E-02  4424   0.717E-01    0.153E-01
DAV:   3    -0.344998553185E+02   -0.48122E-04   -0.49707E-03  4856   0.332E-01    0.138E-01
DAV:   4    -0.344995782869E+02    0.27703E-03   -0.20639E-03  4928   0.193E-01    0.705E-02
DAV:   5    -0.344995557693E+02    0.22518E-04   -0.28487E-04  4496   0.775E-02    0.429E-02
DAV:   6    -0.344995377319E+02    0.18037E-04   -0.14355E-04  4528   0.562E-02    0.163E-02
DAV:   7    -0.344995391329E+02   -0.14010E-05   -0.12119E-05  4200   0.185E-02    0.814E-03
DAV:   8    -0.344995386668E+02    0.46612E-06   -0.25271E-06  2864   0.758E-03
  36 F= -.34499539E+02 E0= -.34487619E+02  d E =0.649644E-02
quench:  g(F)=  0.000E+00 g(S)=  0.000E+00 dE (1.order)= 0.000E+00
 bond charge predicted
       N       E                     dE             d eps       ncg     rms          rms(c)
DAV:   1    -0.344905343656E+02    0.90048E-02   -0.87432E-01  3328   0.449E+00    0.242E-01
DAV:   2    -0.344931473154E+02   -0.26129E-02   -0.30018E-02  4440   0.824E-01    0.193E-01
DAV:   3    -0.344931858016E+02   -0.38486E-04   -0.80946E-03  4848   0.415E-01    0.170E-01
DAV:   4    -0.344927507092E+02    0.43509E-03   -0.33156E-03  4928   0.240E-01    0.839E-02
DAV:   5    -0.344927174056E+02    0.33304E-04   -0.43532E-04  4464   0.951E-02    0.530E-02
DAV:   6    -0.344926866563E+02    0.30749E-04   -0.19979E-04  4528   0.665E-02    0.178E-02
DAV:   7    -0.344926889970E+02   -0.23407E-05   -0.18153E-05  4208   0.221E-02    0.110E-02
DAV:   8    -0.344926885176E+02    0.47939E-06   -0.22000E-06  2776   0.769E-03
  37 F= -.34492689E+02 E0= -.34480008E+02  d E =0.685015E-02
quench:  g(F)=  0.000E+00 g(S)=  0.000E+00 dE (1.order)= 0.000E+00
 bond charge predicted
       N       E                     dE             d eps       ncg     rms          rms(c)
DAV:   1    -0.344867830099E+02    0.59060E-02   -0.14364E+00  3264   0.581E+00    0.307E-01
DAV:   2    -0.344900511195E+02   -0.32681E-02   -0.39303E-02  4560   0.953E-01    0.253E-01
DAV:   3    -0.344900332034E+02    0.17916E-04   -0.14289E-02  4864   0.531E-01    0.216E-01
DAV:   4    -0.344893007921E+02    0.73241E-03   -0.58299E-03  4984   0.312E-01    0.106E-01
DAV:   5    -0.344892447262E+02    0.56066E-04   -0.80768E-04  4464   0.128E-01    0.719E-02
DAV:   6    -0.344891829801E+02    0.61746E-04   -0.30469E-04  4496   0.827E-02    0.204E-02
DAV:   7    -0.344891871824E+02   -0.42023E-05   -0.35321E-05  4320   0.286E-02    0.158E-02
DAV:   8    -0.344891864719E+02    0.71058E-06   -0.28586E-06  2880   0.934E-03
  38 F= -.34489186E+02 E0= -.34475625E+02  d E =0.350205E-02
quench:  g(F)=  0.000E+00 g(S)=  0.000E+00 dE (1.order)= 0.000E+00
 bond charge predicted
       N       E                     dE             d eps       ncg     rms          rms(c)
DAV:   1    -0.344918456287E+02   -0.26584E-02   -0.24627E+00  3264   0.758E+00    0.371E-01
DAV:   2    -0.344954223060E+02   -0.35767E-02   -0.46861E-02  4520   0.106E+00    0.308E-01
DAV:   3    -0.344953681268E+02    0.54179E-04   -0.22741E-02  4864   0.651E-01    0.266E-01
DAV:   4    -0.344942119196E+02    0.11562E-02   -0.94273E-03  4936   0.389E-01    0.125E-01
DAV:   5    -0.344941068901E+02    0.10503E-03   -0.13262E-03  4496   0.164E-01    0.865E-02
DAV:   6    -0.344940143227E+02    0.92567E-04   -0.38403E-04  4408   0.947E-02    0.241E-02
DAV:   7    -0.344940190880E+02   -0.47652E-05   -0.63878E-05  4544   0.360E-02    0.206E-02
DAV:   8    -0.344940181842E+02    0.90379E-06   -0.54024E-06  3776   0.123E-02
  39 F= -.34494018E+02 E0= -.34480341E+02  d E =-.483171E-02
quench:  g(F)=  0.000E+00 g(S)=  0.000E+00 dE (1.order)= 0.000E+00
 bond charge predicted
       N       E                     dE             d eps       ncg     rms          rms(c)
DAV:   1    -0.345058711727E+02   -0.11852E-01   -0.35449E+00  3264   0.905E+00    0.397E-01
DAV:   2    -0.345092641801E+02   -0.33930E-02   -0.48319E-02  4512   0.108E+00    0.352E-01
DAV:   3    -0.345089394823E+02    0.32470E-03   -0.29105E-02  4872   0.725E-01    0.286E-01
DAV:   4    -0.345075615912E+02    0.13779E-02   -0.11243E-02  4944   0.421E-01    0.132E-01
DAV:   5    -0.345074187202E+02    0.14287E-03   -0.16877E-03  4480   0.186E-01    0.955E-02
DAV:   6    -0.345073113896E+02    0.10733E-03   -0.43685E-04  4424   0.101E-01    0.245E-02
DAV:   7    -0.345073148535E+02   -0.34639E-05   -0.79780E-05  4728   0.396E-02    0.223E-02
DAV:   8    -0.345073136436E+02    0.12099E-05   -0.89417E-06  3944   0.152E-02    0.216E-02
DAV:   9    -0.345073136269E+02    0.16691E-07   -0.94976E-07  2328   0.523E-03
  40 F= -.34507314E+02 E0= -.34494687E+02  d E =-.132954E-01
quench:  g(F)=  0.000E+00 g(S)=  0.000E+00 dE (1.order)= 0.000E+00
 bond charge predicted
       N       E                     dE             d eps       ncg     rms          rms(c)
DAV:   1    -0.345172820570E+02   -0.99684E-02   -0.29909E+00  3264   0.830E+00    0.369E-01
DAV:   2    -0.345197210163E+02   -0.24390E-02   -0.32593E-02  4376   0.916E-01    0.230E-01
DAV:   3    -0.345203263606E+02   -0.60534E-03   -0.17330E-02  4864   0.554E-01    0.273E-01
DAV:   4    -0.345190459688E+02    0.12804E-02   -0.91457E-03  4936   0.377E-01    0.105E-01
DAV:   5    -0.345189715954E+02    0.74373E-04   -0.10138E-03  4232   0.149E-01    0.717E-02
DAV:   6    -0.345188988506E+02    0.72745E-04   -0.36061E-04  4544   0.937E-02    0.200E-02
DAV:   7    -0.345189021292E+02   -0.32786E-05   -0.31540E-05  4368   0.278E-02    0.166E-02
DAV:   8    -0.345189016107E+02    0.51851E-06   -0.24625E-06  2928   0.867E-03
  41 F= -.34518902E+02 E0= -.34507396E+02  d E =-.115880E-01
quench:  g(F)=  0.000E+00 g(S)=  0.000E+00 dE (1.order)= 0.000E+00
 bond charge predicted
       N       E                     dE             d eps       ncg     rms          rms(c)
DAV:   1    -0.345212743888E+02   -0.23723E-02   -0.18500E+00  3264   0.660E+00    0.301E-01
DAV:   2    -0.345233480435E+02   -0.20737E-02   -0.25470E-02  4392   0.799E-01    0.174E-01
DAV:   3    -0.345236739213E+02   -0.32588E-03   -0.84563E-03  4800   0.395E-01    0.203E-01
DAV:   4    -0.345230438420E+02    0.63008E-03   -0.47605E-03  4904   0.276E-01    0.927E-02
DAV:   5    -0.345229694180E+02    0.74424E-04   -0.49385E-04  4088   0.106E-01    0.456E-02
DAV:   6    -0.345229496237E+02    0.19794E-04   -0.20633E-04  4576   0.711E-02    0.180E-02
DAV:   7    -0.345229489605E+02    0.66319E-06   -0.18026E-05  4280   0.237E-02    0.114E-02
DAV:   8    -0.345229487052E+02    0.25539E-06   -0.48632E-06  3720   0.993E-03
  42 F= -.34522949E+02 E0= -.34512006E+02  d E =-.404709E-02
quench:  g(F)=  0.000E+00 g(S)=  0.000E+00 dE (1.order)= 0.000E+00
 bond charge predicted
       N       E                     dE             d eps       ncg     rms          rms(c)
DAV:   1    -0.345202602504E+02    0.26887E-02   -0.86752E-01  3272   0.454E+00    0.339E-01
DAV:   2    -0.345217614651E+02   -0.15012E-02   -0.19255E-02  4448   0.676E-01    0.157E-01
DAV:   3    -0.345220694809E+02   -0.30802E-03   -0.63849E-03  4744   0.343E-01    0.183E-01
DAV:   4    -0.345215765343E+02    0.49295E-03   -0.39457E-03  4912   0.252E-01    0.914E-02
DAV:   5    -0.345215244797E+02    0.52055E-04   -0.36483E-04  4440   0.877E-02    0.471E-02
DAV:   6    -0.345215120171E+02    0.12463E-04   -0.21989E-04  4672   0.698E-02    0.247E-02
DAV:   7    -0.345215081094E+02    0.39077E-05   -0.23516E-05  4480   0.261E-02    0.737E-03
DAV:   8    -0.345215075648E+02    0.54460E-06   -0.92281E-06  4320   0.128E-02
  43 F= -.34521508E+02 E0= -.34510711E+02  d E =0.144114E-02
quench:  g(F)=  0.000E+00 g(S)=  0.000E+00 dE (1.order)= 0.000E+00
 bond charge predicted
       N       E                     dE             d eps       ncg     rms          rms(c)
DAV:   1    -0.345195629521E+02    0.19452E-02   -0.31967E-01  3272   0.276E+00    0.201E-01
DAV:   2    -0.345200819119E+02   -0.51896E-03   -0.69091E-03  4368   0.403E-01    0.722E-02
DAV:   3    -0.345200527987E+02    0.29113E-04   -0.25248E-04  4728   0.800E-02    0.553E-02
DAV:   4    -0.345200818486E+02   -0.29050E-04   -0.44153E-04  4952   0.868E-02    0.613E-02
DAV:   5    -0.345200288021E+02    0.53046E-04   -0.48021E-04  4840   0.867E-02    0.218E-02
DAV:   6    -0.345200221542E+02    0.66479E-05   -0.51827E-05  4536   0.343E-02    0.814E-03
DAV:   7    -0.345200217375E+02    0.41671E-06   -0.35191E-06  3600   0.105E-02
  44 F= -.34520022E+02 E0= -.34509079E+02  d E =0.148583E-02
quench:  g(F)=  0.000E+00 g(S)=  0.000E+00 dE (1.order)= 0.000E+00
 bond charge predicted
       N       E                     dE             d eps       ncg     rms          rms(c)
DAV:   1    -0.345173332528E+02    0.26889E-02   -0.16310E-01  3344   0.197E+00    0.150E-01
DAV:   2    -0.345177167128E+02   -0.38346E-03   -0.60996E-03  4528   0.371E-01    0.109E-01
DAV:   3    -0.345177717790E+02   -0.55066E-04   -0.34366E-03  4832   0.249E-01    0.113E-01
DAV:   4    -0.345175566158E+02    0.21516E-03   -0.14709E-03  4976   0.154E-01    0.462E-02
DAV:   5    -0.345175442336E+02    0.12382E-04   -0.14288E-04  4552   0.546E-02    0.306E-02
DAV:   6    -0.345175333643E+02    0.10869E-04   -0.74895E-05  4568   0.411E-02    0.137E-02
DAV:   7    -0.345175340178E+02   -0.65356E-06   -0.67622E-06  4192   0.134E-02
  45 F= -.34517534E+02 E0= -.34506389E+02  d E =0.248772E-02
quench:  g(F)=  0.000E+00 g(S)=  0.000E+00 dE (1.order)= 0.000E+00
 bond charge predicted
       N       E                     dE             d eps       ncg     rms          rms(c)
DAV:   1    -0.345140952808E+02    0.34381E-02   -0.16576E-01  3352   0.197E+00    0.117E-01
DAV:   2    -0.345145716531E+02   -0.47637E-03   -0.66892E-03  4480   0.384E-01    0.107E-01
DAV:   3    -0.345145384165E+02    0.33237E-04   -0.26541E-03  4888   0.225E-01    0.916E-02
DAV:   4    -0.345144057541E+02    0.13266E-03   -0.89196E-04  5024   0.121E-01    0.412E-02
DAV:   5    -0.345143942921E+02    0.11462E-04   -0.12637E-04  4552   0.513E-02    0.249E-02
DAV:   6    -0.345143843802E+02    0.99119E-05   -0.62157E-05  4544   0.380E-02    0.113E-02
DAV:   7    -0.345143849091E+02   -0.52892E-06   -0.55557E-06  4032   0.120E-02
  46 F= -.34514385E+02 E0= -.34502926E+02  d E =0.314911E-02
quench:  g(F)=  0.000E+00 g(S)=  0.000E+00 dE (1.order)= 0.000E+00
 bond charge predicted
       N       E                     dE             d eps       ncg     rms          rms(c)
DAV:   1    -0.345108352334E+02    0.35491E-02   -0.24242E-01  3304   0.239E+00    0.149E-01
DAV:   2    -0.345115479911E+02   -0.71276E-03   -0.99668E-03  4592   0.470E-01    0.156E-01
DAV:   3    -0.345113746543E+02    0.17334E-03   -0.48230E-03  4880   0.300E-01    0.109E-01
DAV:   4    -0.345111931810E+02    0.18147E-03   -0.12846E-03  5032   0.147E-01    0.528E-02
DAV:   5    -0.345111790493E+02    0.14132E-04   -0.20279E-04  4600   0.652E-02    0.345E-02
DAV:   6    -0.345111618545E+02    0.17195E-04   -0.92877E-05  4520   0.462E-02    0.129E-02
DAV:   7    -0.345111631168E+02   -0.12622E-05   -0.10502E-05  4280   0.156E-02    0.556E-03
DAV:   8    -0.345111627245E+02    0.39225E-06   -0.18246E-06  2576   0.711E-03
  47 F= -.34511163E+02 E0= -.34499357E+02  d E =0.322218E-02
quench:  g(F)=  0.000E+00 g(S)=  0.000E+00 dE (1.order)= 0.000E+00
 bond charge predicted
       N       E                     dE             d eps       ncg     rms          rms(c)
DAV:   1    -0.345084813007E+02    0.26818E-02   -0.33038E-01  3280   0.279E+00    0.153E-01
DAV:   2    -0.345093177464E+02   -0.83645E-03   -0.11302E-02  4568   0.502E-01    0.163E-01
DAV:   3    -0.345091077640E+02    0.20998E-03   -0.51293E-03  4888   0.312E-01    0.111E-01
DAV:   4    -0.345089207313E+02    0.18703E-03   -0.13045E-03  5032   0.148E-01    0.532E-02
DAV:   5    -0.345089029533E+02    0.17778E-04   -0.22097E-04  4568   0.681E-02    0.327E-02
DAV:   6    -0.345088856313E+02    0.17322E-04   -0.97243E-05  4504   0.477E-02    0.124E-02
DAV:   7    -0.345088867667E+02   -0.11354E-05   -0.99276E-06  4184   0.155E-02    0.609E-03
DAV:   8    -0.345088863919E+02    0.37485E-06   -0.14628E-06  2576   0.641E-03
  48 F= -.34508886E+02 E0= -.34496741E+02  d E =0.227633E-02
quench:  g(F)=  0.000E+00 g(S)=  0.000E+00 dE (1.order)= 0.000E+00
 bond charge predicted
       N       E                     dE             d eps       ncg     rms          rms(c)
DAV:   1    -0.345082553358E+02    0.63143E-03   -0.50917E-01  3264   0.347E+00    0.198E-01
DAV:   2    -0.345092395680E+02   -0.98423E-03   -0.14031E-02  4576   0.565E-01    0.199E-01
DAV:   3    -0.345089855829E+02    0.25399E-03   -0.81371E-03  4896   0.387E-01    0.141E-01
DAV:   4    -0.345086596751E+02    0.32591E-03   -0.23365E-03  5016   0.197E-01    0.647E-02
DAV:   5    -0.345086317955E+02    0.27880E-04   -0.33093E-04  4520   0.833E-02    0.418E-02
DAV:   6    -0.345086080695E+02    0.23726E-04   -0.13798E-04  4528   0.564E-02    0.129E-02
DAV:   7    -0.345086098551E+02   -0.17856E-05   -0.13264E-05  4296   0.179E-02    0.716E-03
DAV:   8    -0.345086092437E+02    0.61140E-06   -0.26898E-06  2824   0.847E-03
  49 F= -.34508609E+02 E0= -.34496323E+02  d E =0.277148E-03
quench:  g(F)=  0.000E+00 g(S)=  0.000E+00 dE (1.order)= 0.000E+00
 bond charge predicted
       N       E                     dE             d eps       ncg     rms          rms(c)
DAV:   1    -0.345100764615E+02   -0.14666E-02   -0.56989E-01  3264   0.364E+00    0.191E-01
DAV:   2    -0.345108556326E+02   -0.77917E-03   -0.10860E-02  4432   0.506E-01    0.142E-01
DAV:   3    -0.345109660012E+02   -0.11037E-03   -0.61884E-03  4888   0.338E-01    0.151E-01
DAV:   4    -0.345105551439E+02    0.41086E-03   -0.26086E-03  4984   0.205E-01    0.519E-02
DAV:   5    -0.345105278122E+02    0.27332E-04   -0.21929E-04  4288   0.688E-02    0.294E-02
DAV:   6    -0.345105160209E+02    0.11791E-04   -0.85081E-05  4576   0.452E-02    0.119E-02
DAV:   7    -0.345105161020E+02   -0.81084E-07   -0.73640E-06  4136   0.146E-02
  50 F= -.34510516E+02 E0= -.34498114E+02  d E =-.190686E-02
quench:  g(F)=  0.000E+00 g(S)=  0.000E+00 dE (1.order)= 0.000E+00
 bond charge predicted
       N       E                     dE             d eps       ncg     rms          rms(c)
DAV:   1    -0.345128858978E+02   -0.23699E-02   -0.53409E-01  3264   0.355E+00    0.274E-01
DAV:   2    -0.345133859354E+02   -0.50004E-03   -0.96688E-03  4432   0.488E-01    0.158E-01
DAV:   3    -0.345137006538E+02   -0.31472E-03   -0.75949E-03  4872   0.370E-01    0.184E-01
DAV:   4    -0.345131108535E+02    0.58980E-03   -0.44824E-03  4928   0.270E-01    0.729E-02
DAV:   5    -0.345130581564E+02    0.52697E-04   -0.37017E-04  4272   0.862E-02    0.409E-02
DAV:   6    -0.345130443670E+02    0.13789E-04   -0.15405E-04  4648   0.593E-02    0.190E-02
DAV:   7    -0.345130439354E+02    0.43159E-06   -0.10083E-05  4144   0.178E-02    0.712E-03
DAV:   8    -0.345130437205E+02    0.21493E-06   -0.59183E-06  3864   0.102E-02
  51 F= -.34513044E+02 E0= -.34500814E+02  d E =-.252762E-02
quench:  g(F)=  0.000E+00 g(S)=  0.000E+00 dE (1.order)= 0.000E+00
 bond charge predicted
       N       E                     dE             d eps       ncg     rms          rms(c)
DAV:   1    -0.345148884252E+02   -0.18445E-02   -0.22894E-01  3264   0.231E+00    0.163E-01
DAV:   2    -0.345151780548E+02   -0.28963E-03   -0.34671E-03  4368   0.295E-01    0.618E-02
DAV:   3    -0.345152228730E+02   -0.44818E-04   -0.83043E-04  4864   0.129E-01    0.737E-02
DAV:   4    -0.345151521056E+02    0.70767E-04   -0.53595E-04  4904   0.952E-02    0.378E-02
DAV:   5    -0.345151402448E+02    0.11861E-04   -0.44517E-05  4152   0.319E-02    0.155E-02
DAV:   6    -0.345151392610E+02    0.98388E-06   -0.17072E-05  4464   0.208E-02    0.654E-03
DAV:   7    -0.345151388224E+02    0.43852E-06   -0.31844E-06  2880   0.980E-03
  52 F= -.34515139E+02 E0= -.34502829E+02  d E =-.209510E-02
quench:  g(F)=  0.000E+00 g(S)=  0.000E+00 dE (1.order)= 0.000E+00
 bond charge predicted
       N       E                     dE             d eps       ncg     rms          rms(c)
DAV:   1    -0.345166795427E+02   -0.15403E-02   -0.13928E-01  3264   0.181E+00    0.102E-01
DAV:   2    -0.345168879132E+02   -0.20837E-03   -0.24165E-03  4464   0.244E-01    0.692E-02
DAV:   3    -0.345169266663E+02   -0.38753E-04   -0.13821E-03  4872   0.161E-01    0.722E-02
DAV:   4    -0.345168339159E+02    0.92750E-04   -0.65220E-04  4976   0.103E-01    0.281E-02
DAV:   5    -0.345168282092E+02    0.57067E-05   -0.42796E-05  3976   0.313E-02    0.156E-02
DAV:   6    -0.345168266210E+02    0.15882E-05   -0.18400E-05  4656   0.206E-02    0.489E-03
DAV:   7    -0.345168266129E+02    0.81582E-08   -0.13097E-06  2232   0.673E-03
  53 F= -.34516827E+02 E0= -.34504627E+02  d E =-.168779E-02
quench:  g(F)=  0.000E+00 g(S)=  0.000E+00 dE (1.order)= 0.000E+00
 bond charge predicted
       N       E                     dE             d eps       ncg     rms          rms(c)
DAV:   1    -0.345182639979E+02   -0.14374E-02   -0.14721E-01  3264   0.185E+00    0.891E-02
DAV:   2    -0.345184828380E+02   -0.21884E-03   -0.24373E-03  4336   0.244E-01    0.494E-02
DAV:   3    -0.345185163618E+02   -0.33524E-04   -0.71844E-04  4824   0.119E-01    0.586E-02
DAV:   4    -0.345184600110E+02    0.56351E-04   -0.39901E-04  4936   0.816E-02    0.245E-02
DAV:   5    -0.345184540909E+02    0.59201E-05   -0.25673E-05  3680   0.251E-02    0.884E-03
DAV:   6    -0.345184543366E+02   -0.24562E-06   -0.51703E-06  4016   0.113E-02
  54 F= -.34518454E+02 E0= -.34506268E+02  d E =-.162772E-02
quench:  g(F)=  0.000E+00 g(S)=  0.000E+00 dE (1.order)= 0.000E+00
 bond charge predicted
       N       E                     dE             d eps       ncg     rms          rms(c)
DAV:   1    -0.345195589366E+02   -0.11048E-02   -0.16931E-01  3280   0.199E+00    0.957E-02
DAV:   2    -0.345198352964E+02   -0.27636E-03   -0.30485E-03  4360   0.271E-01    0.525E-02
DAV:   3    -0.345198681261E+02   -0.32830E-04   -0.71345E-04  4864   0.120E-01    0.588E-02
DAV:   4    -0.345198144516E+02    0.53674E-04   -0.41640E-04  4920   0.836E-02    0.275E-02
DAV:   5    -0.345198075231E+02    0.69285E-05   -0.35564E-05  3744   0.290E-02    0.991E-03
DAV:   6    -0.345198077467E+02   -0.22368E-06   -0.82869E-06  4384   0.144E-02
  55 F= -.34519808E+02 E0= -.34507643E+02  d E =-.135341E-02
quench:  g(F)=  0.000E+00 g(S)=  0.000E+00 dE (1.order)= 0.000E+00
 bond charge predicted
       N       E                     dE             d eps       ncg     rms          rms(c)
DAV:   1    -0.345202178919E+02   -0.41037E-03   -0.17522E-01  3320   0.202E+00    0.939E-02
DAV:   2    -0.345205467074E+02   -0.32882E-03   -0.35734E-03  4368   0.288E-01    0.431E-02
DAV:   3    -0.345205538810E+02   -0.71736E-05   -0.21710E-04  5128   0.715E-02    0.393E-02
DAV:   4    -0.345205460043E+02    0.78768E-05   -0.18878E-04  4872   0.569E-02    0.306E-02
DAV:   5    -0.345205355790E+02    0.10425E-04   -0.54360E-05  4536   0.332E-02    0.650E-03
DAV:   6    -0.345205359283E+02   -0.34925E-06   -0.37754E-06  3768   0.114E-02
  56 F= -.34520536E+02 E0= -.34508306E+02  d E =-.728182E-03
quench:  g(F)=  0.000E+00 g(S)=  0.000E+00 dE (1.order)= 0.000E+00
 bond charge predicted
       N       E                     dE             d eps       ncg     rms          rms(c)
DAV:   1    -0.345199329538E+02    0.60263E-03   -0.16419E-01  3376   0.195E+00    0.913E-02
DAV:   2    -0.345203248777E+02   -0.39192E-03   -0.41893E-03  4408   0.306E-01    0.417E-02
DAV:   3    -0.345203240895E+02    0.78821E-06   -0.90695E-05  4912   0.484E-02    0.303E-02
DAV:   4    -0.345203203451E+02    0.37444E-05   -0.16971E-05  4360   0.213E-02    0.111E-02
DAV:   5    -0.345203219756E+02   -0.16304E-05   -0.21952E-05  4840   0.207E-02    0.102E-02
DAV:   6    -0.345203203891E+02    0.15864E-05   -0.13316E-05  4072   0.153E-02    0.381E-03
DAV:   7    -0.345203202561E+02    0.13302E-06   -0.13449E-06  2472   0.579E-03
  57 F= -.34520320E+02 E0= -.34507987E+02  d E =0.215672E-03
quench:  g(F)=  0.000E+00 g(S)=  0.000E+00 dE (1.order)= 0.000E+00
 bond charge predicted
       N       E                     dE             d eps       ncg     rms          rms(c)
DAV:   1    -0.345185964040E+02    0.17240E-02   -0.15237E-01  3376   0.184E+00    0.941E-02
DAV:   2    -0.345190802886E+02   -0.48388E-03   -0.51832E-03  4416   0.336E-01    0.563E-02
DAV:   3    -0.345191012635E+02   -0.20975E-04   -0.56488E-04  5168   0.113E-01    0.544E-02
DAV:   4    -0.345190686543E+02    0.32609E-04   -0.32661E-04  4936   0.745E-02    0.341E-02
DAV:   5    -0.345190621848E+02    0.64694E-05   -0.52171E-05  4544   0.328E-02    0.153E-02
DAV:   6    -0.345190611626E+02    0.10222E-05   -0.25820E-05  4624   0.238E-02    0.754E-03
DAV:   7    -0.345190608182E+02    0.34437E-06   -0.25656E-06  2552   0.903E-03
  58 F= -.34519061E+02 E0= -.34506513E+02  d E =0.125944E-02
quench:  g(F)=  0.000E+00 g(S)=  0.000E+00 dE (1.order)= 0.000E+00
 bond charge predicted
       N       E                     dE             d eps       ncg     rms          rms(c)
DAV:   1    -0.345165168892E+02    0.25443E-02   -0.15149E-01  3432   0.180E+00    0.973E-02
DAV:   2    -0.345170679112E+02   -0.55102E-03   -0.58945E-03  4376   0.361E-01    0.634E-02
DAV:   3    -0.345171014856E+02   -0.33574E-04   -0.93904E-04  5104   0.143E-01    0.649E-02
DAV:   4    -0.345170441944E+02    0.57291E-04   -0.49476E-04  4984   0.907E-02    0.342E-02
DAV:   5    -0.345170386612E+02    0.55332E-05   -0.59978E-05  4488   0.351E-02    0.170E-02
DAV:   6    -0.345170370681E+02    0.15931E-05   -0.31971E-05  4632   0.266E-02    0.809E-03
DAV:   7    -0.345170367932E+02    0.27493E-06   -0.30030E-06  2736   0.970E-03
  59 F= -.34517037E+02 E0= -.34504290E+02  d E =0.202403E-02
quench:  g(F)=  0.000E+00 g(S)=  0.000E+00 dE (1.order)= 0.000E+00
 bond charge predicted
       N       E                     dE             d eps       ncg     rms          rms(c)
DAV:   1    -0.345143376832E+02    0.26994E-02   -0.22561E-01  3376   0.228E+00    0.136E-01
DAV:   2    -0.345150624678E+02   -0.72478E-03   -0.82369E-03  4528   0.430E-01    0.111E-01
DAV:   3    -0.345150783146E+02   -0.15847E-04   -0.27187E-03  4864   0.231E-01    0.958E-02
DAV:   4    -0.345149401541E+02    0.13816E-03   -0.11601E-03  4952   0.139E-01    0.493E-02
DAV:   5    -0.345149303354E+02    0.98186E-05   -0.13982E-04  4480   0.535E-02    0.308E-02
DAV:   6    -0.345149202709E+02    0.10065E-04   -0.71441E-05  4568   0.394E-02    0.981E-03
DAV:   7    -0.345149209152E+02   -0.64433E-06   -0.56897E-06  4136   0.125E-02
  60 F= -.34514921E+02 E0= -.34501904E+02  d E =0.211588E-02
quench:  g(F)=  0.000E+00 g(S)=  0.000E+00 dE (1.order)= 0.000E+00
 bond charge predicted
       N       E                     dE             d eps       ncg     rms          rms(c)
DAV:   1    -0.345130211391E+02    0.18991E-02   -0.30486E-01  3296   0.267E+00    0.161E-01
DAV:   2    -0.345137564378E+02   -0.73530E-03   -0.82827E-03  4424   0.434E-01    0.961E-02
DAV:   3    -0.345138760229E+02   -0.11959E-03   -0.29801E-03  4904   0.239E-01    0.113E-01
DAV:   4    -0.345136626594E+02    0.21336E-03   -0.15662E-03  4952   0.158E-01    0.449E-02
DAV:   5    -0.345136517709E+02    0.10889E-04   -0.13169E-04  4384   0.522E-02    0.262E-02
DAV:   6    -0.345136441650E+02    0.76059E-05   -0.61931E-05  4528   0.380E-02    0.107E-02
DAV:   7    -0.345136444728E+02   -0.30784E-06   -0.53767E-06  4024   0.124E-02
  61 F= -.34513644E+02 E0= -.34500613E+02  d E =0.127644E-02
quench:  g(F)=  0.000E+00 g(S)=  0.000E+00 dE (1.order)= 0.000E+00
 bond charge predicted
       N       E                     dE             d eps       ncg     rms          rms(c)
DAV:   1    -0.345134208895E+02    0.22328E-03   -0.40325E-01  3264   0.309E+00    0.203E-01
DAV:   2    -0.345140623266E+02   -0.64144E-03   -0.85802E-03  4640   0.449E-01    0.153E-01
DAV:   3    -0.345141472737E+02   -0.84947E-04   -0.63786E-03  4888   0.335E-01    0.147E-01
DAV:   4    -0.345137804744E+02    0.36680E-03   -0.27376E-03  4976   0.208E-01    0.628E-02
DAV:   5    -0.345137623153E+02    0.18159E-04   -0.26056E-04  4448   0.732E-02    0.447E-02
DAV:   6    -0.345137408259E+02    0.21489E-04   -0.11304E-04  4528   0.496E-02    0.118E-02
DAV:   7    -0.345137420059E+02   -0.11800E-05   -0.10128E-05  4312   0.163E-02    0.679E-03
DAV:   8    -0.345137415616E+02    0.44421E-06   -0.22449E-06  2656   0.752E-03
  62 F= -.34513742E+02 E0= -.34500701E+02  d E =-.970888E-04
quench:  g(F)=  0.000E+00 g(S)=  0.000E+00 dE (1.order)= 0.000E+00
 bond charge predicted
       N       E                     dE             d eps       ncg     rms          rms(c)
DAV:   1    -0.345144750040E+02   -0.73300E-03   -0.16264E-01  3264   0.195E+00    0.136E-01
DAV:   2    -0.345146620137E+02   -0.18701E-03   -0.23733E-03  4384   0.241E-01    0.509E-02
DAV:   3    -0.345146966457E+02   -0.34632E-04   -0.67765E-04  4912   0.112E-01    0.635E-02
DAV:   4    -0.345146390933E+02    0.57552E-04   -0.45045E-04  4920   0.849E-02    0.304E-02
DAV:   5    -0.345146335921E+02    0.55012E-05   -0.57283E-05  4328   0.349E-02    0.163E-02
DAV:   6    -0.345146302774E+02    0.33147E-05   -0.26399E-05  4528   0.245E-02    0.567E-03
DAV:   7    -0.345146303280E+02   -0.50617E-07   -0.22368E-06  2240   0.821E-03
  63 F= -.34514630E+02 E0= -.34501779E+02  d E =-.888766E-03
quench:  g(F)=  0.000E+00 g(S)=  0.000E+00 dE (1.order)= 0.000E+00
 bond charge predicted
       N       E                     dE             d eps       ncg     rms          rms(c)
DAV:   1    -0.345155648748E+02   -0.93460E-03   -0.11972E-01  3264   0.167E+00    0.851E-02
DAV:   2    -0.345156839663E+02   -0.11909E-03   -0.18995E-03  4624   0.213E-01    0.727E-02
DAV:   3    -0.345156768460E+02    0.71204E-05   -0.13438E-03  4888   0.154E-01    0.631E-02
DAV:   4    -0.345156086362E+02    0.68210E-04   -0.49550E-04  5000   0.892E-02    0.276E-02
DAV:   5    -0.345156030851E+02    0.55511E-05   -0.59533E-05  4464   0.356E-02    0.200E-02
DAV:   6    -0.345155986054E+02    0.44797E-05   -0.18467E-05  4472   0.206E-02    0.550E-03
DAV:   7    -0.345155988931E+02   -0.28770E-06   -0.27713E-06  2808   0.835E-03
  64 F= -.34515599E+02 E0= -.34502892E+02  d E =-.968565E-03
quench:  g(F)=  0.000E+00 g(S)=  0.000E+00 dE (1.order)= 0.000E+00
 bond charge predicted
       N       E                     dE             d eps       ncg     rms          rms(c)
DAV:   1    -0.345167912341E+02   -0.11926E-02   -0.14394E-01  3264   0.182E+00    0.838E-02
DAV:   2    -0.345169168926E+02   -0.12566E-03   -0.19042E-03  4472   0.216E-01    0.646E-02
DAV:   3    -0.345169297117E+02   -0.12819E-04   -0.12315E-03  4888   0.148E-01    0.649E-02
DAV:   4    -0.345168552200E+02    0.74492E-04   -0.51953E-04  4984   0.909E-02    0.248E-02
DAV:   5    -0.345168501766E+02    0.50434E-05   -0.65159E-05  4424   0.372E-02    0.182E-02
DAV:   6    -0.345168459539E+02    0.42227E-05   -0.16968E-05  4384   0.203E-02    0.562E-03
DAV:   7    -0.345168461899E+02   -0.23603E-06   -0.29568E-06  2656   0.817E-03
  65 F= -.34516846E+02 E0= -.34504359E+02  d E =-.124730E-02
quench:  g(F)=  0.000E+00 g(S)=  0.000E+00 dE (1.order)= 0.000E+00
 bond charge predicted
       N       E                     dE             d eps       ncg     rms          rms(c)
DAV:   1    -0.345181850014E+02   -0.13390E-02   -0.18029E-01  3264   0.204E+00    0.945E-02
DAV:   2    -0.345183415192E+02   -0.15652E-03   -0.24344E-03  4488   0.246E-01    0.753E-02
DAV:   3    -0.345183492636E+02   -0.77444E-05   -0.15870E-03  4872   0.169E-01    0.723E-02
DAV:   4    -0.345182576286E+02    0.91635E-04   -0.63632E-04  4976   0.101E-01    0.289E-02
DAV:   5    -0.345182511424E+02    0.64862E-05   -0.80622E-05  4448   0.419E-02    0.221E-02
DAV:   6    -0.345182453462E+02    0.57962E-05   -0.23493E-05  4456   0.235E-02    0.681E-03
DAV:   7    -0.345182456499E+02   -0.30369E-06   -0.41420E-06  3472   0.962E-03
  66 F= -.34518246E+02 E0= -.34506002E+02  d E =-.139946E-02
quench:  g(F)=  0.000E+00 g(S)=  0.000E+00 dE (1.order)= 0.000E+00
 bond charge predicted
       N       E                     dE             d eps       ncg     rms          rms(c)
DAV:   1    -0.345193462569E+02   -0.11009E-02   -0.18322E-01  3264   0.206E+00    0.990E-02
DAV:   2    -0.345195154829E+02   -0.16923E-03   -0.25128E-03  4424   0.252E-01    0.650E-02
DAV:   3    -0.345195559209E+02   -0.40438E-04   -0.13946E-03  4864   0.158E-01    0.761E-02
DAV:   4    -0.345194545565E+02    0.10136E-03   -0.67877E-04  4960   0.104E-01    0.280E-02
DAV:   5    -0.345194487157E+02    0.58409E-05   -0.78235E-05  4296   0.420E-02    0.209E-02
DAV:   6    -0.345194433166E+02    0.53991E-05   -0.24521E-05  4472   0.244E-02    0.692E-03
DAV:   7    -0.345194435836E+02   -0.26708E-06   -0.28669E-06  2792   0.847E-03
  67 F= -.34519444E+02 E0= -.34507430E+02  d E =-.119793E-02
quench:  g(F)=  0.000E+00 g(S)=  0.000E+00 dE (1.order)= 0.000E+00
 bond charge predicted
       N       E                     dE             d eps       ncg     rms          rms(c)
DAV:   1    -0.345198570327E+02   -0.41372E-03   -0.15628E-01  3272   0.192E+00    0.879E-02
DAV:   2    -0.345200555700E+02   -0.19854E-03   -0.25356E-03  4392   0.250E-01    0.553E-02
DAV:   3    -0.345200852530E+02   -0.29683E-04   -0.88190E-04  4848   0.129E-01    0.636E-02
DAV:   4    -0.345200207369E+02    0.64516E-04   -0.45918E-04  4952   0.863E-02    0.275E-02
DAV:   5    -0.345200142731E+02    0.64638E-05   -0.50707E-05  4120   0.344E-02    0.161E-02
DAV:   6    -0.345200116428E+02    0.26303E-05   -0.19804E-05  4568   0.221E-02    0.499E-03
DAV:   7    -0.345200117387E+02   -0.95923E-07   -0.15091E-06  2376   0.724E-03
  68 F= -.34520012E+02 E0= -.34508139E+02  d E =-.568155E-03
quench:  g(F)=  0.000E+00 g(S)=  0.000E+00 dE (1.order)= 0.000E+00
 bond charge predicted
       N       E                     dE             d eps       ncg     rms          rms(c)
DAV:   1    -0.345196213582E+02    0.39028E-03   -0.11322E-01  3320   0.163E+00    0.827E-02
DAV:   2    -0.345198391093E+02   -0.21775E-03   -0.25141E-03  4424   0.241E-01    0.370E-02
DAV:   3    -0.345198345327E+02    0.45766E-05   -0.62624E-05  4976   0.410E-02    0.279E-02
DAV:   4    -0.345198389594E+02   -0.44267E-05   -0.68774E-05  4928   0.353E-02    0.258E-02
DAV:   5    -0.345198330464E+02    0.59130E-05   -0.11809E-04  4888   0.440E-02    0.158E-02
DAV:   6    -0.345198293958E+02    0.36506E-05   -0.28425E-05  4696   0.223E-02    0.482E-03
DAV:   7    -0.345198290852E+02    0.31065E-06   -0.18348E-06  2688   0.693E-03
  69 F= -.34519829E+02 E0= -.34507997E+02  d E =0.182654E-03
quench:  g(F)=  0.000E+00 g(S)=  0.000E+00 dE (1.order)= 0.000E+00
 bond charge predicted
       N       E                     dE             d eps       ncg     rms          rms(c)
DAV:   1    -0.345188028585E+02    0.10265E-02   -0.82278E-02  3376   0.137E+00    0.724E-02
DAV:   2    -0.345190439710E+02   -0.24111E-03   -0.26526E-03  4416   0.242E-01    0.372E-02
DAV:   3    -0.345190526148E+02   -0.86438E-05   -0.22709E-04  5184   0.720E-02    0.378E-02
DAV:   4    -0.345190394069E+02    0.13208E-04   -0.15681E-04  4912   0.508E-02    0.249E-02
DAV:   5    -0.345190345999E+02    0.48071E-05   -0.33651E-05  4656   0.261E-02    0.993E-03
DAV:   6    -0.345190339040E+02    0.69591E-06   -0.12711E-05  4600   0.170E-02    0.483E-03
DAV:   7    -0.345190337025E+02    0.20149E-06   -0.11924E-06  2160   0.622E-03
  70 F= -.34519034E+02 E0= -.34507127E+02  d E =0.795383E-03
quench:  g(F)=  0.000E+00 g(S)=  0.000E+00 dE (1.order)= 0.000E+00
 bond charge predicted
       N       E                     dE             d eps       ncg     rms          rms(c)
DAV:   1    -0.345177375573E+02    0.12963E-02   -0.86569E-02  3376   0.141E+00    0.929E-02
DAV:   2    -0.345180298592E+02   -0.29230E-03   -0.34120E-03  4512   0.277E-01    0.751E-02
DAV:   3    -0.345180399711E+02   -0.10112E-04   -0.13810E-03  4856   0.162E-01    0.687E-02
DAV:   4    -0.345179671414E+02    0.72830E-04   -0.54487E-04  4976   0.946E-02    0.322E-02
DAV:   5    -0.345179642044E+02    0.29369E-05   -0.57055E-05  4512   0.349E-02    0.211E-02
DAV:   6    -0.345179597988E+02    0.44056E-05   -0.30758E-05  4616   0.259E-02    0.759E-03
DAV:   7    -0.345179601476E+02   -0.34878E-06   -0.27576E-06  2800   0.888E-03
  71 F= -.34517960E+02 E0= -.34505925E+02  d E =0.107355E-02
quench:  g(F)=  0.000E+00 g(S)=  0.000E+00 dE (1.order)= 0.000E+00
 bond charge predicted
       N       E                     dE             d eps       ncg     rms          rms(c)
DAV:   1    -0.345168696195E+02    0.10902E-02   -0.84655E-02  3320   0.140E+00    0.977E-02
DAV:   2    -0.345171235408E+02   -0.25392E-03   -0.28360E-03  4408   0.252E-01    0.572E-02
DAV:   3    -0.345171723767E+02   -0.48836E-04   -0.11215E-03  4912   0.146E-01    0.713E-02
DAV:   4    -0.345170871222E+02    0.85255E-04   -0.55144E-04  5000   0.939E-02    0.255E-02
DAV:   5    -0.345170835153E+02    0.36069E-05   -0.34683E-05  4232   0.281E-02    0.130E-02
DAV:   6    -0.345170814136E+02    0.21016E-05   -0.17220E-05  4640   0.199E-02    0.620E-03
DAV:   7    -0.345170812422E+02    0.17144E-06   -0.17226E-06  2288   0.729E-03
  72 F= -.34517081E+02 E0= -.34504854E+02  d E =0.878905E-03
quench:  g(F)=  0.000E+00 g(S)=  0.000E+00 dE (1.order)= 0.000E+00
 bond charge predicted
       N       E                     dE             d eps       ncg     rms          rms(c)
DAV:   1    -0.345166480599E+02    0.43335E-03   -0.91774E-02  3264   0.147E+00    0.107E-01
DAV:   2    -0.345168203324E+02   -0.17227E-03   -0.23531E-03  4608   0.235E-01    0.805E-02
DAV:   3    -0.345168485968E+02   -0.28264E-04   -0.18210E-03  4896   0.179E-01    0.800E-02
DAV:   4    -0.345167402227E+02    0.10837E-03   -0.75288E-04  5008   0.110E-01    0.329E-02
DAV:   5    -0.345167361957E+02    0.40270E-05   -0.62731E-05  4416   0.369E-02    0.227E-02
DAV:   6    -0.345167311575E+02    0.50382E-05   -0.30392E-05  4624   0.255E-02    0.723E-03
DAV:   7    -0.345167315300E+02   -0.37246E-06   -0.26879E-06  2760   0.897E-03
  73 F= -.34516732E+02 E0= -.34504420E+02  d E =0.349712E-03
quench:  g(F)=  0.000E+00 g(S)=  0.000E+00 dE (1.order)= 0.000E+00
 bond charge predicted
       N       E                     dE             d eps       ncg     rms          rms(c)
DAV:   1    -0.345166510071E+02    0.80150E-04   -0.39435E-02  3264   0.962E-01    0.715E-02
DAV:   2    -0.345167167875E+02   -0.65780E-04   -0.85575E-04  4416   0.142E-01    0.367E-02
DAV:   3    -0.345167395981E+02   -0.22811E-04   -0.45919E-04  4912   0.914E-02    0.481E-02
DAV:   4    -0.345167002316E+02    0.39366E-04   -0.25836E-04  4960   0.640E-02    0.172E-02
DAV:   5    -0.345166968354E+02    0.33962E-05   -0.16777E-05  3984   0.197E-02    0.829E-03
DAV:   6    -0.345166960043E+02    0.83112E-06   -0.56361E-06  3464   0.118E-02
  74 F= -.34516696E+02 E0= -.34504274E+02  d E =0.355257E-04
quench:  g(F)=  0.000E+00 g(S)=  0.000E+00 dE (1.order)= 0.000E+00
 bond charge predicted
       N       E                     dE             d eps       ncg     rms          rms(c)
DAV:   1    -0.345167894449E+02   -0.92610E-04   -0.42014E-02  3264   0.994E-01    0.534E-02
DAV:   2    -0.345168561332E+02   -0.66688E-04   -0.93405E-04  4592   0.148E-01    0.510E-02
DAV:   3    -0.345168443106E+02    0.11823E-04   -0.55184E-04  4896   0.100E-01    0.385E-02
DAV:   4    -0.345168196713E+02    0.24639E-04   -0.18163E-04  5032   0.545E-02    0.182E-02
DAV:   5    -0.345168175031E+02    0.21682E-05   -0.26709E-05  4400   0.242E-02    0.133E-02
DAV:   6    -0.345168153759E+02    0.21272E-05   -0.85625E-06  3792   0.141E-02    0.454E-03
DAV:   7    -0.345168154332E+02   -0.57325E-07   -0.13493E-06  1824   0.573E-03
  75 F= -.34516815E+02 E0= -.34504345E+02  d E =-.119429E-03
quench:  g(F)=  0.000E+00 g(S)=  0.000E+00 dE (1.order)= 0.000E+00
 bond charge predicted
       N       E                     dE             d eps       ncg     rms          rms(c)
DAV:   1    -0.345170962341E+02   -0.28086E-03   -0.54573E-02  3264   0.112E+00    0.534E-02
DAV:   2    -0.345171856326E+02   -0.89398E-04   -0.10264E-03  4528   0.156E-01    0.532E-02
DAV:   3    -0.345171704894E+02    0.15143E-04   -0.57071E-04  4864   0.103E-01    0.367E-02
DAV:   4    -0.345171483713E+02    0.22118E-04   -0.17779E-04  5056   0.536E-02    0.165E-02
DAV:   5    -0.345171465294E+02    0.18419E-05   -0.22499E-05  4384   0.218E-02    0.102E-02
DAV:   6    -0.345171455190E+02    0.10104E-05   -0.80576E-06  3720   0.139E-02    0.215E-03
DAV:   7    -0.345171456549E+02   -0.13592E-06   -0.64692E-07  1832   0.456E-03
  76 F= -.34517146E+02 E0= -.34504620E+02  d E =-.330222E-03
quench:  g(F)=  0.000E+00 g(S)=  0.000E+00 dE (1.order)= 0.000E+00
 bond charge predicted
       N       E                     dE             d eps       ncg     rms          rms(c)
DAV:   1    -0.345176102442E+02   -0.46473E-03   -0.76068E-02  3264   0.133E+00    0.645E-02
DAV:   2    -0.345177225076E+02   -0.11226E-03   -0.13087E-03  4544   0.176E-01    0.598E-02
DAV:   3    -0.345177113833E+02    0.11124E-04   -0.80088E-04  4864   0.121E-01    0.460E-02
DAV:   4    -0.345176754185E+02    0.35965E-04   -0.27009E-04  5024   0.661E-02    0.197E-02
DAV:   5    -0.345176729337E+02    0.24848E-05   -0.28806E-05  4272   0.249E-02    0.122E-02
DAV:   6    -0.345176714489E+02    0.14848E-05   -0.12256E-05  4352   0.169E-02    0.297E-03
DAV:   7    -0.345176715786E+02   -0.12969E-06   -0.77366E-07  1896   0.510E-03
  77 F= -.34517672E+02 E0= -.34505118E+02  d E =-.525924E-03
quench:  g(F)=  0.000E+00 g(S)=  0.000E+00 dE (1.order)= 0.000E+00
 bond charge predicted
       N       E                     dE             d eps       ncg     rms          rms(c)
DAV:   1    -0.345182300533E+02   -0.55860E-03   -0.87625E-02  3264   0.142E+00    0.662E-02
DAV:   2    -0.345183458843E+02   -0.11583E-03   -0.13267E-03  4424   0.180E-01    0.517E-02
DAV:   3    -0.345183561457E+02   -0.10261E-04   -0.74715E-04  4840   0.118E-01    0.502E-02
DAV:   4    -0.345183114501E+02    0.44696E-04   -0.30912E-04  4992   0.705E-02    0.186E-02
DAV:   5    -0.345183086025E+02    0.28476E-05   -0.23467E-05  4048   0.230E-02    0.104E-02
DAV:   6    -0.345183077062E+02    0.89626E-06   -0.94068E-06  3904   0.152E-02
  78 F= -.34518308E+02 E0= -.34505719E+02  d E =-.636128E-03
quench:  g(F)=  0.000E+00 g(S)=  0.000E+00 dE (1.order)= 0.000E+00
 bond charge predicted
       N       E                     dE             d eps       ncg     rms          rms(c)
DAV:   1    -0.345187858764E+02   -0.47727E-03   -0.88811E-02  3264   0.144E+00    0.704E-02
DAV:   2    -0.345189108898E+02   -0.12501E-03   -0.14276E-03  4440   0.187E-01    0.509E-02
DAV:   3    -0.345189273900E+02   -0.16500E-04   -0.73251E-04  4848   0.117E-01    0.517E-02
DAV:   4    -0.345188810053E+02    0.46385E-04   -0.32708E-04  5000   0.727E-02    0.202E-02
DAV:   5    -0.345188782514E+02    0.27539E-05   -0.25145E-05  4072   0.240E-02    0.118E-02
DAV:   6    -0.345188772130E+02    0.10383E-05   -0.11114E-05  4176   0.163E-02    0.338E-03
DAV:   7    -0.345188772542E+02   -0.41200E-07   -0.77202E-07  1976   0.534E-03
  79 F= -.34518877E+02 E0= -.34506281E+02  d E =-.569548E-03
quench:  g(F)=  0.000E+00 g(S)=  0.000E+00 dE (1.order)= 0.000E+00
 bond charge predicted
       N       E                     dE             d eps       ncg     rms          rms(c)
DAV:   1    -0.345190919818E+02   -0.21477E-03   -0.74923E-02  3280   0.132E+00    0.635E-02
DAV:   2    -0.345192080053E+02   -0.11602E-03   -0.12853E-03  4344   0.176E-01    0.309E-02
DAV:   3    -0.345192197034E+02   -0.11698E-04   -0.23016E-04  4984   0.681E-02    0.358E-02
DAV:   4    -0.345192016077E+02    0.18096E-04   -0.14491E-04  4952   0.489E-02    0.177E-02
DAV:   5    -0.345191984083E+02    0.31994E-05   -0.13603E-05  3768   0.182E-02    0.485E-03
DAV:   6    -0.345191985549E+02   -0.14657E-06   -0.11611E-06  2608   0.600E-03
  80 F= -.34519199E+02 E0= -.34506550E+02  d E =-.321301E-03
quench:  g(F)=  0.000E+00 g(S)=  0.000E+00 dE (1.order)= 0.000E+00
 bond charge predicted
       N       E                     dE             d eps       ncg     rms          rms(c)
DAV:   1    -0.345190829763E+02    0.11543E-03   -0.57109E-02  3336   0.116E+00    0.597E-02
DAV:   2    -0.345192000630E+02   -0.11709E-03   -0.12758E-03  4384   0.172E-01    0.285E-02
DAV:   3    -0.345192080339E+02   -0.79709E-05   -0.15950E-04  5000   0.581E-02    0.301E-02
DAV:   4    -0.345191973486E+02    0.10685E-04   -0.10573E-04  4960   0.420E-02    0.177E-02
DAV:   5    -0.345191948646E+02    0.24840E-05   -0.13868E-05  4032   0.177E-02    0.557E-03
DAV:   6    -0.345191950820E+02   -0.21740E-06   -0.29297E-06  2768   0.954E-03
  81 F= -.34519195E+02 E0= -.34506533E+02  d E =0.347292E-05
quench:  g(F)=  0.000E+00 g(S)=  0.000E+00 dE (1.order)= 0.000E+00
 bond charge predicted
       N       E                     dE             d eps       ncg     rms          rms(c)
DAV:   1    -0.345188110429E+02    0.38382E-03   -0.46548E-02  3376   0.104E+00    0.660E-02
DAV:   2    -0.345189291274E+02   -0.11808E-03   -0.13369E-03  4408   0.173E-01    0.322E-02
DAV:   3    -0.345189350753E+02   -0.59479E-05   -0.16639E-04  5016   0.597E-02    0.308E-02
DAV:   4    -0.345189257253E+02    0.93500E-05   -0.11510E-04  4936   0.439E-02    0.209E-02
DAV:   5    -0.345189230309E+02    0.26944E-05   -0.24205E-05  4680   0.215E-02    0.106E-02
DAV:   6    -0.345189219045E+02    0.11264E-05   -0.11965E-05  4304   0.160E-02    0.472E-03
DAV:   7    -0.345189218105E+02    0.94017E-07   -0.96442E-07  1984   0.578E-03
  82 F= -.34518922E+02 E0= -.34506176E+02  d E =0.273271E-03
quench:  g(F)=  0.000E+00 g(S)=  0.000E+00 dE (1.order)= 0.000E+00
 bond charge predicted
       N       E                     dE             d eps       ncg     rms          rms(c)
DAV:   1    -0.345184422508E+02    0.47965E-03   -0.34468E-02  3376   0.887E-01    0.594E-02
DAV:   2    -0.345185447467E+02   -0.10250E-03   -0.11207E-03  4392   0.158E-01    0.226E-02
DAV:   3    -0.345185459354E+02   -0.11887E-05   -0.50756E-05  5112   0.361E-02    0.199E-02
DAV:   4    -0.345185456218E+02    0.31360E-06   -0.44473E-05  4880   0.274E-02    0.167E-02
DAV:   5    -0.345185432546E+02    0.23672E-05   -0.24229E-05  4848   0.208E-02    0.691E-03
DAV:   6    -0.345185430028E+02    0.25180E-06   -0.59911E-06  3464   0.118E-02
  83 F= -.34518543E+02 E0= -.34505806E+02  d E =0.378808E-03
quench:  g(F)=  0.000E+00 g(S)=  0.000E+00 dE (1.order)= 0.000E+00
 bond charge predicted
       N       E                     dE             d eps       ncg     rms          rms(c)
DAV:   1    -0.345181142777E+02    0.42898E-03   -0.36387E-02  3336   0.925E-01    0.672E-02
[...]
DAV:   2    -0.345193247232E+02   -0.13539E-04   -0.16319E-04  4584   0.618E-02    0.233E-02
DAV:   3    -0.345193244467E+02    0.27646E-06   -0.12363E-04  4888   0.470E-02    0.190E-02
DAV:   4    -0.345193186803E+02    0.57664E-05   -0.46974E-05  5000   0.273E-02    0.852E-03
DAV:   5    -0.345193185204E+02    0.15994E-06   -0.48317E-06  3224   0.103E-02
 125 F= -.34519319E+02 E0= -.34507172E+02  d E =-.132448E-04
quench:  g(F)=  0.000E+00 g(S)=  0.000E+00 dE (1.order)= 0.000E+00
 bond charge predicted
       N       E                     dE             d eps       ncg     rms          rms(c)
DAV:   1    -0.345193433439E+02   -0.24664E-04   -0.64232E-03  3264   0.385E-01    0.211E-02
DAV:   2    -0.345193522018E+02   -0.88580E-05   -0.10499E-04  4416   0.502E-02    0.150E-02
DAV:   3    -0.345193541986E+02   -0.19968E-05   -0.73700E-05  4888   0.365E-02    0.165E-02
DAV:   4    -0.345193491518E+02    0.50469E-05   -0.32483E-05  4872   0.226E-02    0.524E-03
DAV:   5    -0.345193488126E+02    0.33920E-06   -0.14501E-06  2344   0.616E-03
 126 F= -.34519349E+02 E0= -.34507162E+02  d E =-.302922E-04
quench:  g(F)=  0.000E+00 g(S)=  0.000E+00 dE (1.order)= 0.000E+00
 bond charge predicted
       N       E                     dE             d eps       ncg     rms          rms(c)
DAV:   1    -0.345193866821E+02   -0.37530E-04   -0.61116E-03  3264   0.377E-01    0.217E-02
DAV:   2    -0.345193952292E+02   -0.85471E-05   -0.10716E-04  4576   0.508E-02    0.185E-02
DAV:   3    -0.345193953289E+02   -0.99635E-07   -0.84804E-05  4880   0.389E-02    0.159E-02
DAV:   4    -0.345193911081E+02    0.42208E-05   -0.31446E-05  4816   0.224E-02    0.663E-03
DAV:   5    -0.345193909269E+02    0.18115E-06   -0.26929E-06  2608   0.806E-03
 127 F= -.34519391E+02 E0= -.34507189E+02  d E =-.421144E-04
quench:  g(F)=  0.000E+00 g(S)=  0.000E+00 dE (1.order)= 0.000E+00
 bond charge predicted
       N       E                     dE             d eps       ncg     rms          rms(c)
DAV:   1    -0.345194304407E+02   -0.39333E-04   -0.49672E-03  3264   0.338E-01    0.176E-02
DAV:   2    -0.345194361084E+02   -0.56677E-05   -0.68646E-05  4368   0.413E-02    0.114E-02
DAV:   3    -0.345194377251E+02   -0.16167E-05   -0.44768E-05  4848   0.285E-02    0.135E-02
DAV:   4    -0.345194343773E+02    0.33478E-05   -0.21135E-05  4392   0.183E-02    0.435E-03
DAV:   5    -0.345194341434E+02    0.23386E-06   -0.10303E-06  2240   0.532E-03
 128 F= -.34519434E+02 E0= -.34507203E+02  d E =-.432165E-04
quench:  g(F)=  0.000E+00 g(S)=  0.000E+00 dE (1.order)= 0.000E+00
 bond charge predicted
       N       E                     dE             d eps       ncg     rms          rms(c)
DAV:   1    -0.345194709556E+02   -0.36578E-04   -0.47165E-03  3264   0.332E-01    0.172E-02
DAV:   2    -0.345194771503E+02   -0.61947E-05   -0.74481E-05  4480   0.430E-02    0.132E-02
DAV:   3    -0.345194779080E+02   -0.75778E-06   -0.47316E-05  4848   0.294E-02    0.127E-02
DAV:   4    -0.345194751571E+02    0.27510E-05   -0.19615E-05  4264   0.178E-02    0.506E-03
DAV:   5    -0.345194750596E+02    0.97514E-07   -0.16746E-06  2352   0.668E-03
 129 F= -.34519475E+02 E0= -.34507232E+02  d E =-.409161E-04
quench:  g(F)=  0.000E+00 g(S)=  0.000E+00 dE (1.order)= 0.000E+00
 bond charge predicted
       N       E                     dE             d eps       ncg     rms          rms(c)
DAV:   1    -0.345195026984E+02   -0.27541E-04   -0.43288E-03  3264   0.318E-01    0.151E-02
DAV:   2    -0.345195082341E+02   -0.55357E-05   -0.65299E-05  4344   0.401E-02    0.875E-03
DAV:   3    -0.345195093001E+02   -0.10660E-05   -0.23522E-05  4696   0.211E-02    0.106E-02
DAV:   4    -0.345195074084E+02    0.18917E-05   -0.12709E-05  3968   0.145E-02    0.417E-03
DAV:   5    -0.345195072247E+02    0.18368E-06   -0.91918E-07  2096   0.522E-03
 130 F= -.34519507E+02 E0= -.34507243E+02  d E =-.321652E-04
quench:  g(F)=  0.000E+00 g(S)=  0.000E+00 dE (1.order)= 0.000E+00
 bond charge predicted
       N       E                     dE             d eps       ncg     rms          rms(c)
DAV:   1    -0.345195200295E+02   -0.12621E-04   -0.38814E-03  3280   0.302E-01    0.146E-02
DAV:   2    -0.345195264396E+02   -0.64101E-05   -0.72574E-05  4376   0.417E-02    0.893E-03
DAV:   3    -0.345195274195E+02   -0.97995E-06   -0.22495E-05  4672   0.209E-02    0.101E-02
DAV:   4    -0.345195257863E+02    0.16333E-05   -0.11715E-05  3944   0.140E-02    0.433E-03
DAV:   5    -0.345195257133E+02    0.72971E-07   -0.10126E-06  2104   0.551E-03
 131 F= -.34519526E+02 E0= -.34507255E+02  d E =-.184886E-04
quench:  g(F)=  0.000E+00 g(S)=  0.000E+00 dE (1.order)= 0.000E+00
 bond charge predicted
       N       E                     dE             d eps       ncg     rms          rms(c)
DAV:   1    -0.345195195188E+02    0.62675E-05   -0.34232E-03  3344   0.283E-01    0.143E-02
DAV:   2    -0.345195262908E+02   -0.67720E-05   -0.77836E-05  4392   0.420E-02    0.642E-03
DAV:   3    -0.345195261731E+02    0.11774E-06   -0.24127E-06  3624   0.837E-03
 132 F= -.34519526E+02 E0= -.34507244E+02  d E =-.459761E-06
quench:  g(F)=  0.000E+00 g(S)=  0.000E+00 dE (1.order)= 0.000E+00
 bond charge predicted
       N       E                     dE             d eps       ncg     rms          rms(c)
DAV:   1    -0.345195010170E+02    0.25274E-04   -0.29704E-03  3368   0.261E-01    0.144E-02
DAV:   2    -0.345195103438E+02   -0.93268E-05   -0.10342E-04  4456   0.483E-02    0.127E-02
DAV:   3    -0.345195102111E+02    0.13272E-06   -0.37178E-05  4864   0.271E-02    0.116E-02
DAV:   4    -0.345195082702E+02    0.19409E-05   -0.11235E-05  3736   0.138E-02    0.500E-03
DAV:   5    -0.345195082056E+02    0.64540E-07   -0.10304E-06  2136   0.586E-03
 133 F= -.34519508E+02 E0= -.34507227E+02  d E =0.179674E-04
quench:  g(F)=  0.000E+00 g(S)=  0.000E+00 dE (1.order)= 0.000E+00
 bond charge predicted
       N       E                     dE             d eps       ncg     rms          rms(c)
DAV:   1    -0.345194671230E+02    0.41147E-04   -0.29261E-03  3400   0.256E-01    0.153E-02
DAV:   2    -0.345194763177E+02   -0.91947E-05   -0.10993E-04  4408   0.495E-02    0.999E-03
DAV:   3    -0.345194767598E+02   -0.44212E-06   -0.21910E-05  4752   0.213E-02    0.977E-03
DAV:   4    -0.345194754953E+02    0.12646E-05   -0.10942E-05  3784   0.139E-02    0.533E-03
DAV:   5    -0.345194753771E+02    0.11812E-06   -0.18742E-06  2344   0.705E-03
 134 F= -.34519475E+02 E0= -.34507195E+02  d E =0.328285E-04
quench:  g(F)=  0.000E+00 g(S)=  0.000E+00 dE (1.order)= 0.000E+00
 bond charge predicted
       N       E                     dE             d eps       ncg     rms          rms(c)
DAV:   1    -0.345194278196E+02    0.47676E-04   -0.30755E-03  3408   0.260E-01    0.156E-02
DAV:   2    -0.345194382593E+02   -0.10440E-04   -0.11886E-04  4408   0.513E-02    0.966E-03
DAV:   3    -0.345194392288E+02   -0.96952E-06   -0.25901E-05  4888   0.230E-02    0.108E-02
DAV:   4    -0.345194375026E+02    0.17262E-05   -0.13622E-05  4024   0.151E-02    0.494E-03
DAV:   5    -0.345194374291E+02    0.73520E-07   -0.17274E-06  2264   0.663E-03
 135 F= -.34519437E+02 E0= -.34507179E+02  d E =0.379481E-04
quench:  g(F)=  0.000E+00 g(S)=  0.000E+00 dE (1.order)= 0.000E+00
 bond charge predicted
       N       E                     dE             d eps       ncg     rms          rms(c)
DAV:   1    -0.345193980615E+02    0.39441E-04   -0.48022E-03  3304   0.337E-01    0.224E-02
DAV:   2    -0.345194109728E+02   -0.12911E-04   -0.16988E-04  4568   0.624E-02    0.184E-02
DAV:   3    -0.345194110071E+02   -0.34264E-07   -0.81669E-05  4880   0.390E-02    0.162E-02
DAV:   4    -0.345194068686E+02    0.41384E-05   -0.31566E-05  4760   0.227E-02    0.757E-03
DAV:   5    -0.345194065434E+02    0.32527E-06   -0.34590E-06  2944   0.882E-03
 136 F= -.34519407E+02 E0= -.34507166E+02  d E =0.308857E-04
quench:  g(F)=  0.000E+00 g(S)=  0.000E+00 dE (1.order)= 0.000E+00
 bond charge predicted
       N       E                     dE             d eps       ncg     rms          rms(c)
DAV:   1    -0.345193879060E+02    0.18963E-04   -0.51350E-03  3264   0.348E-01    0.233E-02
DAV:   2    -0.345193984347E+02   -0.10529E-04   -0.12624E-04  4408   0.538E-02    0.116E-02
DAV:   3    -0.345194009330E+02   -0.24983E-05   -0.47543E-05  4912   0.299E-02    0.153E-02
DAV:   4    -0.345193970982E+02    0.38348E-05   -0.26783E-05  4680   0.207E-02    0.574E-03
DAV:   5    -0.345193969766E+02    0.12162E-06   -0.22095E-06  2456   0.723E-03
 137 F= -.34519397E+02 E0= -.34507203E+02  d E =0.956676E-05
quench:  g(F)=  0.000E+00 g(S)=  0.000E+00 dE (1.order)= 0.000E+00
 bond charge predicted
       N       E                     dE             d eps       ncg     rms          rms(c)
DAV:   1    -0.345194065245E+02   -0.94262E-05   -0.49663E-03  3264   0.343E-01    0.238E-02
DAV:   2    -0.345194129730E+02   -0.64485E-05   -0.11148E-04  4568   0.518E-02    0.174E-02
DAV:   3    -0.345194141295E+02   -0.11565E-05   -0.85904E-05  4864   0.392E-02    0.172E-02
DAV:   4    -0.345194090415E+02    0.50880E-05   -0.36578E-05  4864   0.242E-02    0.727E-03
DAV:   5    -0.345194086526E+02    0.38893E-06   -0.33028E-06  2872   0.871E-03
 138 F= -.34519409E+02 E0= -.34507240E+02  d E =-.116760E-04
quench:  g(F)=  0.000E+00 g(S)=  0.000E+00 dE (1.order)= 0.000E+00
 bond charge predicted
       N       E                     dE             d eps       ncg     rms          rms(c)
DAV:   1    -0.345194282283E+02   -0.19187E-04   -0.26886E-03  3264   0.251E-01    0.171E-02
DAV:   2    -0.345194309932E+02   -0.27649E-05   -0.45477E-05  4368   0.332E-02    0.807E-03
DAV:   3    -0.345194322458E+02   -0.12527E-05   -0.23760E-05  4800   0.207E-02    0.110E-02
DAV:   4    -0.345194302027E+02    0.20432E-05   -0.14016E-05  4072   0.150E-02    0.400E-03
DAV:   5    -0.345194301996E+02    0.31196E-08   -0.15633E-06  2208   0.638E-03
 139 F= -.34519430E+02 E0= -.34507301E+02  d E =-.215469E-04
quench:  g(F)=  0.000E+00 g(S)=  0.000E+00 dE (1.order)= 0.000E+00
 bond charge predicted
       N       E                     dE             d eps       ncg     rms          rms(c)
DAV:   1    -0.345194574230E+02   -0.27220E-04   -0.27178E-03  3264   0.253E-01    0.145E-02
DAV:   2    -0.345194594158E+02   -0.19928E-05   -0.50129E-05  4552   0.352E-02    0.112E-02
DAV:   3    -0.345194595558E+02   -0.13997E-06   -0.33754E-05  4872   0.247E-02    0.106E-02
DAV:   4    -0.345194575675E+02    0.19883E-05   -0.14530E-05  4088   0.154E-02    0.465E-03
DAV:   5    -0.345194573471E+02    0.22037E-06   -0.19021E-06  2280   0.706E-03
 140 F= -.34519457E+02 E0= -.34507359E+02  d E =-.271475E-04
quench:  g(F)=  0.000E+00 g(S)=  0.000E+00 dE (1.order)= 0.000E+00
 bond charge predicted
       N       E                     dE             d eps       ncg     rms          rms(c)
DAV:   1    -0.345194895285E+02   -0.31961E-04   -0.31330E-03  3264   0.271E-01    0.149E-02
DAV:   2    -0.345194918106E+02   -0.22821E-05   -0.50304E-05  4448   0.354E-02    0.103E-02
DAV:   3    -0.345194925587E+02   -0.74808E-06   -0.33716E-05  4864   0.246E-02    0.115E-02
DAV:   4    -0.345194901620E+02    0.23967E-05   -0.16328E-05  4152   0.162E-02    0.424E-03
DAV:   5    -0.345194900241E+02    0.13796E-06   -0.20442E-06  2328   0.727E-03
 141 F= -.34519490E+02 E0= -.34507430E+02  d E =-.326770E-04
quench:  g(F)=  0.000E+00 g(S)=  0.000E+00 dE (1.order)= 0.000E+00
 bond charge predicted
       N       E                     dE             d eps       ncg     rms          rms(c)
DAV:   1    -0.345195207139E+02   -0.30552E-04   -0.35158E-03  3264   0.288E-01    0.153E-02
DAV:   2    -0.345195237209E+02   -0.30070E-05   -0.59068E-05  4480   0.385E-02    0.118E-02
DAV:   3    -0.345195240464E+02   -0.32545E-06   -0.37353E-05  4864   0.262E-02    0.116E-02
DAV:   4    -0.345195216832E+02    0.23631E-05   -0.16279E-05  4144   0.163E-02    0.488E-03
DAV:   5    -0.345195214343E+02    0.24892E-06   -0.20598E-06  2360   0.736E-03
 142 F= -.34519521E+02 E0= -.34507491E+02  d E =-.314102E-04
quench:  g(F)=  0.000E+00 g(S)=  0.000E+00 dE (1.order)= 0.000E+00
 bond charge predicted
       N       E                     dE             d eps       ncg     rms          rms(c)
DAV:   1    -0.345195401773E+02   -0.18494E-04   -0.31547E-03  3264   0.273E-01    0.147E-02
DAV:   2    -0.345195434983E+02   -0.33210E-05   -0.53216E-05  4376   0.365E-02    0.884E-03
DAV:   3    -0.345195443352E+02   -0.83685E-06   -0.23429E-05  4640   0.209E-02    0.105E-02
DAV:   4    -0.345195424536E+02    0.18815E-05   -0.12841E-05  4040   0.145E-02    0.428E-03
DAV:   5    -0.345195422405E+02    0.21311E-06   -0.13301E-06  2200   0.604E-03
 143 F= -.34519542E+02 E0= -.34507537E+02  d E =-.208062E-04
quench:  g(F)=  0.000E+00 g(S)=  0.000E+00 dE (1.order)= 0.000E+00
 bond charge predicted
       N       E                     dE             d eps       ncg     rms          rms(c)
DAV:   1    -0.345195446287E+02   -0.21750E-05   -0.24237E-03  3280   0.240E-01    0.128E-02
DAV:   2    -0.345195481660E+02   -0.35373E-05   -0.50533E-05  4416   0.348E-02    0.773E-03
DAV:   3    -0.345195485739E+02   -0.40793E-06   -0.14094E-05  4248   0.167E-02    0.829E-03
DAV:   4    -0.345195474986E+02    0.10753E-05   -0.81437E-06  3536   0.123E-02    0.412E-03
DAV:   5    -0.345195472400E+02    0.25854E-06   -0.10738E-06  2016   0.558E-03
 144 F= -.34519547E+02 E0= -.34507550E+02  d E =-.499948E-05
quench:  g(F)=  0.000E+00 g(S)=  0.000E+00 dE (1.order)= 0.000E+00
 bond charge predicted
       N       E                     dE             d eps       ncg     rms          rms(c)
DAV:   1    -0.345195352714E+02    0.12227E-04   -0.17799E-03  3360   0.205E-01    0.132E-02
DAV:   2    -0.345195388158E+02   -0.35444E-05   -0.48325E-05  4408   0.331E-02    0.582E-03
DAV:   3    -0.345195386610E+02    0.15477E-06   -0.17995E-06  3216   0.729E-03
 145 F= -.34519539E+02 E0= -.34507546E+02  d E =0.857899E-05
quench:  g(F)=  0.000E+00 g(S)=  0.000E+00 dE (1.order)= 0.000E+00
 bond charge predicted
       N       E                     dE             d eps       ncg     rms          rms(c)
DAV:   1    -0.345195189025E+02    0.19913E-04   -0.13636E-03  3400   0.177E-01    0.128E-02
DAV:   2    -0.345195237114E+02   -0.48089E-05   -0.62414E-05  4616   0.374E-02    0.117E-02
DAV:   3    -0.345195232375E+02    0.47390E-06   -0.36302E-05  4896   0.260E-02    0.107E-02
DAV:   4    -0.345195213261E+02    0.19114E-05   -0.83969E-06  3576   0.121E-02    0.374E-03
DAV:   5    -0.345195211636E+02    0.16256E-06   -0.95847E-07  1952   0.532E-03
 146 F= -.34519521E+02 E0= -.34507514E+02  d E =0.174975E-04
quench:  g(F)=  0.000E+00 g(S)=  0.000E+00 dE (1.order)= 0.000E+00
 bond charge predicted
       N       E                     dE             d eps       ncg     rms          rms(c)
DAV:   1    -0.345194990189E+02    0.22307E-04   -0.15149E-03  3360   0.189E-01    0.139E-02
DAV:   2    -0.345195028255E+02   -0.38067E-05   -0.54614E-05  4488   0.355E-02    0.934E-03
DAV:   3    -0.345195034106E+02   -0.58510E-06   -0.24578E-05  4752   0.214E-02    0.981E-03
DAV:   4    -0.345195018288E+02    0.15818E-05   -0.11067E-05  3776   0.137E-02    0.413E-03
DAV:   5    -0.345195017549E+02    0.73946E-07   -0.13319E-06  2104   0.614E-03
 147 F= -.34519502E+02 E0= -.34507484E+02  d E =0.194087E-04
quench:  g(F)=  0.000E+00 g(S)=  0.000E+00 dE (1.order)= 0.000E+00
 bond charge predicted
       N       E                     dE             d eps       ncg     rms          rms(c)
DAV:   1    -0.345194838917E+02    0.17937E-04   -0.14147E-03  3312   0.182E-01    0.130E-02
DAV:   2    -0.345194868634E+02   -0.29717E-05   -0.41582E-05  4376   0.307E-02    0.584E-03
DAV:   3    -0.345194870694E+02   -0.20606E-06   -0.75020E-06  3736   0.127E-02
 148 F= -.34519487E+02 E0= -.34507440E+02  d E =0.146854E-04
quench:  g(F)=  0.000E+00 g(S)=  0.000E+00 dE (1.order)= 0.000E+00
 bond charge predicted
       N       E                     dE             d eps       ncg     rms          rms(c)
DAV:   1    -0.345194792611E+02    0.76023E-05   -0.18054E-03  3264   0.207E-01    0.152E-02
DAV:   2    -0.345194811185E+02   -0.18574E-05   -0.42964E-05  4584   0.320E-02    0.982E-03
DAV:   3    -0.345194814550E+02   -0.33648E-06   -0.21395E-05  4696   0.198E-02    0.941E-03
DAV:   4    -0.345194801400E+02    0.13150E-05   -0.12920E-05  4008   0.146E-02    0.547E-03
DAV:   5    -0.345194798618E+02    0.27818E-06   -0.24647E-06  2384   0.778E-03
 149 F= -.34519480E+02 E0= -.34507416E+02  d E =0.720767E-05
quench:  g(F)=  0.000E+00 g(S)=  0.000E+00 dE (1.order)= 0.000E+00
 bond charge predicted
       N       E                     dE             d eps       ncg     rms          rms(c)
DAV:   1    -0.345194806027E+02   -0.46273E-06   -0.14531E-03  3264   0.185E-01    0.121E-02
DAV:   2    -0.345194823470E+02   -0.17443E-05   -0.27225E-05  4352   0.256E-02    0.589E-03
DAV:   3    -0.345194827150E+02   -0.36801E-06   -0.93899E-06  3904   0.135E-02
 150 F= -.34519483E+02 E0= -.34507395E+02  d E =-.285318E-05
quench:  g(F)=  0.000E+00 g(S)=  0.000E+00 dE (1.order)= 0.000E+00
 bond charge predicted
       N       E                     dE             d eps       ncg     rms          rms(c)
DAV:   1    -0.345194902689E+02   -0.79219E-05   -0.17384E-03  3264   0.202E-01    0.127E-02
DAV:   2    -0.345194923848E+02   -0.21159E-05   -0.30798E-05  4616   0.268E-02    0.994E-03
DAV:   3    -0.345194927219E+02   -0.33709E-06   -0.21153E-05  4592   0.194E-02    0.869E-03
DAV:   4    -0.345194915624E+02    0.11595E-05   -0.11673E-05  3912   0.138E-02    0.479E-03
DAV:   5    -0.345194914380E+02    0.12438E-06   -0.17067E-06  2128   0.666E-03
 151 F= -.34519491E+02 E0= -.34507391E+02  d E =-.872304E-05
quench:  g(F)=  0.000E+00 g(S)=  0.000E+00 dE (1.order)= 0.000E+00
 bond charge predicted
       N       E                     dE             d eps       ncg     rms          rms(c)
DAV:   1    -0.345195030986E+02   -0.11536E-04   -0.17602E-03  3264   0.202E-01    0.989E-03
DAV:   2    -0.345195051209E+02   -0.20223E-05   -0.24512E-05  4384   0.244E-02    0.653E-03
DAV:   3    -0.345195056614E+02   -0.54051E-06   -0.14504E-05  4128   0.164E-02    0.764E-03
DAV:   4    -0.345195045613E+02    0.11001E-05   -0.67312E-06  3408   0.110E-02    0.233E-03
DAV:   5    -0.345195045383E+02    0.23006E-07   -0.47674E-07  1776   0.384E-03
 152 F= -.34519505E+02 E0= -.34507385E+02  d E =-.131003E-04
quench:  g(F)=  0.000E+00 g(S)=  0.000E+00 dE (1.order)= 0.000E+00
 bond charge predicted
       N       E                     dE             d eps       ncg     rms          rms(c)
DAV:   1    -0.345195200345E+02   -0.15473E-04   -0.21662E-03  3264   0.224E-01    0.112E-02
DAV:   2    -0.345195227653E+02   -0.27308E-05   -0.33325E-05  4560   0.284E-02    0.952E-03
DAV:   3    -0.345195228225E+02   -0.57209E-07   -0.22120E-05  4576   0.201E-02    0.815E-03
DAV:   4    -0.345195216874E+02    0.11352E-05   -0.81004E-06  3544   0.118E-02    0.329E-03
DAV:   5    -0.345195216729E+02    0.14469E-07   -0.90136E-07  1920   0.525E-03
 153 F= -.34519522E+02 E0= -.34507390E+02  d E =-.171346E-04
quench:  g(F)=  0.000E+00 g(S)=  0.000E+00 dE (1.order)= 0.000E+00
 bond charge predicted
       N       E                     dE             d eps       ncg     rms          rms(c)
DAV:   1    -0.345195377064E+02   -0.16019E-04   -0.22731E-03  3264   0.229E-01    0.105E-02
DAV:   2    -0.345195402118E+02   -0.25054E-05   -0.30408E-05  4440   0.275E-02    0.748E-03
DAV:   3    -0.345195406780E+02   -0.46619E-06   -0.17062E-05  4256   0.178E-02    0.803E-03
DAV:   4    -0.345195394696E+02    0.12084E-05   -0.76182E-06  3496   0.116E-02    0.280E-03
DAV:   5    -0.345195393981E+02    0.71498E-07   -0.60994E-07  1872   0.435E-03
 154 F= -.34519539E+02 E0= -.34507390E+02  d E =-.177252E-04
quench:  g(F)=  0.000E+00 g(S)=  0.000E+00 dE (1.order)= 0.000E+00
 reached required accuracy - stopping structural energy minimisation
