6    
3    

1    
  0.0010724378638292  -0.0018575168681129   0.0097672671773071
  -0.0210010800    0.0364068100   -0.2896603800
   0.0000108500   -0.0000184400    0.0003592500
   0.0107128300   -0.0185736600    0.1497917400
  -0.0000019500    0.0000030700    0.0032952300
   0.0102811200   -0.0178209400    0.1396542200
  -0.0000017600    0.0000031500   -0.0034400600

3    
  0.0010724378638292  -0.0018575168681129   0.0097672671773071
   0.0102969400   -0.0177959500    0.1430080400
  -0.0000015800    0.0000030900   -0.0000930800
  -0.0098922300    0.0170821900   -0.1577972800
   0.0000061400   -0.0000108800    0.0034195500
  -0.0004111400    0.0007245400    0.0146431500
   0.0000018800   -0.0000029900   -0.0031803800

3    
 -0.0010724378638292   0.0018575168681129  -0.0097672671773071
  -0.0107110000    0.0185949400   -0.1463922200
   0.0000020200   -0.0000033100    0.0001124400
   0.0102970600   -0.0178911000    0.1681912000
  -0.0000062100    0.0000104300    0.0033051400
   0.0004193600   -0.0007134800   -0.0216899200
  -0.0000012300    0.0000025200   -0.0035266500
