mesh: [     8,     8,     8 ]
nqpoint: 80     
reciprocal_lattice:
- [   0.31423948,  -0.18142625,   0.00000000 ] # a*
- [   0.31423948,   0.18142625,   0.00000000 ] # b*
- [   0.00000000,   0.00000000,   0.06900647 ] # c*
natom:   6      
lattice:
- [     1.591143166609197,    -2.755940806683155,     0.000000000000000 ] # a
- [     1.591143166609197,     2.755940806683155,     0.000000000000000 ] # b
- [     0.000000000000000,     0.000000000000000,    14.491394746291036 ] # c
points:
- symbol: Mo # 1
  coordinates: [  0.333333333333336,  0.666666666666664,  0.250000000000000 ]
  mass: 95.960000
- symbol: Mo # 2
  coordinates: [  0.666666666666664,  0.333333333333336,  0.750000000000000 ]
  mass: 95.960000
- symbol: S  # 3
  coordinates: [  0.666666666666664,  0.333333333333336,  0.357701869097680 ]
  mass: 32.065000
- symbol: S  # 4
  coordinates: [  0.333333333333336,  0.666666666666664,  0.857701869097679 ]
  mass: 32.065000
- symbol: S  # 5
  coordinates: [  0.666666666666664,  0.333333333333336,  0.142298130902320 ]
  mass: 32.065000
- symbol: S  # 6
  coordinates: [  0.333333333333336,  0.666666666666664,  0.642298130902321 ]
  mass: 32.065000

phonon:
- q-position: [    0.0625000,    0.0625000,    0.0625000 ]
  distance_from_gamma:  0.039516002
  weight: 4    
  band:
  - # 1
    frequency:     1.7419664187
  - # 2
    frequency:     1.7419664187
  - # 3
    frequency:     1.7559114567
  - # 4
    frequency:     1.7559114567
  - # 5
    frequency:     2.1434574771
  - # 6
    frequency:     2.1737140615
  - # 7
    frequency:     8.2927996405
  - # 8
    frequency:     8.2927996405
  - # 9
    frequency:     8.2964499049
  - # 10
    frequency:     8.2964499049
  - # 11
    frequency:    11.0227111846
  - # 12
    frequency:    11.0227111846
  - # 13
    frequency:    11.0272891797
  - # 14
    frequency:    11.0272891797
  - # 15
    frequency:    11.8864240454
  - # 16
    frequency:    11.8935078694
  - # 17
    frequency:    13.5536229844
  - # 18
    frequency:    13.5675790126

- q-position: [    0.1875000,    0.0625000,    0.0625000 ]
  distance_from_gamma:  0.081881370
  weight: 8    
  band:
  - # 1
    frequency:     3.5382230575
  - # 2
    frequency:     3.5382230575
  - # 3
    frequency:     3.5433699489
  - # 4
    frequency:     3.5433699489
  - # 5
    frequency:     4.3534885455
  - # 6
    frequency:     4.3637020242
  - # 7
    frequency:     8.2931064094
  - # 8
    frequency:     8.2931064094
  - # 9
    frequency:     8.2961432603
  - # 10
    frequency:     8.2961432603
  - # 11
    frequency:    10.5843359092
  - # 12
    frequency:    10.5843359092
  - # 13
    frequency:    10.5884975757
  - # 14
    frequency:    10.5884975757
  - # 15
    frequency:    11.8870192921
  - # 16
    frequency:    11.8929126994
  - # 17
    frequency:    13.0148002265
  - # 18
    frequency:    13.0276460705

- q-position: [    0.3125000,    0.0625000,    0.0625000 ]
  distance_from_gamma:  0.126340961
  weight: 8    
  band:
  - # 1
    frequency:     5.1795595994
  - # 2
    frequency:     5.1795595994
  - # 3
    frequency:     5.1812919495
  - # 4
    frequency:     5.1812919495
  - # 5
    frequency:     6.3729549662
  - # 6
    frequency:     6.3750933027
  - # 7
    frequency:     8.2935780250
  - # 8
    frequency:     8.2935780250
  - # 9
    frequency:     8.2956717928
  - # 10
    frequency:     8.2956717928
  - # 11
    frequency:     9.8862881099
  - # 12
    frequency:     9.8862881099
  - # 13
    frequency:     9.8897231514
  - # 14
    frequency:     9.8897231514
  - # 15
    frequency:    11.8879333342
  - # 16
    frequency:    11.8919964599
  - # 17
    frequency:    12.1568554101
  - # 18
    frequency:    12.1677402681

- q-position: [    0.4375000,    0.0625000,    0.0625000 ]
  distance_from_gamma:  0.171271578
  weight: 8    
  band:
  - # 1
    frequency:     6.2031778602
  - # 2
    frequency:     6.2031778602
  - # 3
    frequency:     6.2034607745
  - # 4
    frequency:     6.2034607745
  - # 5
    frequency:     7.6311103325
  - # 6
    frequency:     7.6323456021
  - # 7
    frequency:     8.2939840519
  - # 8
    frequency:     8.2939840519
  - # 9
    frequency:     8.2952658543
  - # 10
    frequency:     8.2952658543
  - # 11
    frequency:     9.2792115403
  - # 12
    frequency:     9.2792115403
  - # 13
    frequency:     9.2818550119
  - # 14
    frequency:     9.2818550119
  - # 15
    frequency:    11.4108522007
  - # 16
    frequency:    11.4195089130
  - # 17
    frequency:    11.8887239964
  - # 18
    frequency:    11.8912114922

- q-position: [   -0.4375000,    0.0625000,    0.0625000 ]
  distance_from_gamma:  0.148773961
  weight: 8    
  band:
  - # 1
    frequency:     5.8171854436
  - # 2
    frequency:     5.8171854436
  - # 3
    frequency:     5.8179669908
  - # 4
    frequency:     5.8179669908
  - # 5
    frequency:     7.1573555825
  - # 6
    frequency:     7.1574624642
  - # 7
    frequency:     8.2938178628
  - # 8
    frequency:     8.2938178628
  - # 9
    frequency:     8.2954320111
  - # 10
    frequency:     8.2954320111
  - # 11
    frequency:     9.5255823971
  - # 12
    frequency:     9.5255823971
  - # 13
    frequency:     9.5285798562
  - # 14
    frequency:     9.5285798562
  - # 15
    frequency:    11.7135716877
  - # 16
    frequency:    11.7232428850
  - # 17
    frequency:    11.8884032993
  - # 18
    frequency:    11.8915355939

- q-position: [   -0.3125000,    0.0625000,    0.0625000 ]
  distance_from_gamma:  0.104014394
  weight: 8    
  band:
  - # 1
    frequency:     4.3997222311
  - # 2
    frequency:     4.3997222311
  - # 3
    frequency:     4.4028550328
  - # 4
    frequency:     4.4028550328
  - # 5
    frequency:     5.4134593820
  - # 6
    frequency:     5.4189303508
  - # 7
    frequency:     8.2933299367
  - # 8
    frequency:     8.2933299367
  - # 9
    frequency:     8.2959198095
  - # 10
    frequency:     8.2959198095
  - # 11
    frequency:    10.2566466339
  - # 12
    frequency:    10.2566466339
  - # 13
    frequency:    10.2604801161
  - # 14
    frequency:    10.2604801161
  - # 15
    frequency:    11.8874528865
  - # 16
    frequency:    11.8924788617
  - # 17
    frequency:    12.6120387686
  - # 18
    frequency:    12.6240043147

- q-position: [   -0.1875000,    0.0625000,    0.0625000 ]
  distance_from_gamma:  0.060155899
  weight: 8    
  band:
  - # 1
    frequency:     2.6356395397
  - # 2
    frequency:     2.6356395397
  - # 3
    frequency:     2.6439150284
  - # 4
    frequency:     2.6439150284
  - # 5
    frequency:     3.2429782166
  - # 6
    frequency:     3.2604217199
  - # 7
    frequency:     8.2929258263
  - # 8
    frequency:     8.2929258263
  - # 9
    frequency:     8.2963237729
  - # 10
    frequency:     8.2963237729
  - # 11
    frequency:    10.8440392722
  - # 12
    frequency:    10.8440392722
  - # 13
    frequency:    10.8484501363
  - # 14
    frequency:    10.8484501363
  - # 15
    frequency:    11.8866689062
  - # 16
    frequency:    11.8932630719
  - # 17
    frequency:    13.3340089781
  - # 18
    frequency:    13.3475199177

- q-position: [   -0.0625000,    0.0625000,    0.0625000 ]
  distance_from_gamma:  0.023084748
  weight: 4    
  band:
  - # 1
    frequency:     1.0105678789
  - # 2
    frequency:     1.0105678789
  - # 3
    frequency:     1.0356850398
  - # 4
    frequency:     1.0356850398
  - # 5
    frequency:     1.2436570255
  - # 6
    frequency:     1.2985207866
  - # 7
    frequency:     8.2927348582
  - # 8
    frequency:     8.2927348582
  - # 9
    frequency:     8.2965146581
  - # 10
    frequency:     8.2965146581
  - # 11
    frequency:    11.1135370089
  - # 12
    frequency:    11.1135370089
  - # 13
    frequency:    11.1181988098
  - # 14
    frequency:    11.1181988098
  - # 15
    frequency:    11.8862983322
  - # 16
    frequency:    11.8936335379
  - # 17
    frequency:    13.6652621335
  - # 18
    frequency:    13.6794411467

- q-position: [    0.1875000,    0.1875000,    0.0625000 ]
  distance_from_gamma:  0.117918704
  weight: 4    
  band:
  - # 1
    frequency:     4.9295367218
  - # 2
    frequency:     4.9295367218
  - # 3
    frequency:     4.9316859190
  - # 4
    frequency:     4.9316859190
  - # 5
    frequency:     6.0653327945
  - # 6
    frequency:     6.0684640938
  - # 7
    frequency:     8.2934934718
  - # 8
    frequency:     8.2934934718
  - # 9
    frequency:     8.2957563232
  - # 10
    frequency:     8.2957563232
  - # 11
    frequency:    10.0131278979
  - # 12
    frequency:    10.0131278979
  - # 13
    frequency:    10.0167036458
  - # 14
    frequency:    10.0167036458
  - # 15
    frequency:    11.8877698347
  - # 16
    frequency:    11.8921611511
  - # 17
    frequency:    12.3127421535
  - # 18
    frequency:    12.3240106653

- q-position: [    0.3125000,    0.1875000,    0.0625000 ]
  distance_from_gamma:  0.158806543
  weight: 8    
  band:
  - # 1
    frequency:     6.2031778602
  - # 2
    frequency:     6.2031778602
  - # 3
    frequency:     6.2034607745
  - # 4
    frequency:     6.2034607745
  - # 5
    frequency:     7.6311103325
  - # 6
    frequency:     7.6323456021
  - # 7
    frequency:     8.2939840519
  - # 8
    frequency:     8.2939840519
  - # 9
    frequency:     8.2952658543
  - # 10
    frequency:     8.2952658543
  - # 11
    frequency:     9.2792115403
  - # 12
    frequency:     9.2792115403
  - # 13
    frequency:     9.2818550119
  - # 14
    frequency:     9.2818550119
  - # 15
    frequency:    11.4108522007
  - # 16
    frequency:    11.4195089130
  - # 17
    frequency:    11.8887239964
  - # 18
    frequency:    11.8912114922

- q-position: [   -0.5625000,    0.1875000,    0.0625000 ]
  distance_from_gamma:  0.180054936
  weight: 8    
  band:
  - # 1
    frequency:     6.5785121356
  - # 2
    frequency:     6.5785121356
  - # 3
    frequency:     6.5786324926
  - # 4
    frequency:     6.5786324926
  - # 5
    frequency:     8.0921743750
  - # 6
    frequency:     8.0941973403
  - # 7
    frequency:     8.2941702475
  - # 8
    frequency:     8.2941702475
  - # 9
    frequency:     8.2950796898
  - # 10
    frequency:     8.2950796898
  - # 11
    frequency:     9.0173395960
  - # 12
    frequency:     9.0173395960
  - # 13
    frequency:     9.0194955251
  - # 14
    frequency:     9.0194955251
  - # 15
    frequency:    11.0891926489
  - # 16
    frequency:    11.0963860853
  - # 17
    frequency:    11.8890849432
  - # 18
    frequency:    11.8908498363

- q-position: [   -0.4375000,    0.1875000,    0.0625000 ]
  distance_from_gamma:  0.138014003
  weight: 8    
  band:
  - # 1
    frequency:     5.6142633328
  - # 2
    frequency:     5.6142633328
  - # 3
    frequency:     5.6153308981
  - # 4
    frequency:     5.6153308981
  - # 5
    frequency:     6.9077989299
  - # 6
    frequency:     6.9083612650
  - # 7
    frequency:     8.2937374229
  - # 8
    frequency:     8.2937374229
  - # 9
    frequency:     8.2955124335
  - # 10
    frequency:     8.2955124335
  - # 11
    frequency:     9.6464042359
  - # 12
    frequency:     9.6464042359
  - # 13
    frequency:     9.6495560489
  - # 14
    frequency:     9.6495560489
  - # 15
    frequency:    11.8620323295
  - # 16
    frequency:    11.8721229785
  - # 17
    frequency:    11.8882733328
  - # 18
    frequency:    11.8917049161

- q-position: [   -0.3125000,    0.1875000,    0.0625000 ]
  distance_from_gamma:  0.098946376
  weight: 8    
  band:
  - # 1
    frequency:     4.2173348101
  - # 2
    frequency:     4.2173348101
  - # 3
    frequency:     4.2208441871
  - # 4
    frequency:     4.2208441871
  - # 5
    frequency:     5.1890533195
  - # 6
    frequency:     5.1954165487
  - # 7
    frequency:     8.2932783295
  - # 8
    frequency:     8.2932783295
  - # 9
    frequency:     8.2959714001
  - # 10
    frequency:     8.2959714001
  - # 11
    frequency:    10.3328760058
  - # 12
    frequency:    10.3328760058
  - # 13
    frequency:    10.3367874814
  - # 14
    frequency:    10.3367874814
  - # 15
    frequency:    11.8873527999
  - # 16
    frequency:    11.8925790482
  - # 17
    frequency:    12.7057306532
  - # 18
    frequency:    12.7179060056

- q-position: [   -0.1875000,    0.1875000,    0.0625000 ]
  distance_from_gamma:  0.068171409
  weight: 4    
  band:
  - # 1
    frequency:     2.9727406325
  - # 2
    frequency:     2.9727406325
  - # 3
    frequency:     2.9796677362
  - # 4
    frequency:     2.9796677362
  - # 5
    frequency:     3.6577349215
  - # 6
    frequency:     3.6720805153
  - # 7
    frequency:     8.2929869697
  - # 8
    frequency:     8.2929869697
  - # 9
    frequency:     8.2962626542
  - # 10
    frequency:     8.2962626542
  - # 11
    frequency:    10.7566307021
  - # 12
    frequency:    10.7566307021
  - # 13
    frequency:    10.7609585915
  - # 14
    frequency:    10.7609585915
  - # 15
    frequency:    11.8867875481
  - # 16
    frequency:    11.8931444468
  - # 17
    frequency:    13.2265719417
  - # 18
    frequency:    13.2398616544

- q-position: [    0.3125000,    0.3125000,    0.0625000 ]
  distance_from_gamma:  0.196447024
  weight: 4    
  band:
  - # 1
    frequency:     7.0013292248
  - # 2
    frequency:     7.0013292248
  - # 3
    frequency:     7.0015732043
  - # 4
    frequency:     7.0015732043
  - # 5
    frequency:     8.2944746147
  - # 6
    frequency:     8.2944746147
  - # 7
    frequency:     8.2947753680
  - # 8
    frequency:     8.2947753680
  - # 9
    frequency:     8.6125719567
  - # 10
    frequency:     8.6139991759
  - # 11
    frequency:     8.6937491699
  - # 12
    frequency:     8.6937491699
  - # 13
    frequency:     8.6946550848
  - # 14
    frequency:     8.6946550848
  - # 15
    frequency:    10.6924129913
  - # 16
    frequency:    10.6955238200
  - # 17
    frequency:    11.8896754158
  - # 18
    frequency:    11.8902590680

- q-position: [   -0.5625000,    0.3125000,    0.0625000 ]
  distance_from_gamma:  0.177175538
  weight: 8    
  band:
  - # 1
    frequency:     6.6774834568
  - # 2
    frequency:     6.6774834568
  - # 3
    frequency:     6.6776858183
  - # 4
    frequency:     6.6776858183
  - # 5
    frequency:     8.2138883896
  - # 6
    frequency:     8.2160159116
  - # 7
    frequency:     8.2942263376
  - # 8
    frequency:     8.2942263376
  - # 9
    frequency:     8.2950236084
  - # 10
    frequency:     8.2950236084
  - # 11
    frequency:     8.9443631086
  - # 12
    frequency:     8.9443631086
  - # 13
    frequency:     8.9463420254
  - # 14
    frequency:     8.9463420254
  - # 15
    frequency:    10.9995968428
  - # 16
    frequency:    11.0062385246
  - # 17
    frequency:    11.8891937366
  - # 18
    frequency:    11.8907409467

- q-position: [   -0.4375000,    0.3125000,    0.0625000 ]
  distance_from_gamma:  0.141691474
  weight: 8    
  band:
  - # 1
    frequency:     5.6845479450
  - # 2
    frequency:     5.6845479450
  - # 3
    frequency:     5.6855147067
  - # 4
    frequency:     5.6855147067
  - # 5
    frequency:     6.9942734990
  - # 6
    frequency:     6.9945989830
  - # 7
    frequency:     8.2937648124
  - # 8
    frequency:     8.2937648124
  - # 9
    frequency:     8.2954850502
  - # 10
    frequency:     8.2954850502
  - # 11
    frequency:     9.6052124088
  - # 12
    frequency:     9.6052124088
  - # 13
    frequency:     9.6083126638
  - # 14
    frequency:     9.6083126638
  - # 15
    frequency:    11.8114221638
  - # 16
    frequency:    11.8213809517
  - # 17
    frequency:    11.8883044939
  - # 18
    frequency:    11.8916417487

- q-position: [   -0.3125000,    0.3125000,    0.0625000 ]
  distance_from_gamma:  0.113473397
  weight: 4    
  band:
  - # 1
    frequency:     4.7354127841
  - # 2
    frequency:     4.7354127841
  - # 3
    frequency:     4.7379052664
  - # 4
    frequency:     4.7379052664
  - # 5
    frequency:     5.8264866880
  - # 6
    frequency:     5.8304356491
  - # 7
    frequency:     8.2934311482
  - # 8
    frequency:     8.2934311482
  - # 9
    frequency:     8.2958186290
  - # 10
    frequency:     8.2958186290
  - # 11
    frequency:    10.1062541229
  - # 12
    frequency:    10.1062541229
  - # 13
    frequency:    10.1099301472
  - # 14
    frequency:    10.1099301472
  - # 15
    frequency:    11.8876491019
  - # 16
    frequency:    11.8922822951
  - # 17
    frequency:    12.4271974730
  - # 18
    frequency:    12.4387379463

- q-position: [    0.4375000,   -0.5625000,    0.0625000 ]
  distance_from_gamma:  0.185679826
  weight: 4    
  band:
  - # 1
    frequency:     6.4081514033
  - # 2
    frequency:     6.4081514033
  - # 3
    frequency:     6.4082003132
  - # 4
    frequency:     6.4082003132
  - # 5
    frequency:     7.8827786820
  - # 6
    frequency:     7.8845005698
  - # 7
    frequency:     8.2940816317
  - # 8
    frequency:     8.2940816317
  - # 9
    frequency:     8.2951682913
  - # 10
    frequency:     8.2951682913
  - # 11
    frequency:     9.1390798239
  - # 12
    frequency:     9.1390798239
  - # 13
    frequency:     9.1414837242
  - # 14
    frequency:     9.1414837242
  - # 15
    frequency:    11.2387060220
  - # 16
    frequency:    11.2466540018
  - # 17
    frequency:    11.8889131038
  - # 18
    frequency:    11.8910219077

- q-position: [   -0.4375000,    0.4375000,    0.0625000 ]
  distance_from_gamma:  0.158806543
  weight: 4    
  band:
  - # 1
    frequency:     5.9971335096
  - # 2
    frequency:     5.9971335096
  - # 3
    frequency:     5.9976746331
  - # 4
    frequency:     5.9976746331
  - # 5
    frequency:     7.3781954671
  - # 6
    frequency:     7.3788553567
  - # 7
    frequency:     8.2938929462
  - # 8
    frequency:     8.2938929462
  - # 9
    frequency:     8.2953569429
  - # 10
    frequency:     8.2953569429
  - # 11
    frequency:     9.4134922068
  - # 12
    frequency:     9.4134922068
  - # 13
    frequency:     9.4163365267
  - # 14
    frequency:     9.4163365267
  - # 15
    frequency:    11.5758378943
  - # 16
    frequency:    11.5850746018
  - # 17
    frequency:    11.8885477279
  - # 18
    frequency:    11.8913887659

- q-position: [    0.0625000,    0.0625000,    0.1875000 ]
  distance_from_gamma:  0.041356059
  weight: 4    
  band:
  - # 1
    frequency:     1.7430319288
  - # 2
    frequency:     1.7430319288
  - # 3
    frequency:     1.7548539341
  - # 4
    frequency:     1.7548539341
  - # 5
    frequency:     2.1457752671
  - # 6
    frequency:     2.1714253875
  - # 7
    frequency:     8.2930774882
  - # 8
    frequency:     8.2930774882
  - # 9
    frequency:     8.2961720330
  - # 10
    frequency:     8.2961720330
  - # 11
    frequency:    11.0230597689
  - # 12
    frequency:    11.0230597689
  - # 13
    frequency:    11.0269408057
  - # 14
    frequency:    11.0269408057
  - # 15
    frequency:    11.8869586906
  - # 16
    frequency:    11.8929640165
  - # 17
    frequency:    13.5546900772
  - # 18
    frequency:    13.5665213766

- q-position: [    0.1875000,    0.0625000,    0.1875000 ]
  distance_from_gamma:  0.082785070
  weight: 8    
  band:
  - # 1
    frequency:     3.5386151276
  - # 2
    frequency:     3.5386151276
  - # 3
    frequency:     3.5429784511
  - # 4
    frequency:     3.5429784511
  - # 5
    frequency:     4.3542668028
  - # 6
    frequency:     4.3629253704
  - # 7
    frequency:     8.2933375487
  - # 8
    frequency:     8.2933375487
  - # 9
    frequency:     8.2959120666
  - # 10
    frequency:     8.2959120666
  - # 11
    frequency:    10.5846527989
  - # 12
    frequency:    10.5846527989
  - # 13
    frequency:    10.5881808894
  - # 14
    frequency:    10.5881808894
  - # 15
    frequency:    11.8874624087
  - # 16
    frequency:    11.8924585199
  - # 17
    frequency:    13.0157837009
  - # 18
    frequency:    13.0266738033

- q-position: [    0.3125000,    0.0625000,    0.1875000 ]
  distance_from_gamma:  0.126928514
  weight: 8    
  band:
  - # 1
    frequency:     5.1796914756
  - # 2
    frequency:     5.1796914756
  - # 3
    frequency:     5.1811600911
  - # 4
    frequency:     5.1811600911
  - # 5
    frequency:     6.3731177605
  - # 6
    frequency:     6.3749305546
  - # 7
    frequency:     8.2937373637
  - # 8
    frequency:     8.2937373637
  - # 9
    frequency:     8.2955123744
  - # 10
    frequency:     8.2955123744
  - # 11
    frequency:     9.8865496839
  - # 12
    frequency:     9.8865496839
  - # 13
    frequency:     9.8894617714
  - # 14
    frequency:     9.8894617714
  - # 15
    frequency:    11.8882282108
  - # 16
    frequency:    11.8916720742
  - # 17
    frequency:    12.1576991303
  - # 18
    frequency:    12.1669261792

- q-position: [    0.4375000,    0.0625000,    0.1875000 ]
  distance_from_gamma:  0.171705453
  weight: 8    
  band:
  - # 1
    frequency:     6.2031993576
  - # 2
    frequency:     6.2031993576
  - # 3
    frequency:     6.2034392008
  - # 4
    frequency:     6.2034392008
  - # 5
    frequency:     7.6312042868
  - # 6
    frequency:     7.6322514978
  - # 7
    frequency:     8.2940815924
  - # 8
    frequency:     8.2940815924
  - # 9
    frequency:     8.2951682520
  - # 10
    frequency:     8.2951682520
  - # 11
    frequency:     9.2794128487
  - # 12
    frequency:     9.2794128487
  - # 13
    frequency:     9.2816538756
  - # 14
    frequency:     9.2816538756
  - # 15
    frequency:    11.4115066278
  - # 16
    frequency:    11.4188453421
  - # 17
    frequency:    11.8889180736
  - # 18
    frequency:    11.8910267787

- q-position: [   -0.4375000,    0.0625000,    0.1875000 ]
  distance_from_gamma:  0.149273242
  weight: 8    
  band:
  - # 1
    frequency:     5.8172449116
  - # 2
    frequency:     5.8172449116
  - # 3
    frequency:     5.8179074753
  - # 4
    frequency:     5.8179074753
  - # 5
    frequency:     7.1573636707
  - # 6
    frequency:     7.1574542805
  - # 7
    frequency:     8.2939406943
  - # 8
    frequency:     8.2939406943
  - # 9
    frequency:     8.2953091032
  - # 10
    frequency:     8.2953091032
  - # 11
    frequency:     9.5258106579
  - # 12
    frequency:     9.5258106579
  - # 13
    frequency:     9.5283517809
  - # 14
    frequency:     9.5283517809
  - # 15
    frequency:    11.7142914344
  - # 16
    frequency:    11.7224892038
  - # 17
    frequency:    11.8886593259
  - # 18
    frequency:    11.8913136813

- q-position: [   -0.3125000,    0.0625000,    0.1875000 ]
  distance_from_gamma:  0.104727281
  weight: 8    
  band:
  - # 1
    frequency:     4.3999607850
  - # 2
    frequency:     4.3999607850
  - # 3
    frequency:     4.4026166460
  - # 4
    frequency:     4.4026166460
  - # 5
    frequency:     5.4138760354
  - # 6
    frequency:     5.4185140985
  - # 7
    frequency:     8.2935270439
  - # 8
    frequency:     8.2935270439
  - # 9
    frequency:     8.2957226322
  - # 10
    frequency:     8.2957226322
  - # 11
    frequency:    10.2569385399
  - # 12
    frequency:    10.2569385399
  - # 13
    frequency:    10.2601884092
  - # 14
    frequency:    10.2601884092
  - # 15
    frequency:    11.8878284050
  - # 16
    frequency:    11.8920890794
  - # 17
    frequency:    12.6129568496
  - # 18
    frequency:    12.6231006081

- q-position: [   -0.1875000,    0.0625000,    0.1875000 ]
  distance_from_gamma:  0.061380301
  weight: 8    
  band:
  - # 1
    frequency:     2.6362704334
  - # 2
    frequency:     2.6362704334
  - # 3
    frequency:     2.6432860514
  - # 4
    frequency:     2.6432860514
  - # 5
    frequency:     3.2443091726
  - # 6
    frequency:     3.2590970462
  - # 7
    frequency:     8.2931844608
  - # 8
    frequency:     8.2931844608
  - # 9
    frequency:     8.2960651008
  - # 10
    frequency:     8.2960651008
  - # 11
    frequency:    10.8443751329
  - # 12
    frequency:    10.8443751329
  - # 13
    frequency:    10.8481144829
  - # 14
    frequency:    10.8481144829
  - # 15
    frequency:    11.8871659873
  - # 16
    frequency:    11.8927561927
  - # 17
    frequency:    13.3350424647
  - # 18
    frequency:    13.3464964279

- q-position: [   -0.0625000,    0.0625000,    0.1875000 ]
  distance_from_gamma:  0.026109667
  weight: 4    
  band:
  - # 1
    frequency:     1.0125018754
  - # 2
    frequency:     1.0125018754
  - # 3
    frequency:     1.0337947217
  - # 4
    frequency:     1.0337947217
  - # 5
    frequency:     1.2479173540
  - # 6
    frequency:     1.2944255833
  - # 7
    frequency:     8.2930225699
  - # 8
    frequency:     8.2930225699
  - # 9
    frequency:     8.2962269296
  - # 10
    frequency:     8.2962269296
  - # 11
    frequency:    11.1138919733
  - # 12
    frequency:    11.1138919733
  - # 13
    frequency:    11.1178440572
  - # 14
    frequency:    11.1178440572
  - # 15
    frequency:    11.8868522339
  - # 16
    frequency:    11.8930706742
  - # 17
    frequency:    13.6663460903
  - # 18
    frequency:    13.6783664305

- q-position: [    0.1875000,    0.1875000,    0.1875000 ]
  distance_from_gamma:  0.118548007
  weight: 4    
  band:
  - # 1
    frequency:     4.9297003468
  - # 2
    frequency:     4.9297003468
  - # 3
    frequency:     4.9315223481
  - # 4
    frequency:     4.9315223481
  - # 5
    frequency:     6.0655712136
  - # 6
    frequency:     6.0682258009
  - # 7
    frequency:     8.2936656822
  - # 8
    frequency:     8.2936656822
  - # 9
    frequency:     8.2955840351
  - # 10
    frequency:     8.2955840351
  - # 11
    frequency:    10.0134001834
  - # 12
    frequency:    10.0134001834
  - # 13
    frequency:    10.0164315561
  - # 14
    frequency:    10.0164315561
  - # 15
    frequency:    11.8880939583
  - # 16
    frequency:    11.8918164161
  - # 17
    frequency:    12.3136104399
  - # 18
    frequency:    12.3231631026

- q-position: [    0.3125000,    0.1875000,    0.1875000 ]
  distance_from_gamma:  0.159274377
  weight: 8    
  band:
  - # 1
    frequency:     6.2031993576
  - # 2
    frequency:     6.2031993576
  - # 3
    frequency:     6.2034392008
  - # 4
    frequency:     6.2034392008
  - # 5
    frequency:     7.6312042868
  - # 6
    frequency:     7.6322514978
  - # 7
    frequency:     8.2940815924
  - # 8
    frequency:     8.2940815924
  - # 9
    frequency:     8.2951682520
  - # 10
    frequency:     8.2951682520
  - # 11
    frequency:     9.2794128487
  - # 12
    frequency:     9.2794128487
  - # 13
    frequency:     9.2816538756
  - # 14
    frequency:     9.2816538756
  - # 15
    frequency:    11.4115066278
  - # 16
    frequency:    11.4188453421
  - # 17
    frequency:    11.8889180736
  - # 18
    frequency:    11.8910267787

- q-position: [   -0.5625000,    0.1875000,    0.1875000 ]
  distance_from_gamma:  0.180467696
  weight: 8    
  band:
  - # 1
    frequency:     6.5785212486
  - # 2
    frequency:     6.5785212486
  - # 3
    frequency:     6.5786232823
  - # 4
    frequency:     6.5786232823
  - # 5
    frequency:     8.0923283119
  - # 6
    frequency:     8.0940432991
  - # 7
    frequency:     8.2942394636
  - # 8
    frequency:     8.2942394636
  - # 9
    frequency:     8.2950104517
  - # 10
    frequency:     8.2950104517
  - # 11
    frequency:     9.0175037734
  - # 12
    frequency:     9.0175037734
  - # 13
    frequency:     9.0193314817
  - # 14
    frequency:     9.0193314817
  - # 15
    frequency:    11.0897383898
  - # 16
    frequency:    11.0958366730
  - # 17
    frequency:    11.8892212189
  - # 18
    frequency:    11.8907174053

- q-position: [   -0.4375000,    0.1875000,    0.1875000 ]
  distance_from_gamma:  0.138552063
  weight: 8    
  band:
  - # 1
    frequency:     5.6143445815
  - # 2
    frequency:     5.6143445815
  - # 3
    frequency:     5.6152496197
  - # 4
    frequency:     5.6152496197
  - # 5
    frequency:     6.9078417068
  - # 6
    frequency:     6.9083184315
  - # 7
    frequency:     8.2938724978
  - # 8
    frequency:     8.2938724978
  - # 9
    frequency:     8.2953772793
  - # 10
    frequency:     8.2953772793
  - # 11
    frequency:     9.6466442480
  - # 12
    frequency:     9.6466442480
  - # 13
    frequency:     9.6493162260
  - # 14
    frequency:     9.6493162260
  - # 15
    frequency:    11.8626867971
  - # 16
    frequency:    11.8711666966
  - # 17
    frequency:    11.8887228018
  - # 18
    frequency:    11.8915574181

- q-position: [   -0.3125000,    0.1875000,    0.1875000 ]
  distance_from_gamma:  0.099695509
  weight: 8    
  band:
  - # 1
    frequency:     4.2176020571
  - # 2
    frequency:     4.2176020571
  - # 3
    frequency:     4.2205771632
  - # 4
    frequency:     4.2205771632
  - # 5
    frequency:     5.1895379668
  - # 6
    frequency:     5.1949324518
  - # 7
    frequency:     8.2934832937
  - # 8
    frequency:     8.2934832937
  - # 9
    frequency:     8.2957663689
  - # 10
    frequency:     8.2957663689
  - # 11
    frequency:    10.3331738492
  - # 12
    frequency:    10.3331738492
  - # 13
    frequency:    10.3364898380
  - # 14
    frequency:    10.3364898380
  - # 15
    frequency:    11.8877440663
  - # 16
    frequency:    11.8921745463
  - # 17
    frequency:    12.7066641815
  - # 18
    frequency:    12.7169858274

- q-position: [   -0.1875000,    0.1875000,    0.1875000 ]
  distance_from_gamma:  0.069254243
  weight: 4    
  band:
  - # 1
    frequency:     2.9732685310
  - # 2
    frequency:     2.9732685310
  - # 3
    frequency:     2.9791410448
  - # 4
    frequency:     2.9791410448
  - # 5
    frequency:     3.6588287924
  - # 6
    frequency:     3.6709903933
  - # 7
    frequency:     8.2932362945
  - # 8
    frequency:     8.2932362945
  - # 9
    frequency:     8.2960132858
  - # 10
    frequency:     8.2960132858
  - # 11
    frequency:    10.7569602461
  - # 12
    frequency:    10.7569602461
  - # 13
    frequency:    10.7606292535
  - # 14
    frequency:    10.7606292535
  - # 15
    frequency:    11.8872663918
  - # 16
    frequency:    11.8926554466
  - # 17