 running on  192 total cores
 distrk:  each k-point on  192 cores,    1 groups
 distr:  one band on   24 cores,    8 groups
 using from now: INCAR     
 vasp.5.4.4.18Apr17-6-g9f103f2a35 (build Oct 01 2024 10:11:53) complex          
  
 POSCAR found type information on POSCAR  B  O 
 POSCAR found :  2 types and      10 ions
 scaLAPACK will be used
 LDA part: xc-table for Pade appr. of Perdew
 found WAVECAR, reading the header
  number of k-points has changed, file:    27 present:    24
  trying to continue reading WAVECAR, but it might fail
 WARNING: stress and forces are not correct
 POSCAR, INCAR and KPOINTS ok, starting setup
 FFT: planning ...
 reading WAVECAR
 the WAVECAR file was read successfully
 charge-density read from file: unknown                                 
 entering main loop
       N       E                     dE             d eps       ncg     rms          rms(c)
DAV:   1    -0.769307016686E+02   -0.76931E+02   -0.50764E+02  1656   0.935E+01
DAV:   2    -0.801395092307E+02   -0.32088E+01   -0.31991E+01  1880   0.255E+01
DAV:   3    -0.801929635934E+02   -0.53454E-01   -0.53374E-01  1760   0.339E+00
DAV:   4    -0.801948269377E+02   -0.18633E-02   -0.18619E-02  1872   0.548E-01
DAV:   5    -0.801948807873E+02   -0.53850E-04   -0.53840E-04  1776   0.859E-02
DAV:   6    -0.801948834180E+02   -0.26308E-05   -0.26308E-05  1680   0.154E-02
DAV:   7    -0.801948834966E+02   -0.78546E-07   -0.78520E-07  1296   0.285E-03
   1 F= -.80194883E+02 E0= -.80194883E+02  d E =0.000000E+00
 writing wavefunctions
