 vasp.5.4.4.18Apr17-6-g9f103f2a35 (build Sep 16 2021 13:51:27) complex          
  
 executed on             LinuxIFC date 2023.03.16  12:59:54
 running on   24 total cores
 distrk:  each k-point on   24 cores,    1 groups
 distr:  one band on NCORES_PER_BAND=  24 cores,    1 groups


--------------------------------------------------------------------------------------------------------


 INCAR:
 POTCAR:    PAW_PBE Sn 08Apr2002                  
 POTCAR:    PAW_PBE Se 06Sep2000                  

 ----------------------------------------------------------------------------- 
|                                                                             |
|           W    W    AA    RRRRR   N    N  II  N    N   GGGG   !!!           |
|           W    W   A  A   R    R  NN   N  II  NN   N  G    G  !!!           |
|           W    W  A    A  R    R  N N  N  II  N N  N  G       !!!           |
|           W WW W  AAAAAA  RRRRR   N  N N  II  N  N N  G  GGG   !            |
|           WW  WW  A    A  R   R   N   NN  II  N   NN  G    G                |
|           W    W  A    A  R    R  N    N  II  N    N   GGGG   !!!           |
|                                                                             |
|      For optimal performance we recommend to set                            |
|        NCORE= 4 - approx SQRT( number of cores)                             |
|      NCORE specifies how many cores store one orbital (NPAR=cpu/NCORE).     |
|      This setting can  greatly improve the performance of VASP for DFT.     |
|      The default,   NCORE=1            might be grossly inefficient         |
|      on modern multi-core architectures or massively parallel machines.     |
|      Do your own testing !!!!                                               |
|      Unfortunately you need to use the default for GW and RPA calculations. |
|      (for HF NCORE is supported but not extensively tested yet)             |
|                                                                             |
 ----------------------------------------------------------------------------- 

 POTCAR:    PAW_PBE Sn 08Apr2002                  
   VRHFIN =Sn: s2p2                                                             
   LEXCH  = PE                                                                  
   EATOM  =    94.0860 eV,    6.9151 Ry                                         
                                                                                
   TITEL  = PAW_PBE Sn 08Apr2002                                                
   LULTRA =        F    use ultrasoft PP ?                                      
   IUNSCR =        1    unscreen: 0-lin 1-nonlin 2-no                           
   RPACOR =    2.000    partial core radius                                     
   POMASS =  118.710; ZVAL   =    4.000    mass and valenz                      
   RCORE  =    3.000    outmost cutoff radius                                   
   RWIGS  =    2.960; RWIGS  =    1.566    wigner-seitz radius (au A)           
   ENMAX  =  103.236; ENMIN  =   77.427 eV                                      
   ICORE  =        3    local potential                                         
   LCOR   =        T    correct aug charges                                     
   LPAW   =        T    paw PP                                                  
   EAUG   =  263.585                                                            
   DEXC   =    0.000                                                            
   RMAX   =    3.078    core radius for proj-oper                               
   RAUG   =    1.300    factor for augmentation sphere                          
   RDEP   =    3.022    radius for radial grids                                 
   RDEPT  =    2.655    core radius for aug-charge                              
                                                                                
   Atomic configuration                                                         
   13 entries                                                                   
     n  l   j            E        occ.                                          
     1  0  0.50    -29007.2859   2.0000                                         
     2  0  0.50     -4378.8056   2.0000                                         
     2  1  1.50     -3930.4293   6.0000                                         
     3  0  0.50      -845.0264   2.0000                                         
     3  1  1.50      -698.5725   6.0000                                         
     3  2  2.50      -473.2839  10.0000                                         
     4  0  0.50      -133.9036   2.0000                                         
     4  1  1.50       -89.6752   6.0000                                         
     4  2  2.50       -25.8375  10.0000                                         
     5  0  0.50       -10.5484   2.0000                                         
     5  1  0.50        -3.6940   2.0000                                         
     5  2  1.50        -1.3606   0.0000                                         
     4  3  2.50        -4.0817   0.0000                                         
   Description                                                                  
     l       E           TYP  RCUT    TYP  RCUT                                 
     0    -10.5483727     23  3.000                                             
     0     27.2116520     23  3.000                                             
     1     -3.6939829     23  3.000                                             
     1      1.9821976     23  3.000                                             
     2     -1.3605826     23  3.000                                             
     3     -2.7211652     23  3.000                                             
  local pseudopotential read in
  partial core-charges read in
  partial kinetic energy density read in
  atomic valenz-charges read in
  non local Contribution for L=           0  read in
    real space projection operators read in
  non local Contribution for L=           0  read in
    real space projection operators read in
  non local Contribution for L=           1  read in
    real space projection operators read in
  non local Contribution for L=           1  read in
    real space projection operators read in
  non local Contribution for L=           2  read in
    real space projection operators read in
    PAW grid and wavefunctions read in
 
   number of l-projection  operators is LMAX  =           5
   number of lm-projection operators is LMMAX =          13
 
 POTCAR:    PAW_PBE Se 06Sep2000                  
   VRHFIN =Se: s2p4                                                             
   LEXCH  = PE                                                                  
   EATOM  =   257.1286 eV,   18.8984 Ry                                         
                                                                                
   TITEL  = PAW_PBE Se 06Sep2000                                                
   LULTRA =        F    use ultrasoft PP ?                                      
   IUNSCR =        1    unscreen: 0-lin 1-nonlin 2-no                           
   RPACOR =    1.900    partial core radius                                     
   POMASS =   78.960; ZVAL   =    6.000    mass and valenz                      
   RCORE  =    2.100    outmost cutoff radius                                   
   RWIGS  =    2.200; RWIGS  =    1.164    wigner-seitz radius (au A)           
   ENMAX  =  211.555; ENMIN  =  158.666 eV                                      
   ICORE  =        3    local potential                                         
   LCOR   =        T    correct aug charges                                     
   LPAW   =        T    paw PP                                                  
   EAUG   =  446.842                                                            
   DEXC   =    0.000                                                            
   RMAX   =    2.147    core radius for proj-oper                               
   RAUG   =    1.300    factor for augmentation sphere                          
   RDEP   =    2.177    radius for radial grids                                 
   RDEPT  =    1.928    core radius for aug-charge                              
                                                                                
   Atomic configuration                                                         
   10 entries                                                                   
     n  l   j            E        occ.                                          
     1  0  0.50    -12503.4787   2.0000                                         
     2  0  0.50     -1606.9547   2.0000                                         
     2  1  1.50     -1413.3140   6.0000                                         
     3  0  0.50      -213.4885   2.0000                                         
     3  1  1.50      -152.9538   6.0000                                         
     3  2  2.50       -53.1221  10.0000                                         
     4  0  0.50       -17.2865   2.0000                                         
     4  1  0.50        -6.5110   4.0000                                         
     4  2  2.50        -6.8029   0.0000                                         
     4  3  2.50        -6.8029   0.0000                                         
   Description                                                                  
     l       E           TYP  RCUT    TYP  RCUT                                 
     0    -17.2865377     23  2.100                                             
     0    -15.3094411     23  2.100                                             
     1     -6.5110275     23  2.100                                             
     1     -0.0695192     23  2.100                                             
     2     -6.8029130     23  2.100                                             
     3     -1.3605826      7  2.100                                             
  local pseudopotential read in
  partial core-charges read in
  partial kinetic energy density read in
  atomic valenz-charges read in
  non local Contribution for L=           0  read in
    real space projection operators read in
  non local Contribution for L=           0  read in
    real space projection operators read in
  non local Contribution for L=           1  read in
    real space projection operators read in
  non local Contribution for L=           1  read in
    real space projection operators read in
  non local Contribution for L=           2  read in
    real space projection operators read in
    PAW grid and wavefunctions read in
 
   number of l-projection  operators is LMAX  =           5
   number of lm-projection operators is LMMAX =          13
 
 WARNING: PSMAXN for non-local potential too small
          PSMAXN should be >   12.5490833729506       NTYP=           1
  PAW_PBE Sn 08Apr2002                  :
 energy of atom  1       EATOM=  -94.0860
 kinetic energy error for atom=    0.0000 (will be added to EATOM!!)
  PAW_PBE Se 06Sep2000                  :
 energy of atom  2       EATOM= -257.1286
 kinetic energy error for atom=    0.0006 (will be added to EATOM!!)
 
 
 POSCAR:  POSCAR with strain of 0.003            
  positions in direct lattice
  No initial velocities read in
 exchange correlation table for  LEXCH =        8
   RHO(1)=    0.500       N(1)  =     2000
   RHO(2)=  100.500       N(2)  =     4000
 


--------------------------------------------------------------------------------------------------------


 ion  position               nearest neighbor table
   1  0.581  0.750  0.569-   4 2.73   3 2.92   3 2.92   3 3.22   3 3.23
   2  0.081  0.250  0.431-   3 2.73   4 2.92   4 2.92   4 3.22   4 3.23
   3  0.033  0.250  0.567-   2 2.73   1 2.92   1 2.92   1 3.22   1 3.23
   4  0.533  0.750  0.433-   1 2.73   2 2.92   2 2.92   2 3.22   2 3.23
 

IMPORTANT INFORMATION: All symmetrisations will be switched off!
NOSYMM: (Re-)initialisation of all symmetry stuff for point group C_1.

 
 
 KPOINTS: KMesh Grid                              

Automatic generation of k-mesh.
Space group operators:
 irot       det(A)        alpha          n_x          n_y          n_z        tau_x        tau_y        tau_z
    1     1.000000     0.000000     1.000000     0.000000     0.000000     0.000000     0.000000     0.000000
 
 Subroutine IBZKPT returns following result:
 ===========================================
 
 Found    113 irreducible k-points:
 
 Following reciprocal coordinates:
            Coordinates               Weight
  0.000000  0.000000  0.000000      1.000000
  0.066667  0.000000 -0.000000      2.000000
  0.133333  0.000000 -0.000000      2.000000
  0.200000  0.000000 -0.000000      2.000000
  0.266667  0.000000 -0.000000      2.000000
  0.333333  0.000000 -0.000000      2.000000
  0.400000  0.000000 -0.000000      2.000000
  0.466667  0.000000 -0.000000      2.000000
  0.000000  0.066667  0.000000      2.000000
  0.066667  0.066667  0.000000      2.000000
  0.133333  0.066667  0.000000      2.000000
  0.200000  0.066667  0.000000      2.000000
  0.266667  0.066667 -0.000000      2.000000
  0.333333  0.066667 -0.000000      2.000000
  0.400000  0.066667  0.000000      2.000000
  0.466667  0.066667  0.000000      2.000000
 -0.466667  0.066667  0.000000      2.000000
 -0.400000  0.066667  0.000000      2.000000
 -0.333333  0.066667  0.000000      2.000000
 -0.266667  0.066667  0.000000      2.000000
 -0.200000  0.066667  0.000000      2.000000
 -0.133333  0.066667  0.000000      2.000000
 -0.066667  0.066667 -0.000000      2.000000
 -0.000000  0.133333 -0.000000      2.000000
  0.066667  0.133333  0.000000      2.000000
  0.133333  0.133333  0.000000      2.000000
  0.200000  0.133333 -0.000000      2.000000
  0.266667  0.133333 -0.000000      2.000000
  0.333333  0.133333 -0.000000      2.000000
  0.400000  0.133333 -0.000000      2.000000
  0.466667  0.133333  0.000000      2.000000
 -0.466667  0.133333 -0.000000      2.000000
 -0.400000  0.133333  0.000000      2.000000
 -0.333333  0.133333  0.000000      2.000000
 -0.266667  0.133333  0.000000      2.000000
 -0.200000  0.133333 -0.000000      2.000000
 -0.133333  0.133333 -0.000000      2.000000
 -0.066667  0.133333 -0.000000      2.000000
  0.000000  0.200000 -0.000000      2.000000
  0.066667  0.200000 -0.000000      2.000000
  0.133333  0.200000 -0.000000      2.000000
  0.200000  0.200000 -0.000000      2.000000
  0.266667  0.200000 -0.000000      2.000000
  0.333333  0.200000 -0.000000      2.000000
  0.400000  0.200000 -0.000000      2.000000
  0.466667  0.200000  0.000000      2.000000
 -0.466667  0.200000 -0.000000      2.000000
 -0.400000  0.200000  0.000000      2.000000
 -0.333333  0.200000 -0.000000      2.000000
 -0.266667  0.200000  0.000000      2.000000
 -0.200000  0.200000  0.000000      2.000000
 -0.133333  0.200000 -0.000000      2.000000
 -0.066667  0.200000 -0.000000      2.000000
 -0.000000  0.266667 -0.000000      2.000000
  0.066667  0.266667 -0.000000      2.000000
  0.133333  0.266667 -0.000000      2.000000
  0.200000  0.266667 -0.000000      2.000000
  0.266667  0.266667 -0.000000      2.000000
  0.333333  0.266667  0.000000      2.000000
  0.400000  0.266667 -0.000000      2.000000
  0.466667  0.266667  0.000000      2.000000
 -0.466667  0.266667 -0.000000      2.000000
 -0.400000  0.266667 -0.000000      2.000000
 -0.333333  0.266667 -0.000000      2.000000
 -0.266667  0.266667 -0.000000      2.000000
 -0.200000  0.266667 -0.000000      2.000000
 -0.133333  0.266667 -0.000000      2.000000
 -0.066667  0.266667 -0.000000      2.000000
 -0.000000  0.333333 -0.000000      2.000000
  0.066667  0.333333 -0.000000      2.000000
  0.133333  0.333333 -0.000000      2.000000
  0.200000  0.333333 -0.000000      2.000000
  0.266667  0.333333 -0.000000      2.000000
  0.333333  0.333333 -0.000000      2.000000
  0.400000  0.333333  0.000000      2.000000
  0.466667  0.333333 -0.000000      2.000000
 -0.466667  0.333333 -0.000000      2.000000
 -0.400000  0.333333  0.000000      2.000000
 -0.333333  0.333333 -0.000000      2.000000
 -0.266667  0.333333 -0.000000      2.000000
 -0.200000  0.333333 -0.000000      2.000000
 -0.133333  0.333333  0.000000      2.000000
 -0.066667  0.333333 -0.000000      2.000000
  0.000000  0.400000 -0.000000      2.000000
  0.066667  0.400000 -0.000000      2.000000
  0.133333  0.400000 -0.000000      2.000000
  0.200000  0.400000 -0.000000      2.000000
  0.266667  0.400000 -0.000000      2.000000
  0.333333  0.400000  0.000000      2.000000
  0.400000  0.400000 -0.000000      2.000000
  0.466667  0.400000 -0.000000      2.000000
 -0.466667  0.400000  0.000000      2.000000
 -0.400000  0.400000  0.000000      2.000000
 -0.333333  0.400000 -0.000000      2.000000
 -0.266667  0.400000 -0.000000      2.000000
 -0.200000  0.400000 -0.000000      2.000000
 -0.133333  0.400000 -0.000000      2.000000
 -0.066667  0.400000 -0.000000      2.000000
 -0.000000  0.466667  0.000000      2.000000
  0.066667  0.466667  0.000000      2.000000
  0.133333  0.466667  0.000000      2.000000
  0.200000  0.466667 -0.000000      2.000000
  0.266667  0.466667 -0.000000      2.000000
  0.333333  0.466667 -0.000000      2.000000
  0.400000  0.466667  0.000000      2.000000
  0.466667  0.466667  0.000000      2.000000
 -0.466667  0.466667 -0.000000      2.000000
 -0.400000  0.466667  0.000000      2.000000
 -0.333333  0.466667  0.000000      2.000000
 -0.266667  0.466667  0.000000      2.000000
 -0.200000  0.466667  0.000000      2.000000
 -0.133333  0.466667  0.000000      2.000000
 -0.066667  0.466667 -0.000000      2.000000
 
 Following cartesian coordinates:
            Coordinates               Weight
  0.000000  0.000000  0.000000      1.000000
  0.015213 -0.000019 -0.000019      2.000000
  0.030425 -0.000038 -0.000038      2.000000
  0.045638 -0.000057 -0.000057      2.000000
  0.060850 -0.000076 -0.000076      2.000000
  0.076063 -0.000095 -0.000095      2.000000
  0.091275 -0.000114 -0.000114      2.000000
  0.106488 -0.000133 -0.000133      2.000000
 -0.000019  0.015531 -0.000019      2.000000
  0.015193  0.015512 -0.000038      2.000000
  0.030406  0.015493 -0.000057      2.000000
  0.045618  0.015474 -0.000076      2.000000
  0.060831  0.015455 -0.000095      2.000000
  0.076043  0.015436 -0.000114      2.000000
  0.091256  0.015417 -0.000133      2.000000
  0.106469  0.015398 -0.000152      2.000000
 -0.106507  0.015664  0.000113      2.000000
 -0.091295  0.015645  0.000094      2.000000
 -0.076082  0.015626  0.000075      2.000000
 -0.060870  0.015607  0.000056      2.000000
 -0.045657  0.015588  0.000037      2.000000
 -0.030445  0.015569  0.000019      2.000000
 -0.015232  0.015550 -0.000000      2.000000
 -0.000039  0.031062 -0.000039      2.000000
  0.015174  0.031043 -0.000058      2.000000
  0.030386  0.031024 -0.000077      2.000000
  0.045599  0.031005 -0.000096      2.000000
  0.060811  0.030986 -0.000114      2.000000
  0.076024  0.030967 -0.000133      2.000000
  0.091237  0.030948 -0.000152      2.000000
  0.106449  0.030929 -0.000171      2.000000
 -0.106527  0.031195  0.000094      2.000000
 -0.091314  0.031176  0.000075      2.000000
 -0.076102  0.031157  0.000056      2.000000
 -0.060889  0.031138  0.000037      2.000000
 -0.045676  0.031119  0.000018      2.000000
 -0.030464  0.031100 -0.000001      2.000000
 -0.015251  0.031081 -0.000020      2.000000
 -0.000058  0.046593 -0.000058      2.000000
  0.015154  0.046574 -0.000077      2.000000
  0.030367  0.046555 -0.000096      2.000000
  0.045580  0.046536 -0.000115      2.000000
  0.060792  0.046517 -0.000134      2.000000
  0.076005  0.046498 -0.000153      2.000000
  0.091217  0.046479 -0.000172      2.000000
  0.106430  0.046460 -0.000191      2.000000
 -0.106546  0.046726  0.000075      2.000000
 -0.091334  0.046707  0.000056      2.000000
 -0.076121  0.046688  0.000037      2.000000
 -0.060908  0.046669  0.000018      2.000000
 -0.045696  0.046650 -0.000001      2.000000
 -0.030483  0.046631 -0.000020      2.000000
 -0.015271  0.046612 -0.000039      2.000000
 -0.000078  0.062124 -0.000077      2.000000
  0.015135  0.062105 -0.000096      2.000000
  0.030348  0.062086 -0.000115      2.000000
  0.045560  0.062067 -0.000134      2.000000
  0.060773  0.062048 -0.000153      2.000000
  0.075985  0.062029 -0.000172      2.000000
  0.091198  0.062010 -0.000191      2.000000
  0.106410  0.061991 -0.000210      2.000000
 -0.106565  0.062257  0.000055      2.000000
 -0.091353  0.062238  0.000036      2.000000
 -0.076140  0.062219  0.000017      2.000000
 -0.060928  0.062200 -0.000002      2.000000
 -0.045715  0.062181 -0.000021      2.000000
 -0.030503  0.062162 -0.000039      2.000000
 -0.015290  0.062143 -0.000058      2.000000
 -0.000097  0.077655 -0.000097      2.000000
  0.015116  0.077636 -0.000116      2.000000
  0.030328  0.077617 -0.000135      2.000000
  0.045541  0.077598 -0.000154      2.000000
  0.060753  0.077579 -0.000172      2.000000
  0.075966  0.077561 -0.000191      2.000000
  0.091178  0.077542 -0.000210      2.000000
  0.106391  0.077523 -0.000229      2.000000
 -0.106585  0.077788  0.000036      2.000000
 -0.091372  0.077769  0.000017      2.000000
 -0.076160  0.077750 -0.000002      2.000000
 -0.060947  0.077731 -0.000021      2.000000
 -0.045735  0.077712 -0.000040      2.000000
 -0.030522  0.077693 -0.000059      2.000000
 -0.015310  0.077674 -0.000078      2.000000
 -0.000116  0.093187 -0.000116      2.000000
  0.015096  0.093168 -0.000135      2.000000
  0.030309  0.093149 -0.000154      2.000000
  0.045521  0.093130 -0.000173      2.000000
  0.060734  0.093111 -0.000192      2.000000
  0.075946  0.093092 -0.000211      2.000000
  0.091159  0.093073 -0.000230      2.000000
  0.106372  0.093054 -0.000249      2.000000
 -0.106604  0.093320  0.000017      2.000000
 -0.091392  0.093301 -0.000002      2.000000
 -0.076179  0.093282 -0.000021      2.000000
 -0.060967  0.093263 -0.000040      2.000000
 -0.045754  0.093244 -0.000059      2.000000
 -0.030541  0.093225 -0.000078      2.000000
 -0.015329  0.093206 -0.000097      2.000000
 -0.000136  0.108718 -0.000135      2.000000
  0.015077  0.108699 -0.000154      2.000000
  0.030289  0.108680 -0.000173      2.000000
  0.045502  0.108661 -0.000192      2.000000
  0.060715  0.108642 -0.000211      2.000000
  0.075927  0.108623 -0.000230      2.000000
  0.091140  0.108604 -0.000249      2.000000
  0.106352  0.108585 -0.000268      2.000000
 -0.106624  0.108851 -0.000003      2.000000
 -0.091411  0.108832 -0.000022      2.000000
 -0.076199  0.108813 -0.000041      2.000000
 -0.060986  0.108794 -0.000060      2.000000
 -0.045773  0.108775 -0.000079      2.000000
 -0.030561  0.108756 -0.000097      2.000000
 -0.015348  0.108737 -0.000116      2.000000
 


--------------------------------------------------------------------------------------------------------




 Dimension of arrays:
   k-points           NKPTS =    113   k-points in BZ     NKDIM =    113   number of bands    NBANDS=     14
   number of dos      NEDOS =    301   number of ions     NIONS =      4
   non local maximal  LDIM  =      5   non local SUM 2l+1 LMDIM =     13
   total plane-waves  NPLWV = 207360
   max r-space proj   IRMAX =      1   max aug-charges    IRDMAX=  53115
   dimension x,y,z NGX =    36 NGY =   36 NGZ =  160
   dimension x,y,z NGXF=    72 NGYF=   72 NGZF=  320
   support grid    NGXF=    72 NGYF=   72 NGZF=  320
   ions per type =               2   2
   NGX,Y,Z   is equivalent  to a cutoff of  13.66, 13.94, 13.27 a.u.
   NGXF,Y,Z  is equivalent  to a cutoff of  27.31, 27.89, 26.53 a.u.

 SYSTEM =  SnSe                                    
 POSCAR =   POSCAR with strain of 0.003            

 Startparameter for this run:
   NWRITE =      2    write-flag & timer
   PREC   = accura    normal or accurate (medium, high low for compatibility)
   ISTART =      0    job   : 0-new  1-cont  2-samecut
   ICHARG =      2    charge: 1-file 2-atom 10-const
   ISPIN  =      1    spin polarized calculation?
   LNONCOLLINEAR =      F non collinear calculations
   LSORBIT =      F    spin-orbit coupling
   INIWAV =      1    electr: 0-lowe 1-rand  2-diag
   LASPH  =      F    aspherical Exc in radial PAW
   METAGGA=      F    non-selfconsistent MetaGGA calc.

 Electronic Relaxation 1
   ENCUT  =  600.0 eV  44.10 Ry    6.64 a.u.   8.75  8.57 40.04*2*pi/ulx,y,z
   ENINI  =  600.0     initial cutoff
   ENAUG  =  446.8 eV  augmentation charge cutoff
   NELM   =     60;   NELMIN=  2; NELMDL= -5     # of ELM steps 
   EDIFF  = 0.1E-05   stopping-criterion for ELM
   LREAL  =      F    real-space projection
   NLSPLINE    = F    spline interpolate recip. space projectors
   LCOMPAT=      F    compatible to vasp.4.4
   GGA_COMPAT  = T    GGA compatible to vasp.4.4-vasp.4.6
   LMAXPAW     = -100 max onsite density
   LMAXMIX     =    2 max onsite mixed and CHGCAR
   VOSKOWN=      0    Vosko Wilk Nusair interpolation
   ROPT   =    0.00000   0.00000
 Ionic relaxation
   EDIFFG = -.1E-02   stopping-criterion for IOM
   NSW    =    100    number of steps for IOM
   NBLOCK =      1;   KBLOCK =    100    inner block; outer block 
   IBRION =      2    ionic relax: 0-MD 1-quasi-New 2-CG
   NFREE  =      1    steps in history (QN), initial steepest desc. (CG)
   ISIF   =      2    stress and relaxation
   IWAVPR =     11    prediction:  0-non 1-charg 2-wave 3-comb
   ISYM   =      0    0-nonsym 1-usesym 2-fastsym
   LCORR  =      T    Harris-Foulkes like correction to forces

   POTIM  = 0.5000    time-step for ionic-motion
   TEIN   =    0.0    initial temperature
   TEBEG  =    0.0;   TEEND  =   0.0 temperature during run
   SMASS  =  -3.00    Nose mass-parameter (am)
   estimated Nose-frequenzy (Omega)   =  0.10E-29 period in steps =****** mass=  -0.439E-27a.u.
   SCALEE = 1.0000    scale energy and forces
   NPACO  =    256;   APACO  = 16.0  distance and # of slots for P.C.
   PSTRESS=    0.0 pullay stress

  Mass of Ions in am
   POMASS = 118.71 78.96
  Ionic Valenz
   ZVAL   =   4.00  6.00
  Atomic Wigner-Seitz radii
   RWIGS  =  -1.00 -1.00
  virtual crystal weights 
   VCA    =   1.00  1.00
   NELECT =      20.0000    total number of electrons
   NUPDOWN=      -1.0000    fix difference up-down

 DOS related values:
   EMIN   =  10.00;   EMAX   =-10.00  energy-range for DOS
   EFERMI =   0.00
   ISMEAR =     0;   SIGMA  =   0.10  broadening in eV -4-tet -1-fermi 0-gaus

 Electronic relaxation 2 (details)
   IALGO  =     38    algorithm
   LDIAG  =      T    sub-space diagonalisation (order eigenvalues)
   LSUBROT=      F    optimize rotation matrix (better conditioning)
   TURBO    =      0    0=normal 1=particle mesh
   IRESTART =      0    0=no restart 2=restart with 2 vectors
   NREBOOT  =      0    no. of reboots
   NMIN     =      0    reboot dimension
   EREF     =   0.00    reference energy to select bands
   IMIX   =      4    mixing-type and parameters
     AMIX     =   0.40;   BMIX     =  1.00
     AMIX_MAG =   1.60;   BMIX_MAG =  1.00
     AMIN     =   0.10
     WC   =   100.;   INIMIX=   1;  MIXPRE=   1;  MAXMIX= -45

 Intra band minimization:
   WEIMIN = 0.0010     energy-eigenvalue tresh-hold
   EBREAK =  0.18E-07  absolut break condition
   DEPER  =   0.30     relativ break condition  

   TIME   =   0.40     timestep for ELM

  volume/ion in A,a.u.               =      94.29       636.30
  Fermi-wavevector in a.u.,A,eV,Ry     =   0.615048  1.162272  5.146861  0.378284
  Thomas-Fermi vector in A             =   1.672277
 
 Write flags
   LWAVE        =      T    write WAVECAR
   LDOWNSAMPLE  =      F    k-point downsampling of WAVECAR
   LCHARG       =      T    write CHGCAR
   LVTOT        =      F    write LOCPOT, total local potential
   LVHAR        =      F    write LOCPOT, Hartree potential only
   LELF         =      F    write electronic localiz. function (ELF)
   LORBIT       =      0    0 simple, 1 ext, 2 COOP (PROOUT), +10 PAW based schemes


 Dipole corrections
   LMONO  =      F    monopole corrections only (constant potential shift)
   LDIPOL =      F    correct potential (dipole corrections)
   IDIPOL =      0    1-x, 2-y, 3-z, 4-all directions 
   EPSILON=  1.0000000 bulk dielectric constant

 Exchange correlation treatment:
   GGA     =    PE    GGA type
   LEXCH   =     8    internal setting for exchange type
   VOSKOWN=      0    Vosko Wilk Nusair interpolation
   LHFCALC =     F    Hartree Fock is set to
   LHFONE  =     F    Hartree Fock one center treatment
   AEXX    =    0.0000 exact exchange contribution

 Linear response parameters
   LEPSILON=     F    determine dielectric tensor
   LRPA    =     F    only Hartree local field effects (RPA)
   LNABLA  =     F    use nabla operator in PAW spheres
   LVEL    =     F    velocity operator in full k-point grid
   LINTERFAST=   F  fast interpolation
   KINTER  =     0    interpolate to denser k-point grid
   CSHIFT  =0.1000    complex shift for real part using Kramers Kronig
   OMEGAMAX=  -1.0    maximum frequency
   DEG_THRESHOLD= 0.2000000E-02 threshold for treating states as degnerate
   RTIME   =   -0.100 relaxation time in fs
  (WPLASMAI=    0.000 imaginary part of plasma frequency in eV, 0.658/RTIME)
   DFIELD  = 0.0000000 0.0000000 0.0000000 field for delta impulse in time
 
 Orbital magnetization related:
   ORBITALMAG=     F  switch on orbital magnetization
   LCHIMAG   =     F  perturbation theory with respect to B field
   DQ        =  0.001000  dq finite difference perturbation B field
   LLRAUG    =     F  two centre corrections for induced B field



--------------------------------------------------------------------------------------------------------


 conjugate gradient relaxation of ions
 charge density and potential will be updated during run
 non-spin polarized calculation
 Variant of blocked Davidson
 Davidson routine will perform the subspace rotation
 perform sub-space diagonalisation
    after iterative eigenvector-optimisation
 modified Broyden-mixing scheme, WC =      100.0
 initial mixing is a Kerker type mixing with AMIX =  0.4000 and BMIX =      1.0000
 Hartree-type preconditioning will be used
 using additional bands            4
 reciprocal scheme for non local part
 use partial core corrections
 calculate Harris-corrections to forces 
   (improved forces if not selfconsistent)
 use gradient corrections 
 use of overlap-Matrix (Vanderbilt PP)
 Gauss-broadening in eV      SIGMA  =   0.10


--------------------------------------------------------------------------------------------------------


  energy-cutoff  :      600.00
  volume of cell :      377.16
      direct lattice vectors                 reciprocal lattice vectors
     4.382356765  0.005477946  0.005477946     0.228188432 -0.000284880 -0.000284169
     0.005365597  4.292477857  0.005365597    -0.000290845  0.232966401 -0.000290119
     0.025000000  0.025000000 20.050000000    -0.000062267 -0.000062267  0.049875467

  length of vectors
     4.382363612  4.292484564 20.050031172     0.228188786  0.232966763  0.049875545


 
 k-points in units of 2pi/SCALE and weight: KMesh Grid                              
   0.00000000  0.00000000  0.00000000       0.004
   0.01521256 -0.00001899 -0.00001894       0.009
   0.03042512 -0.00003798 -0.00003789       0.009
   0.04563769 -0.00005698 -0.00005683       0.009
   0.06085025 -0.00007597 -0.00007578       0.009
   0.07606281 -0.00009496 -0.00009472       0.009
   0.09127537 -0.00011395 -0.00011367       0.009
   0.10648793 -0.00013294 -0.00013261       0.009
  -0.00001939  0.01553109 -0.00001934       0.009
   0.01519317  0.01551210 -0.00003829       0.009
   0.03040573  0.01549311 -0.00005723       0.009
   0.04561830  0.01547412 -0.00007618       0.009
   0.06083086  0.01545513 -0.00009512       0.009
   0.07604342  0.01543613 -0.00011406       0.009
   0.09125598  0.01541714 -0.00013301       0.009
   0.10646855  0.01539815 -0.00015195       0.009
  -0.10650732  0.01566404  0.00011327       0.009
  -0.09129476  0.01564505  0.00009433       0.009
  -0.07608220  0.01562605  0.00007538       0.009
  -0.06086964  0.01560706  0.00005644       0.009
  -0.04565708  0.01558807  0.00003749       0.009
  -0.03044451  0.01556908  0.00001855       0.009
  -0.01523195  0.01555009 -0.00000040       0.009
  -0.00003878  0.03106219 -0.00003868       0.009
   0.01517378  0.03104319 -0.00005763       0.009
   0.03038634  0.03102420 -0.00007657       0.009
   0.04559891  0.03100521 -0.00009552       0.009
   0.06081147  0.03098622 -0.00011446       0.009
   0.07602403  0.03096723 -0.00013341       0.009
   0.09123659  0.03094823 -0.00015235       0.009
   0.10644916  0.03092924 -0.00017129       0.009
  -0.10652671  0.03119513  0.00009393       0.009
  -0.09131415  0.03117614  0.00007499       0.009
  -0.07610159  0.03115715  0.00005604       0.009
  -0.06088903  0.03113815  0.00003710       0.009
  -0.04567647  0.03111916  0.00001815       0.009
  -0.03046390  0.03110017 -0.00000079       0.009
  -0.01525134  0.03108118 -0.00001974       0.009
  -0.00005817  0.04659328 -0.00005802       0.009
   0.01515439  0.04657429 -0.00007697       0.009
   0.03036696  0.04655530 -0.00009591       0.009
   0.04557952  0.04653630 -0.00011486       0.009
   0.06079208  0.04651731 -0.00013380       0.009
   0.07600464  0.04649832 -0.00015275       0.009
   0.09121720  0.04647933 -0.00017169       0.009
   0.10642977  0.04646034 -0.00019064       0.009
  -0.10654610  0.04672622  0.00007459       0.009
  -0.09133354  0.04670723  0.00005564       0.009
  -0.07612098  0.04668824  0.00003670       0.009
  -0.06090842  0.04666925  0.00001775       0.009
  -0.04569586  0.04665026 -0.00000119       0.009
  -0.03048329  0.04663126 -0.00002013       0.009
  -0.01527073  0.04661227 -0.00003908       0.009
  -0.00007756  0.06212437 -0.00007737       0.009
   0.01513500  0.06210538 -0.00009631       0.009
   0.03034757  0.06208639 -0.00011525       0.009
   0.04556013  0.06206740 -0.00013420       0.009
   0.06077269  0.06204841 -0.00015314       0.009
   0.07598525  0.06202941 -0.00017209       0.009
   0.09119781  0.06201042 -0.00019103       0.009
   0.10641038  0.06199143 -0.00020998       0.009
  -0.10656549  0.06225732  0.00005525       0.009
  -0.09135293  0.06223833  0.00003630       0.009
  -0.07614037  0.06221933  0.00001736       0.009
  -0.06092781  0.06220034 -0.00000159       0.009
  -0.04571525  0.06218135 -0.00002053       0.009
  -0.03050268  0.06216236 -0.00003948       0.009
  -0.01529012  0.06214337 -0.00005842       0.009
  -0.00009695  0.07765547 -0.00009671       0.009
   0.01511561  0.07763647 -0.00011565       0.009
   0.03032818  0.07761748 -0.00013460       0.009
   0.04554074  0.07759849 -0.00015354       0.009
   0.06075330  0.07757950 -0.00017248       0.009
   0.07596586  0.07756051 -0.00019143       0.009
   0.09117842  0.07754151 -0.00021037       0.009
   0.10639099  0.07752252 -0.00022932       0.009
  -0.10658488  0.07778841  0.00003591       0.009
  -0.09137232  0.07776942  0.00001696       0.009
  -0.07615976  0.07775043 -0.00000198       0.009
  -0.06094720  0.07773144 -0.00002093       0.009
  -0.04573463  0.07771244 -0.00003987       0.009
  -0.03052207  0.07769345 -0.00005882       0.009
  -0.01530951  0.07767446 -0.00007776       0.009
  -0.00011634  0.09318656 -0.00011605       0.009
   0.01509622  0.09316757 -0.00013499       0.009
   0.03030879  0.09314858 -0.00015394       0.009
   0.04552135  0.09312958 -0.00017288       0.009
   0.06073391  0.09311059 -0.00019183       0.009
   0.07594647  0.09309160 -0.00021077       0.009
   0.09115903  0.09307261 -0.00022972       0.009
   0.10637160  0.09305362 -0.00024866       0.009
  -0.10660427  0.09331950  0.00001656       0.009
  -0.09139171  0.09330051 -0.00000238       0.009
  -0.07617915  0.09328152 -0.00002132       0.009
  -0.06096659  0.09326253 -0.00004027       0.009
  -0.04575402  0.09324354 -0.00005921       0.009
  -0.03054146  0.09322454 -0.00007816       0.009
  -0.01532890  0.09320555 -0.00009710       0.009
  -0.00013573  0.10871765 -0.00013539       0.009
   0.01507683  0.10869866 -0.00015433       0.009
   0.03028940  0.10867967 -0.00017328       0.009
   0.04550196  0.10866068 -0.00019222       0.009
   0.06071452  0.10864169 -0.00021117       0.009
   0.07592708  0.10862269 -0.00023011       0.009
   0.09113964  0.10860370 -0.00024906       0.009
   0.10635221  0.10858471 -0.00026800       0.009
  -0.10662366  0.10885060 -0.00000278       0.009
  -0.09141110  0.10883161 -0.00002172       0.009
  -0.07619854  0.10881261 -0.00004067       0.009
  -0.06098598  0.10879362 -0.00005961       0.009
  -0.04577341  0.10877463 -0.00007856       0.009
  -0.03056085  0.10875564 -0.00009750       0.009
  -0.01534829  0.10873665 -0.00011644       0.009
 
 k-points in reciprocal lattice and weights: KMesh Grid                              
   0.00000000  0.00000000  0.00000000       0.004
   0.06666667  0.00000000 -0.00000000       0.009
   0.13333333  0.00000000 -0.00000000       0.009
   0.20000000  0.00000000 -0.00000000       0.009
   0.26666667  0.00000000 -0.00000000       0.009
   0.33333333  0.00000000 -0.00000000       0.009
   0.40000000  0.00000000 -0.00000000       0.009
   0.46666667  0.00000000 -0.00000000       0.009
   0.00000000  0.06666667  0.00000000       0.009
   0.06666667  0.06666667  0.00000000       0.009
   0.13333333  0.06666667  0.00000000       0.009
   0.20000000  0.06666667  0.00000000       0.009
   0.26666667  0.06666667 -0.00000000       0.009
   0.33333333  0.06666667 -0.00000000       0.009
   0.40000000  0.06666667  0.00000000       0.009
   0.46666667  0.06666667  0.00000000       0.009
  -0.46666667  0.06666667  0.00000000       0.009
  -0.40000000  0.06666667  0.00000000       0.009
  -0.33333333  0.06666667  0.00000000       0.009
  -0.26666667  0.06666667  0.00000000       0.009
  -0.20000000  0.06666667  0.00000000       0.009
  -0.13333333  0.06666667  0.00000000       0.009
  -0.06666667  0.06666667 -0.00000000       0.009
  -0.00000000  0.13333333 -0.00000000       0.009
   0.06666667  0.13333333  0.00000000       0.009
   0.13333333  0.13333333  0.00000000       0.009
   0.20000000  0.13333333 -0.00000000       0.009
   0.26666667  0.13333333 -0.00000000       0.009
   0.33333333  0.13333333 -0.00000000       0.009
   0.40000000  0.13333333 -0.00000000       0.009
   0.46666667  0.13333333  0.00000000       0.009
  -0.46666667  0.13333333 -0.00000000       0.009
  -0.40000000  0.13333333  0.00000000       0.009
  -0.33333333  0.13333333  0.00000000       0.009
  -0.26666667  0.13333333  0.00000000       0.009
  -0.20000000  0.13333333 -0.00000000       0.009
  -0.13333333  0.13333333 -0.00000000       0.009
  -0.06666667  0.13333333 -0.00000000       0.009
   0.00000000  0.20000000 -0.00000000       0.009
   0.06666667  0.20000000 -0.00000000       0.009
   0.13333333  0.20000000 -0.00000000       0.009
   0.20000000  0.20000000 -0.00000000       0.009
   0.26666667  0.20000000 -0.00000000       0.009
   0.33333333  0.20000000 -0.00000000       0.009
   0.40000000  0.20000000 -0.00000000       0.009
   0.46666667  0.20000000  0.00000000       0.009
  -0.46666667  0.20000000 -0.00000000       0.009
  -0.40000000  0.20000000  0.00000000       0.009
  -0.33333333  0.20000000 -0.00000000       0.009
  -0.26666667  0.20000000  0.00000000       0.009
  -0.20000000  0.20000000  0.00000000       0.009
  -0.13333333  0.20000000 -0.00000000       0.009
  -0.06666667  0.20000000 -0.00000000       0.009
  -0.00000000  0.26666667 -0.00000000       0.009
   0.06666667  0.26666667 -0.00000000       0.009
   0.13333333  0.26666667 -0.00000000       0.009
   0.20000000  0.26666667 -0.00000000       0.009
   0.26666667  0.26666667 -0.00000000       0.009
   0.33333333  0.26666667  0.00000000       0.009
   0.40000000  0.26666667 -0.00000000       0.009
   0.46666667  0.26666667  0.00000000       0.009
  -0.46666667  0.26666667 -0.00000000       0.009
  -0.40000000  0.26666667 -0.00000000       0.009
  -0.33333333  0.26666667 -0.00000000       0.009
  -0.26666667  0.26666667 -0.00000000       0.009
  -0.20000000  0.26666667 -0.00000000       0.009
  -0.13333333  0.26666667 -0.00000000       0.009
  -0.06666667  0.26666667 -0.00000000       0.009
  -0.00000000  0.33333333 -0.00000000       0.009
   0.06666667  0.33333333 -0.00000000       0.009
   0.13333333  0.33333333 -0.00000000       0.009
   0.20000000  0.33333333 -0.00000000       0.009
   0.26666667  0.33333333 -0.00000000       0.009
   0.33333333  0.33333333 -0.00000000       0.009
   0.40000000  0.33333333  0.00000000       0.009
   0.46666667  0.33333333 -0.00000000       0.009
  -0.46666667  0.33333333 -0.00000000       0.009
  -0.40000000  0.33333333  0.00000000       0.009
  -0.33333333  0.33333333 -0.00000000       0.009
  -0.26666667  0.33333333 -0.00000000       0.009
  -0.20000000  0.33333333 -0.00000000       0.009
  -0.13333333  0.33333333  0.00000000       0.009
  -0.06666667  0.33333333 -0.00000000       0.009
   0.00000000  0.40000000 -0.00000000       0.009
   0.06666667  0.40000000 -0.00000000       0.009
   0.13333333  0.40000000 -0.00000000       0.009
   0.20000000  0.40000000 -0.00000000       0.009
   0.26666667  0.40000000 -0.00000000       0.009
   0.33333333  0.40000000  0.00000000       0.009
   0.40000000  0.40000000 -0.00000000       0.009
   0.46666667  0.40000000 -0.00000000       0.009
  -0.46666667  0.40000000  0.00000000       0.009
  -0.40000000  0.40000000  0.00000000       0.009
  -0.33333333  0.40000000 -0.00000000       0.009
  -0.26666667  0.40000000 -0.00000000       0.009
  -0.20000000  0.40000000 -0.00000000       0.009
  -0.13333333  0.40000000 -0.00000000       0.009
  -0.06666667  0.40000000 -0.00000000       0.009
  -0.00000000  0.46666667  0.00000000       0.009
   0.06666667  0.46666667  0.00000000       0.009
   0.13333333  0.46666667  0.00000000       0.009
   0.20000000  0.46666667 -0.00000000       0.009
   0.26666667  0.46666667 -0.00000000       0.009
   0.33333333  0.46666667 -0.00000000       0.009
   0.40000000  0.46666667  0.00000000       0.009
   0.46666667  0.46666667  0.00000000       0.009
  -0.46666667  0.46666667 -0.00000000       0.009
  -0.40000000  0.46666667  0.00000000       0.009
  -0.33333333  0.46666667  0.00000000       0.009
  -0.26666667  0.46666667  0.00000000       0.009
  -0.20000000  0.46666667  0.00000000       0.009
  -0.13333333  0.46666667  0.00000000       0.009
  -0.06666667  0.46666667 -0.00000000       0.009
 
 position of ions in fractional coordinates (direct lattice) 
   0.58124336  0.75000000  0.56874314
   0.08124336  0.25000000  0.43125686
   0.03286064  0.25000000  0.56707387
   0.53286061  0.75000000  0.43292613
 
 position of ions in cartesian coordinates  (Angst):
   2.56545854  3.23676099 11.41050820
   0.36816020  1.08434593  8.64848646
   0.15952531  1.08747632 11.37135243
   2.35003267  3.23310053  8.68711216
 


--------------------------------------------------------------------------------------------------------


 k-point  1 :   0.0000 0.0000 0.0000  plane waves:   12653
 k-point  2 :   0.0667 0.0000-0.0000  plane waves:   12627
 k-point  3 :   0.1333 0.0000-0.0000  plane waves:   12610
 k-point  4 :   0.2000 0.0000-0.0000  plane waves:   12578
 k-point  5 :   0.2667 0.0000-0.0000  plane waves:   12571
 k-point  6 :   0.3333 0.0000-0.0000  plane waves:   12598
 k-point  7 :   0.4000 0.0000-0.0000  plane waves:   12627
 k-point  8 :   0.4667 0.0000-0.0000  plane waves:   12611
 k-point  9 :   0.0000 0.0667 0.0000  plane waves:   12604
 k-point 10 :   0.0667 0.0667 0.0000  plane waves:   12609
 k-point 11 :   0.1333 0.0667 0.0000  plane waves:   12602
 k-point 12 :   0.2000 0.0667 0.0000  plane waves:   12584
 k-point 13 :   0.2667 0.0667-0.0000  plane waves:   12595
 k-point 14 :   0.3333 0.0667-0.0000  plane waves:   12605
 k-point 15 :   0.4000 0.0667 0.0000  plane waves:   12616
 k-point 16 :   0.4667 0.0667 0.0000  plane waves:   12618
 k-point 17 :  -0.4667 0.0667 0.0000  plane waves:   12610
 k-point 18 :  -0.4000 0.0667 0.0000  plane waves:   12609
 k-point 19 :  -0.3333 0.0667 0.0000  plane waves:   12610
 k-point 20 :  -0.2667 0.0667 0.0000  plane waves:   12591
 k-point 21 :  -0.2000 0.0667 0.0000  plane waves:   12588
 k-point 22 :  -0.1333 0.0667 0.0000  plane waves:   12617
 k-point 23 :  -0.0667 0.0667-0.0000  plane waves:   12621
 k-point 24 :  -0.0000 0.1333-0.0000  plane waves:   12600
 k-point 25 :   0.0667 0.1333 0.0000  plane waves:   12609
 k-point 26 :   0.1333 0.1333 0.0000  plane waves:   12591
 k-point 27 :   0.2000 0.1333-0.0000  plane waves:   12564
 k-point 28 :   0.2667 0.1333-0.0000  plane waves:   12584
 k-point 29 :   0.3333 0.1333-0.0000  plane waves:   12601
 k-point 30 :   0.4000 0.1333-0.0000  plane waves:   12623
 k-point 31 :   0.4667 0.1333 0.0000  plane waves:   12615
 k-point 32 :  -0.4667 0.1333-0.0000  plane waves:   12618
 k-point 33 :  -0.4000 0.1333 0.0000  plane waves:   12619
 k-point 34 :  -0.3333 0.1333 0.0000  plane waves:   12609
 k-point 35 :  -0.2667 0.1333 0.0000  plane waves:   12590
 k-point 36 :  -0.2000 0.1333-0.0000  plane waves:   12586
 k-point 37 :  -0.1333 0.1333-0.0000  plane waves:   12589
 k-point 38 :  -0.0667 0.1333-0.0000  plane waves:   12607
 k-point 39 :   0.0000 0.2000-0.0000  plane waves:   12605
 k-point 40 :   0.0667 0.2000-0.0000  plane waves:   12588
 k-point 41 :   0.1333 0.2000-0.0000  plane waves:   12581
 k-point 42 :   0.2000 0.2000-0.0000  plane waves:   12588
 k-point 43 :   0.2667 0.2000-0.0000  plane waves:   12570
 k-point 44 :   0.3333 0.2000-0.0000  plane waves:   12585
 k-point 45 :   0.4000 0.2000-0.0000  plane waves:   12598
 k-point 46 :   0.4667 0.2000 0.0000  plane waves:   12613
 k-point 47 :  -0.4667 0.2000-0.0000  plane waves:   12612
 k-point 48 :  -0.4000 0.2000 0.0000  plane waves:   12600
 k-point 49 :  -0.3333 0.2000-0.0000  plane waves:   12585
 k-point 50 :  -0.2667 0.2000 0.0000  plane waves:   12589
 k-point 51 :  -0.2000 0.2000 0.0000  plane waves:   12590
 k-point 52 :  -0.1333 0.2000-0.0000  plane waves:   12588
 k-point 53 :  -0.0667 0.2000-0.0000  plane waves:   12598
 k-point 54 :  -0.0000 0.2667-0.0000  plane waves:   12589
 k-point 55 :   0.0667 0.2667-0.0000  plane waves:   12588
 k-point 56 :   0.1333 0.2667-0.0000  plane waves:   12580
 k-point 57 :   0.2000 0.2667-0.0000  plane waves:   12595
 k-point 58 :   0.2667 0.2667-0.0000  plane waves:   12583
 k-point 59 :   0.3333 0.2667 0.0000  plane waves:   12575
 k-point 60 :   0.4000 0.2667-0.0000  plane waves:   12588
 k-point 61 :   0.4667 0.2667 0.0000  plane waves:   12594
 k-point 62 :  -0.4667 0.2667-0.0000  plane waves:   12596
 k-point 63 :  -0.4000 0.2667-0.0000  plane waves:   12598
 k-point 64 :  -0.3333 0.2667-0.0000  plane waves:   12583
 k-point 65 :  -0.2667 0.2667-0.0000  plane waves:   12580
 k-point 66 :  -0.2000 0.2667-0.0000  plane waves:   12594
 k-point 67 :  -0.1333 0.2667-0.0000  plane waves:   12586
 k-point 68 :  -0.0667 0.2667-0.0000  plane waves:   12582
 k-point 69 :  -0.0000 0.3333-0.0000  plane waves:   12580
 k-point 70 :   0.0667 0.3333-0.0000  plane waves:   12567
 k-point 71 :   0.1333 0.3333-0.0000  plane waves:   12575
 k-point 72 :   0.2000 0.3333-0.0000  plane waves:   12586
 k-point 73 :   0.2667 0.3333-0.0000  plane waves:   12583
 k-point 74 :   0.3333 0.3333-0.0000  plane waves:   12571
 k-point 75 :   0.4000 0.3333 0.0000  plane waves:   12579
 k-point 76 :   0.4667 0.3333-0.0000  plane waves:   12577
 k-point 77 :  -0.4667 0.3333-0.0000  plane waves:   12578
 k-point 78 :  -0.4000 0.3333 0.0000  plane waves:   12582
 k-point 79 :  -0.3333 0.3333-0.0000  plane waves:   12579
 k-point 80 :  -0.2667 0.3333-0.0000  plane waves:   12581
 k-point 81 :  -0.2000 0.3333-0.0000  plane waves:   12588
 k-point 82 :  -0.1333 0.3333 0.0000  plane waves:   12576
 k-point 83 :  -0.0667 0.3333-0.0000  plane waves:   12561
 k-point 84 :   0.0000 0.4000-0.0000  plane waves:   12559
 k-point 85 :   0.0667 0.4000-0.0000  plane waves:   12564
 k-point 86 :   0.1333 0.4000-0.0000  plane waves:   12569
 k-point 87 :   0.2000 0.4000-0.0000  plane waves:   12566
 k-point 88 :   0.2667 0.4000-0.0000  plane waves:   12572
 k-point 89 :   0.3333 0.4000 0.0000  plane waves:   12567
 k-point 90 :   0.4000 0.4000-0.0000  plane waves:   12567
 k-point 91 :   0.4667 0.4000-0.0000  plane waves:   12565
 k-point 92 :  -0.4667 0.4000 0.0000  plane waves:   12562
 k-point 93 :  -0.4000 0.4000 0.0000  plane waves:   12549
 k-point 94 :  -0.3333 0.4000-0.0000  plane waves:   12573
 k-point 95 :  -0.2667 0.4000-0.0000  plane waves:   12580
 k-point 96 :  -0.2000 0.4000-0.0000  plane waves:   12566
 k-point 97 :  -0.1333 0.4000-0.0000  plane waves:   12567
 k-point 98 :  -0.0667 0.4000-0.0000  plane waves:   12559
 k-point 99 :  -0.0000 0.4667 0.0000  plane waves:   12552
 k-point ** :   0.0667 0.4667 0.0000  plane waves:   12563
 k-point ** :   0.1333 0.4667 0.0000  plane waves:   12576
 k-point ** :   0.2000 0.4667-0.0000  plane waves:   12582
 k-point ** :   0.2667 0.4667-0.0000  plane waves:   12539
 k-point ** :   0.3333 0.4667-0.0000  plane waves:   12559
 k-point ** :   0.4000 0.4667 0.0000  plane waves:   12553
 k-point ** :   0.4667 0.4667 0.0000  plane waves:   12567
 k-point ** :  -0.4667 0.4667-0.0000  plane waves:   12551
 k-point ** :  -0.4000 0.4667 0.0000  plane waves:   12545
 k-point ** :  -0.3333 0.4667 0.0000  plane waves:   12546
 k-point ** :  -0.2667 0.4667 0.0000  plane waves:   12559
 k-point ** :  -0.2000 0.4667 0.0000  plane waves:   12567
 k-point ** :  -0.1333 0.4667 0.0000  plane waves:   12573
 k-point ** :  -0.0667 0.4667-0.0000  plane waves:   12563

 maximum and minimum number of plane-waves per node :       545      501

 maximum number of plane-waves:     12653
 maximum index in each direction: 
   IXMAX=    9   IYMAX=    8   IZMAX=   40
   IXMIN=   -9   IYMIN=   -9   IZMIN=  -40


 parallel 3D FFT for wavefunctions:
    minimum data exchange during FFTs selected (reduces bandwidth)
 parallel 3D FFT for charge:
    minimum data exchange during FFTs selected (reduces bandwidth)


 total amount of memory used by VASP MPI-rank0    63807. kBytes
=======================================================================

   base      :      30000. kBytes
   nonl-proj :      12750. kBytes
   fftplans  :       2678. kBytes
   grid      :       4349. kBytes
   one-center:          8. kBytes
   wavefun   :      14022. kBytes
 
     INWAV:  cpu time    0.0000: real time    0.0000
 Broyden mixing: mesh for mixing (old mesh)
   NGX = 17   NGY = 17   NGZ = 81
  (NGX  = 72   NGY  = 72   NGZ  =320)
  gives a total of  23409 points

 initial charge density was supplied:
 charge density of overlapping atoms calculated
 number of electron      20.0000000 magnetization 
 keeping initial charge density in first step


--------------------------------------------------------------------------------------------------------


 Maximum index for augmentation-charges         2222 (set IRDMAX)


--------------------------------------------------------------------------------------------------------


 First call to EWALD:  gamma=   0.245
 Maximum number of real-space cells 4x 4x 1
 Maximum number of reciprocal cells 2x 2x 7

    FEWALD:  cpu time    0.0012: real time    0.0012


--------------------------------------- Iteration      1(   1)  ---------------------------------------


    POTLOK:  cpu time    1.0655: real time    1.1987
    SETDIJ:  cpu time    0.0050: real time    0.0057
     EDDAV:  cpu time    2.5720: real time    2.5803
       DOS:  cpu time    0.0049: real time    0.0049
    --------------------------------------------
      LOOP:  cpu time    3.6474: real time    3.7896

 eigenvalue-minimisations  :  3164
 total energy-change (2. order) : 0.1444228E+03  (-0.6301650E+03)
 number of electron      20.0000000 magnetization 
 augmentation part       20.0000000 magnetization 

 Free energy of the ion-electron system (eV)
  ---------------------------------------------------
  alpha Z        PSCENC =         9.48056058
  Ewald energy   TEWEN  =      1157.87019939
  -Hartree energ DENC   =     -1759.70408892
  -exchange      EXHF   =         0.00000000
  -V(xc)+E(xc)   XCENC  =      -238.59835129
  PAW double counting   =       799.43158084     -524.17639913
  entropy T*S    EENTRO =        -0.00935641
  eigenvalues    EBANDS =        -2.29922327
  atomic energy  EATOM  =       702.42789710
  Solvation  Ediel_sol  =         0.00000000
  ---------------------------------------------------
  free energy    TOTEN  =       144.42281889 eV

  energy without entropy =      144.43217530  energy(sigma->0) =      144.42749710


--------------------------------------------------------------------------------------------------------




--------------------------------------- Iteration      1(   2)  ---------------------------------------


     EDDAV:  cpu time    3.6952: real time    3.7000
       DOS:  cpu time    0.0048: real time    0.0048
    --------------------------------------------
      LOOP:  cpu time    3.7000: real time    3.7048

 eigenvalue-minimisations  :  5174
 total energy-change (2. order) :-0.1394059E+03  (-0.1347283E+03)
 number of electron      20.0000000 magnetization 
 augmentation part       20.0000000 magnetization 

 Free energy of the ion-electron system (eV)
  ---------------------------------------------------
  alpha Z        PSCENC =         9.48056058
  Ewald energy   TEWEN  =      1157.87019939
  -Hartree energ DENC   =     -1759.70408892
  -exchange      EXHF   =         0.00000000
  -V(xc)+E(xc)   XCENC  =      -238.59835129
  PAW double counting   =       799.43158084     -524.17639913
  entropy T*S    EENTRO =        -0.00114648
  eigenvalues    EBANDS =      -141.71332748
  atomic energy  EATOM  =       702.42789710
  Solvation  Ediel_sol  =         0.00000000
  ---------------------------------------------------
  free energy    TOTEN  =         5.01692461 eV

  energy without entropy =        5.01807109  energy(sigma->0) =        5.01749785


--------------------------------------------------------------------------------------------------------




--------------------------------------- Iteration      1(   3)  ---------------------------------------


     EDDAV:  cpu time    3.0043: real time    3.0088
       DOS:  cpu time    0.0032: real time    0.0032
    --------------------------------------------
      LOOP:  cpu time    3.0075: real time    3.0121

 eigenvalue-minimisations  :  4024
 total energy-change (2. order) :-0.2098415E+02  (-0.2082953E+02)
 number of electron      20.0000000 magnetization 
 augmentation part       20.0000000 magnetization 

 Free energy of the ion-electron system (eV)
  ---------------------------------------------------
  alpha Z        PSCENC =         9.48056058
  Ewald energy   TEWEN  =      1157.87019939
  -Hartree energ DENC   =     -1759.70408892
  -exchange      EXHF   =         0.00000000
  -V(xc)+E(xc)   XCENC  =      -238.59835129
  PAW double counting   =       799.43158084     -524.17639913
  entropy T*S    EENTRO =        -0.00000000
  eigenvalues    EBANDS =      -162.69862893
  atomic energy  EATOM  =       702.42789710
  Solvation  Ediel_sol  =         0.00000000
  ---------------------------------------------------
  free energy    TOTEN  =       -15.96723036 eV

  energy without entropy =      -15.96723036  energy(sigma->0) =      -15.96723036


--------------------------------------------------------------------------------------------------------




--------------------------------------- Iteration      1(   4)  ---------------------------------------


     EDDAV:  cpu time    3.2774: real time    3.2823
       DOS:  cpu time    0.0034: real time    0.0034
    --------------------------------------------
      LOOP:  cpu time    3.2807: real time    3.2857

 eigenvalue-minimisations  :  4498
 total energy-change (2. order) :-0.8123881E+00  (-0.8100301E+00)
 number of electron      20.0000000 magnetization 
 augmentation part       20.0000000 magnetization 

 Free energy of the ion-electron system (eV)
  ---------------------------------------------------
  alpha Z        PSCENC =         9.48056058
  Ewald energy   TEWEN  =      1157.87019939
  -Hartree energ DENC   =     -1759.70408892
  -exchange      EXHF   =         0.00000000
  -V(xc)+E(xc)   XCENC  =      -238.59835129
  PAW double counting   =       799.43158084     -524.17639913
  entropy T*S    EENTRO =        -0.00000000
  eigenvalues    EBANDS =      -163.51101700
  atomic energy  EATOM  =       702.42789710
  Solvation  Ediel_sol  =         0.00000000
  ---------------------------------------------------
  free energy    TOTEN  =       -16.77961843 eV

  energy without entropy =      -16.77961843  energy(sigma->0) =      -16.77961843


--------------------------------------------------------------------------------------------------------




--------------------------------------- Iteration      1(   5)  ---------------------------------------


     EDDAV:  cpu time    3.1021: real time    3.1066
       DOS:  cpu time    0.0034: real time    0.0034
    CHARGE:  cpu time    0.1987: real time    0.1991
    MIXING:  cpu time    0.0029: real time    0.0034
    --------------------------------------------
      LOOP:  cpu time    3.3071: real time    3.3124

 eigenvalue-minimisations  :  4188
 total energy-change (2. order) :-0.1938233E-01  (-0.1936685E-01)
 number of electron      20.0000000 magnetization 
 augmentation part       -4.5225696 magnetization 

 Broyden mixing:
  rms(total) = 0.44991E+00    rms(broyden)= 0.44991E+00
  rms(prec ) = 0.49066E+00
  weight for this iteration     100.00

 Free energy of the ion-electron system (eV)
  ---------------------------------------------------
  alpha Z        PSCENC =         9.48056058
  Ewald energy   TEWEN  =      1157.87019939
  -Hartree energ DENC   =     -1759.70408892
  -exchange      EXHF   =         0.00000000
  -V(xc)+E(xc)   XCENC  =      -238.59835129
  PAW double counting   =       799.43158084     -524.17639913
  entropy T*S    EENTRO =        -0.00000000
  eigenvalues    EBANDS =      -163.53039932
  atomic energy  EATOM  =       702.42789710
  Solvation  Ediel_sol  =         0.00000000
  ---------------------------------------------------
  free energy    TOTEN  =       -16.79900075 eV

  energy without entropy =      -16.79900075  energy(sigma->0) =      -16.79900075


--------------------------------------------------------------------------------------------------------




--------------------------------------- Iteration      1(   6)  ---------------------------------------


    POTLOK:  cpu time    0.0466: real time    0.0466
    SETDIJ:  cpu time    0.0040: real time    0.0040
     EDDAV:  cpu time    2.9519: real time    2.9563
       DOS:  cpu time    0.0034: real time    0.0034
    CHARGE:  cpu time    0.2066: real time    0.2069
    MIXING:  cpu time    0.0028: real time    0.0032
    --------------------------------------------
      LOOP:  cpu time    3.2153: real time    3.2203

 eigenvalue-minimisations  :  3940
 total energy-change (2. order) : 0.4938753E+00  (-0.1258673E+00)
 number of electron      20.0000000 magnetization 
 augmentation part       -4.4898202 magnetization 

 Broyden mixing:
  rms(total) = 0.27562E+00    rms(broyden)= 0.27562E+00
  rms(prec ) = 0.28479E+00
  weight for this iteration     100.00

 eigenvalues of (default mixing * dielectric matrix)
  average eigenvalue GAMMA=   1.7913
  1.7913

 Free energy of the ion-electron system (eV)
  ---------------------------------------------------
  alpha Z        PSCENC =         9.48056058
  Ewald energy   TEWEN  =      1157.87019939
  -Hartree energ DENC   =     -1767.61259456
  -exchange      EXHF   =         0.00000000
  -V(xc)+E(xc)   XCENC  =      -238.11532383
  PAW double counting   =       923.56968927     -648.49464236
  entropy T*S    EENTRO =        -0.00000000
  eigenvalues    EBANDS =      -155.43091108
  atomic energy  EATOM  =       702.42789710
  Solvation  Ediel_sol  =         0.00000000
  ---------------------------------------------------
  free energy    TOTEN  =       -16.30512549 eV

  energy without entropy =      -16.30512549  energy(sigma->0) =      -16.30512549


--------------------------------------------------------------------------------------------------------




--------------------------------------- Iteration      1(   7)  ---------------------------------------


    POTLOK:  cpu time    0.0463: real time    0.0464
    SETDIJ:  cpu time    0.0039: real time    0.0039
     EDDAV:  cpu time    3.0294: real time    3.0336
       DOS:  cpu time    0.0034: real time    0.0034
    CHARGE:  cpu time    0.2012: real time    0.2020
    MIXING:  cpu time    0.0024: real time    0.0025
    --------------------------------------------
      LOOP:  cpu time    3.2865: real time    3.2918

 eigenvalue-minimisations  :  4082
 total energy-change (2. order) : 0.2739404E-01  (-0.3133248E-01)
 number of electron      20.0000000 magnetization 
 augmentation part       -4.4817692 magnetization 

 Broyden mixing:
  rms(total) = 0.10520E+00    rms(broyden)= 0.10520E+00
  rms(prec ) = 0.11061E+00
  weight for this iteration     100.00

 eigenvalues of (default mixing * dielectric matrix)
  average eigenvalue GAMMA=   1.7317
  1.3707  2.0926

 Free energy of the ion-electron system (eV)
  ---------------------------------------------------
  alpha Z        PSCENC =         9.48056058
  Ewald energy   TEWEN  =      1157.87019939
  -Hartree energ DENC   =     -1772.62505905
  -exchange      EXHF   =         0.00000000
  -V(xc)+E(xc)   XCENC  =      -237.79372613
  PAW double counting   =      1063.28550549     -788.34649687
  entropy T*S    EENTRO =        -0.00000000
  eigenvalues    EBANDS =      -150.57661197
  atomic energy  EATOM  =       702.42789710
  Solvation  Ediel_sol  =         0.00000000
  ---------------------------------------------------
  free energy    TOTEN  =       -16.27773145 eV

  energy without entropy =      -16.27773145  energy(sigma->0) =      -16.27773145


--------------------------------------------------------------------------------------------------------




--------------------------------------- Iteration      1(   8)  ---------------------------------------


    POTLOK:  cpu time    0.0462: real time    0.0463
    SETDIJ:  cpu time    0.0040: real time    0.0040
     EDDAV:  cpu time    3.2753: real time    3.2797
       DOS:  cpu time    0.0034: real time    0.0034
    CHARGE:  cpu time    0.2017: real time    0.2020
    MIXING:  cpu time    0.0024: real time    0.0024
    --------------------------------------------
      LOOP:  cpu time    3.5330: real time    3.5379

 eigenvalue-minimisations  :  4502
 total energy-change (2. order) : 0.9648995E-02  (-0.3830948E-02)
 number of electron      20.0000000 magnetization 
 augmentation part       -4.4860017 magnetization 

 Broyden mixing:
  rms(total) = 0.20265E-01    rms(broyden)= 0.20265E-01
  rms(prec ) = 0.27758E-01
  weight for this iteration     100.00

 eigenvalues of (default mixing * dielectric matrix)
  average eigenvalue GAMMA=   1.6992
  2.5184  1.2897  1.2897

 Free energy of the ion-electron system (eV)
  ---------------------------------------------------
  alpha Z        PSCENC =         9.48056058
  Ewald energy   TEWEN  =      1157.87019939
  -Hartree energ DENC   =     -1774.35490932
  -exchange      EXHF   =         0.00000000
  -V(xc)+E(xc)   XCENC  =      -237.71410433
  PAW double counting   =      1129.44472981     -854.54424913
  entropy T*S    EENTRO =        -0.00000000
  eigenvalues    EBANDS =      -148.87820655
  atomic energy  EATOM  =       702.42789710
  Solvation  Ediel_sol  =         0.00000000
  ---------------------------------------------------
  free energy    TOTEN  =       -16.26808245 eV

  energy without entropy =      -16.26808245  energy(sigma->0) =      -16.26808245


--------------------------------------------------------------------------------------------------------




--------------------------------------- Iteration      1(   9)  ---------------------------------------


    POTLOK:  cpu time    0.0469: real time    0.0470
    SETDIJ:  cpu time    0.0039: real time    0.0039
     EDDAV:  cpu time    3.1651: real time    3.1700
       DOS:  cpu time    0.0034: real time    0.0034
    CHARGE:  cpu time    0.1996: real time    0.2000
    MIXING:  cpu time    0.0026: real time    0.0026
    --------------------------------------------
      LOOP:  cpu time    3.4215: real time    3.4268

 eigenvalue-minimisations  :  4376
 total energy-change (2. order) : 0.3733389E-02  (-0.6609195E-03)
 number of electron      20.0000000 magnetization 
 augmentation part       -4.4841150 magnetization 

 Broyden mixing:
  rms(total) = 0.10006E-01    rms(broyden)= 0.10006E-01
  rms(prec ) = 0.15667E-01
  weight for this iteration     100.00

 eigenvalues of (default mixing * dielectric matrix)
  average eigenvalue GAMMA=   1.7133
  2.2371  2.2371  1.1894  1.1894

 Free energy of the ion-electron system (eV)
  ---------------------------------------------------
  alpha Z        PSCENC =         9.48056058
  Ewald energy   TEWEN  =      1157.87019939
  -Hartree energ DENC   =     -1776.31576756
  -exchange      EXHF   =         0.00000000
  -V(xc)+E(xc)   XCENC  =      -237.64184342
  PAW double counting   =      1147.02854267     -872.13960304
  entropy T*S    EENTRO =        -0.00000000
  eigenvalues    EBANDS =      -146.97433480
  atomic energy  EATOM  =       702.42789710
  Solvation  Ediel_sol  =         0.00000000
  ---------------------------------------------------
  free energy    TOTEN  =       -16.26434906 eV

  energy without entropy =      -16.26434906  energy(sigma->0) =      -16.26434906


--------------------------------------------------------------------------------------------------------




--------------------------------------- Iteration      1(  10)  ---------------------------------------


    POTLOK:  cpu time    0.0461: real time    0.0462
    SETDIJ:  cpu time    0.0039: real time    0.0039
     EDDAV:  cpu time    3.1491: real time    3.1538
       DOS:  cpu time    0.0034: real time    0.0034
    CHARGE:  cpu time    0.1990: real time    0.1993
    MIXING:  cpu time    0.0025: real time    0.0025
    --------------------------------------------
      LOOP:  cpu time    3.4039: real time    3.4089

 eigenvalue-minimisations  :  4334
 total energy-change (2. order) : 0.1338340E-02  (-0.1261028E-03)
 number of electron      20.0000000 magnetization 
 augmentation part       -4.4828253 magnetization 

 Broyden mixing:
  rms(total) = 0.50259E-02    rms(broyden)= 0.50259E-02
  rms(prec ) = 0.93218E-02
  weight for this iteration     100.00

 eigenvalues of (default mixing * dielectric matrix)
  average eigenvalue GAMMA=   1.8601
  3.3339  2.5910  1.2328  1.2328  0.9103

 Free energy of the ion-electron system (eV)
  ---------------------------------------------------
  alpha Z        PSCENC =         9.48056058
  Ewald energy   TEWEN  =      1157.87019939
  -Hartree energ DENC   =     -1777.62440128
  -exchange      EXHF   =         0.00000000
  -V(xc)+E(xc)   XCENC  =      -237.62950718
  PAW double counting   =      1136.93552096     -862.03668030
  entropy T*S    EENTRO =        -0.00000000
  eigenvalues    EBANDS =      -145.68659998
  atomic energy  EATOM  =       702.42789710
  Solvation  Ediel_sol  =         0.00000000
  ---------------------------------------------------
  free energy    TOTEN  =       -16.26301073 eV

  energy without entropy =      -16.26301072  energy(sigma->0) =      -16.26301072


--------------------------------------------------------------------------------------------------------




--------------------------------------- Iteration      1(  11)  ---------------------------------------


    POTLOK:  cpu time    0.0477: real time    0.0477
    SETDIJ:  cpu time    0.0037: real time    0.0037
     EDDAV:  cpu time    3.1469: real time    3.1512
       DOS:  cpu time    0.0035: real time    0.0035
    CHARGE:  cpu time    0.2036: real time    0.2039
    MIXING:  cpu time    0.0025: real time    0.0025
    --------------------------------------------
      LOOP:  cpu time    3.4079: real time    3.4126

 eigenvalue-minimisations  :  4334
 total energy-change (2. order) : 0.7271980E-03  (-0.1246764E-03)
 number of electron      20.0000000 magnetization 
 augmentation part       -4.4814447 magnetization 

 Broyden mixing:
  rms(total) = 0.32487E-02    rms(broyden)= 0.32487E-02
  rms(prec ) = 0.49992E-02
  weight for this iteration     100.00

 eigenvalues of (default mixing * dielectric matrix)
  average eigenvalue GAMMA=   1.8409
  3.4011  2.3133  2.0636  1.1898  1.1898  0.8877

 Free energy of the ion-electron system (eV)
  ---------------------------------------------------
  alpha Z        PSCENC =         9.48056058
  Ewald energy   TEWEN  =      1157.87019939
  -Hartree energ DENC   =     -1779.21893556
  -exchange      EXHF   =         0.00000000
  -V(xc)+E(xc)   XCENC  =      -237.59815990
  PAW double counting   =      1138.39071943     -863.49087214
  entropy T*S    EENTRO =        -0.00000000
  eigenvalues    EBANDS =      -144.12369242
  atomic energy  EATOM  =       702.42789710
  Solvation  Ediel_sol  =         0.00000000
  ---------------------------------------------------
  free energy    TOTEN  =       -16.26228353 eV

  energy without entropy =      -16.26228353  energy(sigma->0) =      -16.26228353


--------------------------------------------------------------------------------------------------------




--------------------------------------- Iteration      1(  12)  ---------------------------------------


    POTLOK:  cpu time    0.0460: real time    0.0461
    SETDIJ:  cpu time    0.0039: real time    0.0039
     EDDAV:  cpu time    2.7680: real time    2.7718
       DOS:  cpu time    0.0034: real time    0.0034
    CHARGE:  cpu time    0.2044: real time    0.2047
    MIXING:  cpu time    0.0025: real time    0.0025
    --------------------------------------------
      LOOP:  cpu time    3.0281: real time    3.0324

 eigenvalue-minimisations  :  3620
 total energy-change (2. order) :-0.8475057E-03  (-0.2947627E-04)
 number of electron      20.0000000 magnetization 
 augmentation part       -4.4807964 magnetization 

 Broyden mixing:
  rms(total) = 0.17809E-02    rms(broyden)= 0.17809E-02
  rms(prec ) = 0.27553E-02
  weight for this iteration     100.00

 eigenvalues of (default mixing * dielectric matrix)
  average eigenvalue GAMMA=   2.0666
  4.6130  3.0783  2.5029  1.2016  1.2016  1.0236  0.8451

 Free energy of the ion-electron system (eV)
  ---------------------------------------------------
  alpha Z        PSCENC =         9.48056058
  Ewald energy   TEWEN  =      1157.87019939
  -Hartree energ DENC   =     -1779.87808858
  -exchange      EXHF   =         0.00000000
  -V(xc)+E(xc)   XCENC  =      -237.58862231
  PAW double counting   =      1139.99805742     -865.10070301
  entropy T*S    EENTRO =        -0.00000000
  eigenvalues    EBANDS =      -143.47243163
  atomic energy  EATOM  =       702.42789710
  Solvation  Ediel_sol  =         0.00000000
  ---------------------------------------------------
  free energy    TOTEN  =       -16.26313103 eV

  energy without entropy =      -16.26313103  energy(sigma->0) =      -16.26313103


--------------------------------------------------------------------------------------------------------




--------------------------------------- Iteration      1(  13)  ---------------------------------------


    POTLOK:  cpu time    0.0464: real time    0.0465
    SETDIJ:  cpu time    0.0039: real time    0.0039
     EDDAV:  cpu time    2.8276: real time    2.8315
       DOS:  cpu time    0.0034: real time    0.0034
    CHARGE:  cpu time    0.2036: real time    0.2039
    MIXING:  cpu time    0.0026: real time    0.0026
    --------------------------------------------
      LOOP:  cpu time    3.0875: real time    3.0918

 eigenvalue-minimisations  :  3740
 total energy-change (2. order) :-0.4227944E-03  (-0.7715577E-05)
 number of electron      20.0000000 magnetization 
 augmentation part       -4.4806023 magnetization 

 Broyden mixing:
  rms(total) = 0.11348E-02    rms(broyden)= 0.11348E-02
  rms(prec ) = 0.15109E-02
  weight for this iteration     100.00

 eigenvalues of (default mixing * dielectric matrix)
  average eigenvalue GAMMA=   2.2456
  5.6865  3.2869  2.4772  2.2248  1.1590  1.1590  1.0590  0.9124

 Free energy of the ion-electron system (eV)
  ---------------------------------------------------
  alpha Z        PSCENC =         9.48056058
  Ewald energy   TEWEN  =      1157.87019939
  -Hartree energ DENC   =     -1780.27860736
  -exchange      EXHF   =         0.00000000
  -V(xc)+E(xc)   XCENC  =      -237.58730223
  PAW double counting   =      1138.94250850     -864.04404654
  entropy T*S    EENTRO =        -0.00000000
  eigenvalues    EBANDS =      -143.07476326
  atomic energy  EATOM  =       702.42789710
  Solvation  Ediel_sol  =         0.00000000
  ---------------------------------------------------
  free energy    TOTEN  =       -16.26355383 eV

  energy without entropy =      -16.26355383  energy(sigma->0) =      -16.26355383


--------------------------------------------------------------------------------------------------------




--------------------------------------- Iteration      1(  14)  ---------------------------------------


    POTLOK:  cpu time    0.0511: real time    0.0512
    SETDIJ:  cpu time    0.0043: real time    0.0043
     EDDAV:  cpu time    2.9283: real time    2.9324
       DOS:  cpu time    0.0034: real time    0.0034
    CHARGE:  cpu time    0.2026: real time    0.2029
    MIXING:  cpu time    0.0027: real time    0.0027
    --------------------------------------------
      LOOP:  cpu time    3.1923: real time    3.1968

 eigenvalue-minimisations  :  3896
 total energy-change (2. order) :-0.2765637E-03  (-0.4270258E-05)
 number of electron      20.0000000 magnetization 
 augmentation part       -4.4805788 magnetization 

 Broyden mixing:
  rms(total) = 0.40544E-03    rms(broyden)= 0.40544E-03
  rms(prec ) = 0.61869E-03
  weight for this iteration     100.00

 eigenvalues of (default mixing * dielectric matrix)
  average eigenvalue GAMMA=   2.2477
  6.7575  3.0748  2.5404  2.5404  1.1825  1.1825  1.0099  0.9705  0.9705

 Free energy of the ion-electron system (eV)
  ---------------------------------------------------
  alpha Z        PSCENC =         9.48056058
  Ewald energy   TEWEN  =      1157.87019939
  -Hartree energ DENC   =     -1780.48842683
  -exchange      EXHF   =         0.00000000
  -V(xc)+E(xc)   XCENC  =      -237.58723706
  PAW double counting   =      1139.16542073     -864.26637995
  entropy T*S    EENTRO =        -0.00000000
  eigenvalues    EBANDS =      -142.86586436
  atomic energy  EATOM  =       702.42789710
  Solvation  Ediel_sol  =         0.00000000
  ---------------------------------------------------
  free energy    TOTEN  =       -16.26383039 eV

  energy without entropy =      -16.26383039  energy(sigma->0) =      -16.26383039


--------------------------------------------------------------------------------------------------------




--------------------------------------- Iteration      1(  15)  ---------------------------------------


    POTLOK:  cpu time    0.0473: real time    0.0474
    SETDIJ:  cpu time    0.0039: real time    0.0039
     EDDAV:  cpu time    2.8922: real time    2.8964
       DOS:  cpu time    0.0034: real time    0.0034
    CHARGE:  cpu time    0.2043: real time    0.2046
    MIXING:  cpu time    0.0027: real time    0.0027
    --------------------------------------------
      LOOP:  cpu time    3.1537: real time    3.1582

 eigenvalue-minimisations  :  3874
 total energy-change (2. order) :-0.5610235E-04  (-0.2056070E-06)
 number of electron      20.0000000 magnetization 
 augmentation part       -4.4805946 magnetization 

 Broyden mixing:
  rms(total) = 0.32921E-03    rms(broyden)= 0.32921E-03
  rms(prec ) = 0.49797E-03
  weight for this iteration     100.00

 eigenvalues of (default mixing * dielectric matrix)
  average eigenvalue GAMMA=   2.3614
  6.5935  4.2724  2.7015  2.7015  1.9895  1.1396  1.1396  1.2020  0.9373  0.9373

 Free energy of the ion-electron system (eV)
  ---------------------------------------------------
  alpha Z        PSCENC =         9.48056058
  Ewald energy   TEWEN  =      1157.87019939
  -Hartree energ DENC   =     -1780.50245226
  -exchange      EXHF   =         0.00000000
  -V(xc)+E(xc)   XCENC  =      -237.58757369
  PAW double counting   =      1138.98405871     -864.08490015
  entropy T*S    EENTRO =        -0.00000000
  eigenvalues    EBANDS =      -142.85167618
  atomic energy  EATOM  =       702.42789710
  Solvation  Ediel_sol  =         0.00000000
  ---------------------------------------------------
  free energy    TOTEN  =       -16.26388649 eV

  energy without entropy =      -16.26388649  energy(sigma->0) =      -16.26388649


--------------------------------------------------------------------------------------------------------




--------------------------------------- Iteration      1(  16)  ---------------------------------------


    POTLOK:  cpu time    0.0464: real time    0.0465
    SETDIJ:  cpu time    0.0050: real time    0.0050
     EDDAV:  cpu time    2.6756: real time    2.6797
       DOS:  cpu time    0.0034: real time    0.0034
    CHARGE:  cpu time    0.2028: real time    0.2031
    MIXING:  cpu time    0.0027: real time    0.0027
    --------------------------------------------
      LOOP:  cpu time    2.9359: real time    2.9404

 eigenvalue-minimisations  :  3510
 total energy-change (2. order) :-0.4563661E-04  (-0.8380791E-06)
 number of electron      20.0000000 magnetization 
 augmentation part       -4.4806058 magnetization 

 Broyden mixing:
  rms(total) = 0.11788E-03    rms(broyden)= 0.11788E-03
  rms(prec ) = 0.21860E-03
  weight for this iteration     100.00

 eigenvalues of (default mixing * dielectric matrix)
  average eigenvalue GAMMA=   2.2857
  6.8130  4.5249  2.6437  2.6437  2.2787  1.1523  1.1523  1.1919  0.9402  0.9402
  0.8617

 Free energy of the ion-electron system (eV)
  ---------------------------------------------------
  alpha Z        PSCENC =         9.48056058
  Ewald energy   TEWEN  =      1157.87019939
  -Hartree energ DENC   =     -1780.55405570
  -exchange      EXHF   =         0.00000000
  -V(xc)+E(xc)   XCENC  =      -237.58763181
  PAW double counting   =      1138.85599832     -863.95686436
  entropy T*S    EENTRO =        -0.00000000
  eigenvalues    EBANDS =      -142.80003565
  atomic energy  EATOM  =       702.42789710
  Solvation  Ediel_sol  =         0.00000000
  ---------------------------------------------------
  free energy    TOTEN  =       -16.26393213 eV

  energy without entropy =      -16.26393213  energy(sigma->0) =      -16.26393213


--------------------------------------------------------------------------------------------------------




--------------------------------------- Iteration      1(  17)  ---------------------------------------


    POTLOK:  cpu time    0.0462: real time    0.0463
    SETDIJ:  cpu time    0.0038: real time    0.0038
     EDDAV:  cpu time    2.5152: real time    2.5191
       DOS:  cpu time    0.0034: real time    0.0034
    CHARGE:  cpu time    0.1964: real time    0.1967
    MIXING:  cpu time    0.0028: real time    0.0028
    --------------------------------------------
[...]
  band No.  band energies     occupation 
      1     -14.5644      2.00000
      2     -14.3141      2.00000
      3      -8.8456      2.00000
      4      -8.6207      2.00000
      5      -6.0775      2.00000
      6      -5.1238      2.00000
      7      -4.8431      2.00000
      8      -4.0984      2.00000
      9      -3.8635      2.00000
     10      -3.0978      2.00000
     11       0.1186      0.00000
     12       1.0657      0.00000
     13       1.1571      0.00000
     14       1.5719      0.00000

 k-point    96 :      -0.2000    0.4000   -0.0000
  band No.  band energies     occupation 
      1     -14.6340      2.00000
      2     -14.3363      2.00000
      3      -9.0079      2.00000
      4      -8.7232      2.00000
      5      -5.6444      2.00000
      6      -4.8356      2.00000
      7      -4.5730      2.00000
      8      -3.9676      2.00000
      9      -3.4998      2.00000
     10      -2.7155      2.00000
     11      -0.3549      0.00000
     12       0.5501      0.00000
     13       0.7000      0.00000
     14       1.2102      0.00000

 k-point    97 :      -0.1333    0.4000   -0.0000
  band No.  band energies     occupation 
      1     -14.6899      2.00000
      2     -14.3584      2.00000
      3      -9.1336      2.00000
      4      -8.8069      2.00000
      5      -5.1309      2.00000
      6      -4.7773      2.00000
      7      -4.1563      2.00000
      8      -3.9244      2.00000
      9      -2.9398      2.00000
     10      -2.4835      2.00000
     11      -0.6346      0.00000
     12      -0.1778      0.00000
     13       0.4801      0.00000
     14       0.7745      0.00000

 k-point    98 :      -0.0667    0.4000   -0.0000
  band No.  band energies     occupation 
      1     -14.7261      2.00000
      2     -14.3741      2.00000
      3      -9.2120      2.00000
      4      -8.8609      2.00000
      5      -4.7829      2.00000
      6      -4.5998      2.00000
      7      -3.9498      2.00000
      8      -3.7480      2.00000
      9      -2.6523      2.00000
     10      -2.3714      2.00000
     11      -0.7716      0.00000
     12      -0.3863      0.00000
     13       0.2168      0.00000
     14       0.3617      0.00000

 k-point    99 :      -0.0000    0.4667    0.0000
  band No.  band energies     occupation 
      1     -14.5949      2.00000
      2     -14.4712      2.00000
      3      -9.2225      2.00000
      4      -9.0991      2.00000
      5      -4.5450      2.00000
      6      -4.3264      2.00000
      7      -3.8645      2.00000
      8      -3.6701      2.00000
      9      -2.5707      2.00000
     10      -2.2300      2.00000
     11      -0.9085      0.00000
     12      -0.4713      0.00000
     13      -0.0801      0.00000
     14       0.1183      0.00000

 k-point   100 :       0.0667    0.4667    0.0000
  band No.  band energies     occupation 
      1     -14.5853      2.00000
      2     -14.4628      2.00000
      3      -9.1944      2.00000
      4      -9.0739      2.00000
      5      -4.5603      2.00000
      6      -4.4345      2.00000
      7      -4.0152      2.00000
      8      -3.8819      2.00000
      9      -2.4963      2.00000
     10      -2.3822      2.00000
     11      -0.8129      0.00000
     12      -0.7052      0.00000
     13       0.2776      0.00000
     14       0.5855      0.00000

 k-point   101 :       0.1333    0.4667    0.0000
  band No.  band energies     occupation 
      1     -14.5567      2.00000
      2     -14.4400      2.00000
      3      -9.1117      2.00000
      4      -9.0002      2.00000
      5      -4.8451      2.00000
      6      -4.6725      2.00000
      7      -4.2493      2.00000
      8      -4.1331      2.00000
      9      -2.8522      2.00000
     10      -2.6557      2.00000
     11      -0.5639      0.00000
     12      -0.3237      0.00000
     13       0.7784      0.00000
     14       0.8772      0.00000

 k-point   102 :       0.2000    0.4667   -0.0000
  band No.  band energies     occupation 
      1     -14.5128      2.00000
      2     -14.4066      2.00000
      3      -8.9784      2.00000
      4      -8.8827      2.00000
      5      -5.3605      2.00000
      6      -5.0452      2.00000
      7      -4.4370      2.00000
      8      -4.2111      2.00000
      9      -3.3712      2.00000
     10      -3.0734      2.00000
     11      -0.0401      0.00000
     12       0.3290      0.00000
     13       1.0012      0.00000
     14       1.2303      0.00000

 k-point   103 :       0.2667    0.4667   -0.0000
  band No.  band energies     occupation 
      1     -14.4596      2.00000
      2     -14.3687      2.00000
      3      -8.8023      2.00000
      4      -8.7301      2.00000
      5      -5.8386      2.00000
      6      -5.4988      2.00000
      7      -4.6322      2.00000
      8      -4.3828      2.00000
      9      -3.7170      2.00000
     10      -3.4333      2.00000
     11       0.4750      0.00000
     12       0.8403      0.00000
     13       1.4015      0.00000
     14       1.6566      0.00000

 k-point   104 :       0.3333    0.4667   -0.0000
  band No.  band energies     occupation 
      1     -14.4047      2.00000
      2     -14.3339      2.00000
      3      -8.6001      2.00000
      4      -8.5589      2.00000
      5      -6.2309      2.00000
      6      -5.9113      2.00000
      7      -4.9338      2.00000
      8      -4.6855      2.00000
      9      -3.8268      2.00000
     10      -3.6116      2.00000
     11       0.8252      0.00000
     12       1.1001      0.00000
     13       1.9554      0.00000
     14       2.2417      0.00000

 k-point   105 :       0.4000    0.4667    0.0000
  band No.  band energies     occupation 
      1     -14.3567      2.00000
      2     -14.3100      2.00000
      3      -8.4058      2.00000
      4      -8.3972      2.00000
      5      -6.5031      2.00000
      6      -6.2547      2.00000
      7      -5.1935      2.00000
      8      -5.0055      2.00000
      9      -3.8210      2.00000
     10      -3.6820      2.00000
     11       1.0651      0.00000
     12       1.2311      0.00000
     13       2.4473      0.00000
     14       2.6924      0.00000

 k-point   106 :       0.4667    0.4667    0.0000
  band No.  band energies     occupation 
      1     -14.3230      2.00000
      2     -14.3036      2.00000
      3      -8.2913      2.00000
      4      -8.2791      2.00000
      5      -6.6116      2.00000
      6      -6.4982      2.00000
      7      -5.3011      2.00000
      8      -5.2311      2.00000
      9      -3.7835      2.00000
     10      -3.7234      2.00000
     11       1.2214      0.00000
     12       1.2702      0.00000
     13       2.6805      0.00000
     14       2.7985      0.00000

 k-point   107 :      -0.4667    0.4667   -0.0000
  band No.  band energies     occupation 
      1     -14.3178      2.00000
      2     -14.3087      2.00000
      3      -8.2953      2.00000
      4      -8.2773      2.00000
      5      -6.5855      2.00000
      6      -6.5240      2.00000
      7      -5.3020      2.00000
      8      -5.2277      2.00000
      9      -3.7637      2.00000
     10      -3.7430      2.00000
     11       1.2124      0.00000
     12       1.2795      0.00000
     13       2.6904      0.00000
     14       2.7841      0.00000

 k-point   108 :      -0.4000    0.4667    0.0000
  band No.  band energies     occupation 
      1     -14.3516      2.00000
      2     -14.3149      2.00000
      3      -8.4189      2.00000
      4      -8.3888      2.00000
      5      -6.4846      2.00000
      6      -6.2723      2.00000
      7      -5.1966      2.00000
      8      -4.9969      2.00000
      9      -3.8012      2.00000
     10      -3.7009      2.00000
     11       1.0609      0.00000
     12       1.2358      0.00000
     13       2.4610      0.00000
     14       2.6703      0.00000

 k-point   109 :      -0.3333    0.4667    0.0000
  band No.  band energies     occupation 
      1     -14.4001      2.00000
      2     -14.3382      2.00000
      3      -8.6089      2.00000
      4      -8.5554      2.00000
      5      -6.2221      2.00000
      6      -5.9179      2.00000
      7      -4.9427      2.00000
      8      -4.6720      2.00000
      9      -3.8075      2.00000
     10      -3.6280      2.00000
     11       0.8268      0.00000
     12       1.0990      0.00000
     13       1.9694      0.00000
     14       2.2242      0.00000

 k-point   110 :      -0.2667    0.4667    0.0000
  band No.  band energies     occupation 
      1     -14.4556      2.00000
      2     -14.3724      2.00000
      3      -8.8077      2.00000
      4      -8.7295      2.00000
      5      -5.8379      2.00000
      6      -5.4958      2.00000
      7      -4.6449      2.00000
      8      -4.3698      2.00000
      9      -3.7015      2.00000
     10      -3.4416      2.00000
     11       0.4820      0.00000
     12       0.8333      0.00000
     13       1.4105      0.00000
     14       1.6465      0.00000

 k-point   111 :      -0.2000    0.4667    0.0000
  band No.  band energies     occupation 
      1     -14.5097      2.00000
      2     -14.4095      2.00000
      3      -8.9816      2.00000
      4      -8.8832      2.00000
      5      -5.3662      2.00000
      6      -5.0351      2.00000
      7      -4.4466      2.00000
      8      -4.2039      2.00000
      9      -3.3660      2.00000
     10      -3.0679      2.00000
     11      -0.0313      0.00000
     12       0.3186      0.00000
     13       1.0056      0.00000
     14       1.2265      0.00000

 k-point   112 :      -0.1333    0.4667    0.0000
  band No.  band energies     occupation 
      1     -14.5546      2.00000
      2     -14.4420      2.00000
      3      -9.1135      2.00000
      4      -9.0011      2.00000
      5      -4.8553      2.00000
      6      -4.6626      2.00000
      7      -4.2515      2.00000
      8      -4.1292      2.00000
      9      -2.8568      2.00000
     10      -2.6391      2.00000
     11      -0.5588      0.00000
     12      -0.3311      0.00000
     13       0.7813      0.00000
     14       0.8791      0.00000

 k-point   113 :      -0.0667    0.4667   -0.0000
  band No.  band energies     occupation 
      1     -14.5842      2.00000
      2     -14.4638      2.00000
      3      -9.1952      2.00000
      4      -9.0744      2.00000
      5      -4.5572      2.00000
      6      -4.4431      2.00000
      7      -4.0145      2.00000
      8      -3.8768      2.00000
      9      -2.4787      2.00000
     10      -2.3920      2.00000
     11      -0.8137      0.00000
     12      -0.7020      0.00000
     13       0.2803      0.00000
     14       0.5793      0.00000


--------------------------------------------------------------------------------------------------------


 soft charge-density along one line, spin component           1
         0         1         2         3         4         5         6         7         8         9
 total charge-density along one line
 
 pseudopotential strength for first ion, spin component:           1
 30.088 -23.437   0.001  -0.089   0.035   0.002  -0.141   0.054
-23.437  28.118  -0.001   0.051  -0.019  -0.001   0.082  -0.031
  0.001  -0.001   6.332   0.000   0.000   9.796   0.000   0.000
 -0.089   0.051   0.000   6.330   0.002   0.000   9.792   0.003
  0.035  -0.019   0.000   0.002   6.332   0.000   0.003   9.796
  0.002  -0.001   9.796   0.000   0.000  15.226   0.000   0.000
 -0.141   0.082   0.000   9.792   0.003   0.000  15.220   0.004
  0.054  -0.031   0.000   0.003   9.796   0.000   0.004  15.225
  0.000   0.000   0.007   0.000   0.000   0.011   0.000   0.000
  0.000  -0.000  -0.020   0.000   0.000  -0.031   0.001   0.000
 -0.003   0.004  -0.000  -0.023  -0.004  -0.000  -0.035  -0.006
  0.003  -0.002   0.000   0.008  -0.020   0.000   0.013  -0.031
 -0.000   0.000  -0.000  -0.000   0.008  -0.001  -0.000   0.013
 total augmentation occupancy for first ion, spin component:           1
  2.025  -0.015  -0.004   0.238  -0.087   0.001  -0.042   0.016   0.001   0.000   0.023   0.002  -0.000
 -0.015   0.009   0.001  -0.073   0.027  -0.000   0.018  -0.006  -0.000   0.000  -0.002   0.001  -0.000
 -0.004   0.001   1.507   0.000   0.001  -0.405  -0.001  -0.000   0.123  -0.043  -0.003   0.000   0.001
  0.238  -0.073   0.000   1.841  -0.000  -0.001  -0.486  -0.014  -0.000  -0.001  -0.268  -0.018  -0.000
 -0.087   0.027   0.001  -0.000   1.491  -0.000  -0.014  -0.395   0.005   0.000  -0.078  -0.045  -0.006
  0.001  -0.000  -0.405  -0.001  -0.000   0.118   0.000   0.000  -0.033   0.012   0.001  -0.000  -0.000
 -0.042   0.018  -0.001  -0.486  -0.014   0.000   0.140   0.007   0.000   0.000   0.074   0.005   0.000
  0.016  -0.006  -0.000  -0.014  -0.395   0.000   0.007   0.113  -0.001  -0.000   0.021   0.012   0.002
  0.001  -0.000   0.123  -0.000   0.005  -0.033   0.000  -0.001   0.076   0.001   0.000   0.000   0.000
  0.000   0.000  -0.043  -0.001   0.000   0.012   0.000  -0.000   0.001   0.021   0.000  -0.000  -0.000
  0.023  -0.002  -0.003  -0.268  -0.078   0.001   0.074   0.021   0.000   0.000   0.078   0.006   0.002
  0.002   0.001   0.000  -0.018  -0.045  -0.000   0.005   0.012   0.000  -0.000   0.006   0.022   0.001
 -0.000  -0.000   0.001  -0.000  -0.006  -0.000   0.000   0.002   0.000  -0.000   0.002   0.001   0.017


------------------------ aborting loop because EDIFF is reached ----------------------------------------


    CHARGE:  cpu time    0.1969: real time    0.1969
    FORLOC:  cpu time    0.0027: real time    0.0027
    FORNL :  cpu time    0.3348: real time    0.3349
    STRESS:  cpu time    0.7526: real time    0.7529
    FORCOR:  cpu time    0.0475: real time    0.0475
    FORHAR:  cpu time    0.0124: real time    0.0124
    MIXING:  cpu time    0.0011: real time    0.0011
    OFIELD:  cpu time    0.0000: real time    0.0000

  FORCE on cell =-STRESS in cart. coord.  units (eV):
  Direction    XX          YY          ZZ          XY          YZ          ZX
  --------------------------------------------------------------------------------------
  Alpha Z     9.48056     9.48056     9.48056
  Ewald    1613.76356  1618.14833 -2071.59364    -0.42494     4.60712     4.58610
  Hartree  1734.57405  1736.20653 -1687.86825    -0.15146     4.27619     4.27040
  E(xc)     -77.66328   -77.67651   -78.88757    -0.00538     0.00156     0.00142
  Local   -3601.04200 -3606.49846  3504.66020     0.58694    -8.87968    -8.85687
  n-local   162.51302   162.69660   167.21457     0.01422    -0.00613    -0.00607
  augment   -31.87587   -31.81969   -32.80306    -0.00162     0.00136     0.00075
  Kinetic   190.24393   189.46307   189.79616    -0.07070    -0.00007     0.00595
  Fock        0.00000     0.00000     0.00000     0.00000     0.00000     0.00000
  -------------------------------------------------------------------------------------
  Total      -0.00605     0.00043    -0.00103    -0.05294     0.00035     0.00167
  in kB      -0.02569     0.00183    -0.00436    -0.22487     0.00148     0.00708
  external pressure =       -0.01 kB  Pullay stress =        0.00 kB


 VOLUME and BASIS-vectors are now :
 -----------------------------------------------------------------------------
  energy-cutoff  :      600.00
  volume of cell :      377.16
      direct lattice vectors                 reciprocal lattice vectors
     4.382356765  0.005477946  0.005477946     0.228188432 -0.000284880 -0.000284169
     0.005365597  4.292477857  0.005365597    -0.000290845  0.232966401 -0.000290119
     0.025000000  0.025000000 20.050000000    -0.000062267 -0.000062267  0.049875467

  length of vectors
     4.382363612  4.292484564 20.050031172     0.228188786  0.232966763  0.049875545


 FORCES acting on ions
    electron-ion (+dipol)            ewald-force                    non-local-force                 convergence-correction
 -----------------------------------------------------------------------------------------------
   0.439E+01 0.346E+00 -.144E+03   -.587E+01 -.410E+00 0.148E+03   0.149E+01 0.642E-01 -.381E+01   0.649E-05 0.158E-03 -.318E-03
   0.404E+01 -.271E-01 0.144E+03   -.552E+01 -.250E-01 -.148E+03   0.148E+01 0.526E-01 0.381E+01   -.369E-04 -.224E-03 -.166E-03
   -.498E+01 0.486E-01 -.206E+03   0.542E+01 -.345E-01 0.208E+03   -.440E+00 -.135E-01 -.204E+01   0.334E-03 -.530E-03 -.679E-03
   -.553E+01 -.454E+00 0.206E+03   0.597E+01 0.470E+00 -.208E+03   -.447E+00 -.168E-01 0.204E+01   0.101E-03 0.137E-02 -.392E-03
 -----------------------------------------------------------------------------------------------
   -.208E+01 -.872E-01 -.121E-02   -.178E-14 -.244E-14 0.000E+00   0.208E+01 0.865E-01 0.267E-02   0.405E-03 0.771E-03 -.155E-02
 
 
 POSITION                                       TOTAL-FORCE (eV/Angst)
 -----------------------------------------------------------------------------------
      2.56114      3.23845     11.40704         0.000861     -0.000055      0.000005
      0.37171      1.09273      8.65196        -0.000625      0.000287      0.000065
      0.15642      1.07898     11.36791        -0.000152      0.000065      0.000057
      2.35391      3.23152      8.69055        -0.000083     -0.000296     -0.000127
 -----------------------------------------------------------------------------------
    total drift:                               -0.000222      0.000110     -0.000090


--------------------------------------------------------------------------------------------------------



  FREE ENERGIE OF THE ION-ELECTRON SYSTEM (eV)
  ---------------------------------------------------
  free  energy   TOTEN  =       -16.26433494 eV

  energy  without entropy=      -16.26433494  energy(sigma->0) =      -16.26433494
 
 d Force = 0.3875518E-06[ 0.252E-06, 0.523E-06]  d Energy = 0.4113351E-06-0.238E-07
 d Force =-0.3604603E-02[-0.361E-02,-0.360E-02]  d Ewald  =-0.3604603E-02 0.750E-11


--------------------------------------------------------------------------------------------------------


    POTLOK:  cpu time    0.0497: real time    0.0498


--------------------------------------------------------------------------------------------------------


 Conjugate gradient step on ions:
 trial-energy change:   -0.000000  1 .order   -0.000000   -0.000001   -0.000000
  (g-gl).g = 0.204E-06      g.g   = 0.180E-06  gl.gl    = 0.469E-05
 g(Force)  = 0.180E-06   g(Stress)= 0.000E+00 ortho     = 0.162E-07
 gamma     =   0.04349
 trial     =   2.88868
 opt step  =   5.58734  (harmonic =   5.58734) maximal distance =0.00026923
 next E    =   -16.264335   (d E  =  -0.00000)


--------------------------------------------------------------------------------------------------------


  
 reached required accuracy - stopping structural energy minimisation
 writing wavefunctions
     LOOP+:  cpu time    8.5455: real time    9.1933
    4ORBIT:  cpu time    0.0000: real time    0.0000

 total amount of memory used by VASP MPI-rank0    63807. kBytes
=======================================================================

   base      :      30000. kBytes
   nonl-proj :      12750. kBytes
   fftplans  :       2678. kBytes
   grid      :       4349. kBytes
   one-center:          8. kBytes
   wavefun   :      14022. kBytes
 
  
  
 General timing and accounting informations for this job:
 ========================================================
  
                  Total CPU time used (sec):      193.219
                            User time (sec):      192.520
                          System time (sec):        0.699
                         Elapsed time (sec):      202.136
  
                   Maximum memory used (kb):      232404.
                   Average memory used (kb):           0.
  
                          Minor page faults:        67587
                          Major page faults:          142
                 Voluntary context switches:         9176
