 running on  192 total cores
 distrk:  each k-point on  192 cores,    1 groups
 distr:  one band on   24 cores,    8 groups
 using from now: INCAR     
 vasp.5.4.4.18Apr17-6-g9f103f2a35 (build Oct 01 2024 10:11:53) complex          
  
 POSCAR found type information on POSCAR  B  O 
 POSCAR found :  2 types and      10 ions
 scaLAPACK will be used
 LDA part: xc-table for Pade appr. of Perdew
 found WAVECAR, reading the header
  number of k-points has changed, file:    27 present:    24
  trying to continue reading WAVECAR, but it might fail
 WARNING: stress and forces are not correct
 POSCAR, INCAR and KPOINTS ok, starting setup
 FFT: planning ...
 reading WAVECAR
 the WAVECAR file was read successfully
 charge-density read from file: unknown                                 
 entering main loop
       N       E                     dE             d eps       ncg     rms          rms(c)
DAV:   1    -0.769107068188E+02   -0.76911E+02   -0.50985E+02  1656   0.938E+01
DAV:   2    -0.801367041373E+02   -0.32260E+01   -0.32161E+01  1872   0.256E+01
DAV:   3    -0.801901720423E+02   -0.53468E-01   -0.53386E-01  1768   0.340E+00
DAV:   4    -0.801920232224E+02   -0.18512E-02   -0.18507E-02  1896   0.547E-01
DAV:   5    -0.801920627058E+02   -0.39483E-04   -0.39482E-04  1760   0.808E-02
DAV:   6    -0.801920642209E+02   -0.15151E-05   -0.15150E-05  1664   0.135E-02
DAV:   7    -0.801920642882E+02   -0.67312E-07   -0.67370E-07  1232   0.270E-03
   1 F= -.80192064E+02 E0= -.80192064E+02  d E =0.000000E+00
 writing wavefunctions
