 running on  192 total cores
 distrk:  each k-point on  192 cores,    1 groups
 distr:  one band on   24 cores,    8 groups
 using from now: INCAR     
 vasp.5.4.4.18Apr17-6-g9f103f2a35 (build Oct 01 2024 10:11:53) complex          
  
 POSCAR found type information on POSCAR  Se Sn
 POSCAR found :  2 types and       4 ions
 scaLAPACK will be used
 WARNING: PSMAXN for non-local potential too small
 LDA part: xc-table for Pade appr. of Perdew
 found WAVECAR, reading the header
  number of k-points has changed, file:    41 present:    40
  trying to continue reading WAVECAR, but it might fail
 WARNING: stress and forces are not correct
 POSCAR, INCAR and KPOINTS ok, starting setup
 FFT: planning ...
 reading WAVECAR
 the WAVECAR file was read successfully
 charge-density read from file: unknown                                 
 entering main loop
       N       E                     dE             d eps       ncg     rms          rms(c)
DAV:   1    -0.121312386488E+02   -0.12131E+02   -0.59605E+02  1792   0.679E+01
DAV:   2    -0.162120954832E+02   -0.40809E+01   -0.40488E+01  1560   0.237E+01
DAV:   3    -0.162650195268E+02   -0.52924E-01   -0.52880E-01  1752   0.325E+00
DAV:   4    -0.162656904539E+02   -0.67093E-03   -0.67087E-03  1592   0.360E-01
DAV:   5    -0.162657095553E+02   -0.19101E-04   -0.19100E-04  1640   0.575E-02
DAV:   6    -0.162657100544E+02   -0.49906E-06   -0.49901E-06  1432   0.882E-03
   1 F= -.16265710E+02 E0= -.16265710E+02  d E =0.000000E+00
 writing wavefunctions
