
     Program PWSCF v.6.4.1 starts on  3Sep2022 at 20:26:22 

     This program is part of the open-source Quantum ESPRESSO suite
     for quantum simulation of materials; please cite
         "P. Giannozzi et al., J. Phys.:Condens. Matter 21 395502 (2009);
         "P. Giannozzi et al., J. Phys.:Condens. Matter 29 465901 (2017);
          URL http://www.quantum-espresso.org", 
     in publications or presentations arising from this work. More details at
     http://www.quantum-espresso.org/quote

     Parallel version (MPI), running on     1 processors

     MPI processes distributed on     1 nodes
     Reading input from INCAR-scf.pw

     Current dimensions of program PWSCF are:
     Max number of different atomic species (ntypx) = 10
     Max number of k-points (npk) =  40000
     Max angular momentum in pseudopotentials (lmaxx) =  3

     Subspace diagonalization in iterative solution of the eigenvalue problem:
     a serial algorithm will be used

 
     G-vector sticks info
     --------------------
     sticks:   dense  smooth     PW     G-vecs:    dense   smooth      PW
     Sum       30765   14765   3817              5517245  1834763  241139
 


     bravais-lattice index     =            0
     lattice parameter (alat)  =      32.7280  a.u.
     unit-cell volume          =   29220.9141 (a.u.)^3
     number of atoms/cell      =           79
     number of atomic types    =            2
     number of electrons       =       317.00
     number of Kohn-Sham states=          191
     kinetic-energy cutoff     =      60.0000  Ry
     charge density cutoff     =     500.0000  Ry
     convergence threshold     =      1.0E-10
     mixing beta               =       0.7000
     number of iterations used =            8  plain     mixing
     Exchange-correlation      = PBE ( 1  4  3  4 0 0)

     celldm(1)=  32.727962  celldm(2)=   0.000000  celldm(3)=   0.000000
     celldm(4)=   0.000000  celldm(5)=   0.000000  celldm(6)=   0.000000

     crystal axes: (cart. coord. in units of alat)
               a(1) = (   1.000000   0.000000   0.000000 )  
               a(2) = (   0.000000   0.721817   0.000000 )  
               a(3) = (   0.000000   0.000000   1.154808 )  

     reciprocal axes: (cart. coord. in units 2 pi/alat)
               b(1) = (  1.000000  0.000000  0.000000 )  
               b(2) = (  0.000000  1.385393  0.000000 )  
               b(3) = (  0.000000  0.000000  0.865945 )  


     PseudoPot. # 1 for B  read from file:
     ./B_pbe_v1.01.uspp.F.UPF
     MD5 check sum: d081ebb89d0c768e112975f650467a00
     Pseudo is Ultrasoft + core correction, Zval =  3.0
     Generated by new atomic code, or converted to UPF format
     Using radial grid of  781 points,  4 beta functions with: 
                l(1) =   0
                l(2) =   0
                l(3) =   1
                l(4) =   1
     Q(r) pseudized with  8 coefficients,  rinner =    1.100   1.100   1.100


     PseudoPot. # 2 for N  read from file:
     ./N.oncvpsp.upf
     MD5 check sum: 563d65bfb082928f0c9eb97172f6c357
     Pseudo is Norm-conserving + core correction, Zval =  5.0
     Generated using ONCVPSP code by D. R. Hamann
     Using radial grid of 1058 points,  4 beta functions with: 
                l(1) =   0
                l(2) =   0
                l(3) =   1
                l(4) =   1

     atomic species   valence    mass     pseudopotential
        B              3.00    10.81000     B ( 1.00)
        N              5.00    14.00674     N ( 1.00)

     No symmetry found



   Cartesian axes

     site n.     atom                  positions (alat units)
         1           B   tau(   1) = (   0.0415870   0.0722306   0.5774042  )
         2           B   tau(   2) = (   0.0417900   0.2165604   0.5774042  )
         3           B   tau(   3) = (   0.0418847   0.3609084   0.5774042  )
         4           B   tau(   4) = (   0.0417900   0.5052564   0.5774042  )
         5           B   tau(   5) = (   0.0415870   0.6495862   0.5774042  )
         6           B   tau(   6) = (   0.2913920   0.0720629   0.5774042  )
         7           B   tau(   7) = (   0.2919619   0.2164234   0.5774042  )
         8           B   tau(   8) = (   0.2920205   0.3609084   0.5774042  )
         9           B   tau(   9) = (   0.2919619   0.5053934   0.5774042  )
        10           B   tau(  10) = (   0.2913920   0.6497539   0.5774042  )
        11           B   tau(  11) = (   0.5413201   0.0722111   0.5774042  )
        12           B   tau(  12) = (   0.5403843   0.2173258   0.5774042  )
        13           B   tau(  13) = (   0.5403843   0.5044910   0.5774042  )
        14           B   tau(  14) = (   0.5413201   0.6496057   0.5774042  )
        15           B   tau(  15) = (   0.7915691   0.0722176   0.5774042  )
        16           B   tau(  16) = (   0.7916794   0.2168543   0.5774042  )
        17           B   tau(  17) = (   0.7923593   0.3609084   0.5774042  )
        18           B   tau(  18) = (   0.7916794   0.5049625   0.5774042  )
        19           B   tau(  19) = (   0.7915691   0.6495992   0.5774042  )
        20           B   tau(  20) = (   0.1664500   0.0000000   0.5774042  )
        21           B   tau(  21) = (   0.1667235   0.1444080   0.5774042  )
        22           B   tau(  22) = (   0.1668581   0.2887661   0.5774042  )
        23           B   tau(  23) = (   0.1668581   0.4330507   0.5774042  )
        24           B   tau(  24) = (   0.1667235   0.5774089   0.5774042  )
        25           B   tau(  25) = (   0.4163840   0.0000000   0.5774042  )
        26           B   tau(  26) = (   0.4162603   0.1438038   0.5774042  )
        27           B   tau(  27) = (   0.4182390   0.2881024   0.5774042  )
        28           B   tau(  28) = (   0.4182390   0.4337145   0.5774042  )
        29           B   tau(  29) = (   0.4162603   0.5780130   0.5774042  )
        30           B   tau(  30) = (   0.6666180   0.0000000   0.5774042  )
        31           B   tau(  31) = (   0.6665458   0.1445202   0.5774042  )
        32           B   tau(  32) = (   0.6664589   0.2902761   0.5774042  )
        33           B   tau(  33) = (   0.6664589   0.4315408   0.5774042  )
        34           B   tau(  34) = (   0.6665458   0.5772966   0.5774042  )
        35           B   tau(  35) = (   0.9165778   0.0000000   0.5774042  )
        36           B   tau(  36) = (   0.9166007   0.1444427   0.5774042  )
        37           B   tau(  37) = (   0.9169650   0.2887146   0.5774042  )
        38           B   tau(  38) = (   0.9169650   0.4331022   0.5774042  )
        39           B   tau(  39) = (   0.9166007   0.5773742   0.5774042  )
        40           N   tau(  40) = (   0.2081344   0.0721467   0.5774042  )
        41           N   tau(  41) = (   0.2085138   0.2166309   0.5774042  )
        42           N   tau(  42) = (   0.2085189   0.3609084   0.5774042  )
        43           N   tau(  43) = (   0.2085138   0.5051859   0.5774042  )
        44           N   tau(  44) = (   0.2081344   0.6496701   0.5774042  )
        45           N   tau(  45) = (   0.4581325   0.0719206   0.5774042  )
        46           N   tau(  46) = (   0.4577153   0.2154502   0.5774042  )
        47           N   tau(  47) = (   0.4538196   0.3609084   0.5774042  )
        48           N   tau(  48) = (   0.4577153   0.5063667   0.5774042  )
        49           N   tau(  49) = (   0.4581325   0.6498962   0.5774042  )
        50           N   tau(  50) = (   0.7082737   0.0721879   0.5774042  )
        51           N   tau(  51) = (   0.7082306   0.2164789   0.5774042  )
        52           N   tau(  52) = (   0.7095184   0.3609084   0.5774042  )
        53           N   tau(  53) = (   0.7082306   0.5053379   0.5774042  )
        54           N   tau(  54) = (   0.7082737   0.6496289   0.5774042  )
        55           N   tau(  55) = (   0.9582253   0.0722202   0.5774042  )
        56           N   tau(  56) = (   0.9584624   0.2165108   0.5774042  )
        57           N   tau(  57) = (   0.9585808   0.3609084   0.5774042  )
        58           N   tau(  58) = (   0.9584624   0.5053060   0.5774042  )
        59           N   tau(  59) = (   0.9582253   0.6495966   0.5774042  )
        60           N   tau(  60) = (   0.0831553   0.0000000   0.5774042  )
        61           N   tau(  61) = (   0.0833800   0.1443858   0.5774042  )
        62           N   tau(  62) = (   0.0835021   0.2887234   0.5774042  )
        63           N   tau(  63) = (   0.0835021   0.4330935   0.5774042  )
        64           N   tau(  64) = (   0.0833800   0.5774311   0.5774042  )
        65           N   tau(  65) = (   0.3330888   0.0000000   0.5774042  )
        66           N   tau(  66) = (   0.3330594   0.1441032   0.5774042  )
        67           N   tau(  67) = (   0.3334571   0.2888385   0.5774042  )
        68           N   tau(  68) = (   0.3334571   0.4329783   0.5774042  )
        69           N   tau(  69) = (   0.3330594   0.5777136   0.5774042  )
        70           N   tau(  70) = (   0.5833160   0.0000000   0.5774042  )
        71           N   tau(  71) = (   0.5834093   0.1442609   0.5774042  )
        72           N   tau(  72) = (   0.5856683   0.2844017   0.5774042  )
        73           N   tau(  73) = (   0.5856683   0.4374152   0.5774042  )
        74           N   tau(  74) = (   0.5834093   0.5775559   0.5774042  )
        75           N   tau(  75) = (   0.8332460   0.0000000   0.5774042  )
        76           N   tau(  76) = (   0.8331776   0.1444398   0.5774042  )
        77           N   tau(  77) = (   0.8337206   0.2886866   0.5774042  )
        78           N   tau(  78) = (   0.8337206   0.4331302   0.5774042  )
        79           N   tau(  79) = (   0.8331776   0.5773770   0.5774042  )

     number of k points=    25  gaussian smearing, width (Ry)=  0.0100
                       cart. coord. in units 2pi/alat
        k(    1) = (   0.0000000   0.0000000   0.0000000), wk =   0.0800000
        k(    2) = (   0.0000000   0.2770786   0.0000000), wk =   0.0800000
        k(    3) = (   0.0000000   0.5541572   0.0000000), wk =   0.0800000
        k(    4) = (   0.0000000  -0.5541572   0.0000000), wk =   0.0800000
        k(    5) = (   0.0000000  -0.2770786   0.0000000), wk =   0.0800000
        k(    6) = (   0.2000000   0.0000000   0.0000000), wk =   0.0800000
        k(    7) = (   0.2000000   0.2770786   0.0000000), wk =   0.0800000
        k(    8) = (   0.2000000   0.5541572   0.0000000), wk =   0.0800000
        k(    9) = (   0.2000000  -0.5541572   0.0000000), wk =   0.0800000
        k(   10) = (   0.2000000  -0.2770786   0.0000000), wk =   0.0800000
        k(   11) = (   0.4000000   0.0000000   0.0000000), wk =   0.0800000
        k(   12) = (   0.4000000   0.2770786   0.0000000), wk =   0.0800000
        k(   13) = (   0.4000000   0.5541572   0.0000000), wk =   0.0800000
        k(   14) = (   0.4000000  -0.5541572   0.0000000), wk =   0.0800000
        k(   15) = (   0.4000000  -0.2770786   0.0000000), wk =   0.0800000
        k(   16) = (  -0.4000000   0.0000000   0.0000000), wk =   0.0800000
        k(   17) = (  -0.4000000   0.2770786   0.0000000), wk =   0.0800000
        k(   18) = (  -0.4000000   0.5541572   0.0000000), wk =   0.0800000
        k(   19) = (  -0.4000000  -0.5541572   0.0000000), wk =   0.0800000
        k(   20) = (  -0.4000000  -0.2770786   0.0000000), wk =   0.0800000
        k(   21) = (  -0.2000000   0.0000000   0.0000000), wk =   0.0800000
        k(   22) = (  -0.2000000   0.2770786   0.0000000), wk =   0.0800000
        k(   23) = (  -0.2000000   0.5541572   0.0000000), wk =   0.0800000
        k(   24) = (  -0.2000000  -0.5541572   0.0000000), wk =   0.0800000
        k(   25) = (  -0.2000000  -0.2770786   0.0000000), wk =   0.0800000

     Dense  grid:  5517245 G-vectors     FFT dimensions: ( 240, 180, 270)

     Smooth grid:  1834763 G-vectors     FFT dimensions: ( 162, 120, 192)

     Estimated max dynamical RAM per process >      30.16 GB
