48   
3    

1    
  0.0057887026931749   0.0000000000000000   0.0081541965349156
  -0.0852038000    0.0002404200   -0.1557446100
   0.0004142800   -0.0053101100   -0.0025040300
   0.0015465400    0.0000022300    0.0001201000
   0.0002656500    0.0052630400   -0.0025500800
   0.0002463000   -0.0052983200   -0.0025660000
   0.0002932600    0.0053544900   -0.0024883100
   0.0003573500   -0.0003572300    0.0000752700
   0.0003598800    0.0003521400    0.0000660300
  -0.0001210600   -0.0009627900    0.0001205600
   0.0009728000    0.0000008100    0.0000704900
  -0.0001196500    0.0009619000    0.0001197200
   0.0009729900    0.0000020400    0.0000706300
   0.0002848900    0.0052055800   -0.0025431400
   0.0003565400    0.0003588500    0.0000712200
   0.0003608800   -0.0003501900    0.0000697500
   0.0002556600   -0.0052861500   -0.0025115000
  -0.0012202300    0.0037972500    0.0117824100
  -0.0003088600    0.0003973400    0.0002756500
   0.0000906000   -0.0007756200   -0.0002666000
   0.0360364900    0.0177090100    0.0401709100
   0.0053606000   -0.0215980900    0.0260806100
  -0.0006514300    0.0004395600    0.0006773400
  -0.0003146400   -0.0000513300   -0.0002661600
   0.0008457800   -0.0012966400    0.0008532000
   0.0005807100    0.0003994600   -0.0000216400
   0.0000500700   -0.0005567600    0.0000384000
  -0.0002170600   -0.0000566100   -0.0002086600
  -0.0001276900    0.0001076700   -0.0003235800
   0.0000737900    0.0001045300    0.0002465000
  -0.0000779000    0.0000001800   -0.0001804100
  -0.0000553400    0.0004337300   -0.0002356900
  -0.0014063600    0.0008619700    0.0007667400
   0.0374249800   -0.0185402900    0.0421661600
   0.0000881500    0.0007668400    0.0003269000
  -0.0002914200   -0.0003908700    0.0008601300
  -0.0012162800   -0.0037761100    0.0124294000
   0.0053186500    0.0222165100    0.0271874300
   0.0008673000    0.0013095100    0.0014351300
  -0.0003099900    0.0000532500    0.0003146300
  -0.0006291100   -0.0004382500    0.0012665400
   0.0000619900    0.0005396000    0.0006249800
   0.0005741800   -0.0003992900    0.0005542000
  -0.0001255400   -0.0001067700    0.0002559100
  -0.0002172900    0.0000532400    0.0003732600
  -0.0000538500   -0.0004173900    0.0003614600
  -0.0000791100    0.0000001800    0.0004053800
   0.0000807400   -0.0000961000    0.0008238400
  -0.0013944300   -0.0008664100    0.0013495000

17   
  0.0057887026931749   0.0000000000000000   0.0081541965349156
  -0.0026998800    0.0046543500    0.0131595500
   0.0389824300    0.0194192700    0.0408773900
  -0.0004712400    0.0000611400    0.0004455000
   0.0002615500   -0.0003911600    0.0001779200
   0.0003389400    0.0004143900    0.0003581500
  -0.0014030300    0.0001284000    0.0010618100
  -0.0003178100   -0.0008929600    0.0002620600
  -0.0000790400   -0.0000007100    0.0001220100
   0.0002839400    0.0000621400    0.0004933900
  -0.0002580500    0.0000328400    0.0000608800
  -0.0000911700   -0.0001289900   -0.0000030400
   0.0003622800    0.0007419700    0.0001297500
   0.0053548900   -0.0239268800    0.0268723000
   0.0002042400   -0.0009287300    0.0016057500
  -0.0003147000    0.0000960200    0.0000296100
  -0.0000173800    0.0007993300    0.0005244900
  -0.0506446800   -0.0001656300   -0.0877406700
   0.0040803100    0.0001809100   -0.0016933900
   0.0001989500    0.0001555000   -0.0005171400
   0.0049887700    0.0001589900   -0.0023562600
   0.0008028400   -0.0027058000   -0.0022939900
   0.0006106200    0.0017067900   -0.0017569300
   0.0001545100    0.0000887300   -0.0003499900
  -0.0000380900    0.0000244000   -0.0003866200
  -0.0000929300   -0.0001675100   -0.0006125700
   0.0000035300   -0.0000311700   -0.0003681400
   0.0001776800    0.0000133500   -0.0004220000
   0.0000025000   -0.0001108100   -0.0003683900
   0.0003074600   -0.0018849600   -0.0019641700
   0.0000310800   -0.0000159500   -0.0004399200
   0.0000850300    0.0000469700   -0.0002977300
   0.0010932800    0.0025494900   -0.0020900900
  -0.0016810200    0.0000003700    0.0094611700
   0.0016473200   -0.0012521700    0.0018478200
   0.0000900100    0.0000099100    0.0002233100
  -0.0005688900   -0.0004634100    0.0002573200
  -0.0002712300    0.0004141400    0.0001189800
  -0.0006559400    0.0023756900    0.0019888200
   0.0001181600    0.0000748700    0.0001114800
   0.0001655400   -0.0001012500    0.0002320800
  -0.0000441800   -0.0000769300    0.0002296500
  -0.0000098300   -0.0000950500    0.0001738600
  -0.0000260000    0.0000675300    0.0002161100
  -0.0000106700    0.0000277700    0.0001713900
   0.0008267100   -0.0007103900    0.0009110500
   0.0000635500   -0.0000424100    0.0001567800
   0.0002263600    0.0001362700    0.0001901700
  -0.0017667400   -0.0003486800    0.0011905200

17   
 -0.0057887026931749   0.0000000000000000  -0.0081541965349156
   0.0027204900   -0.0046428400   -0.0131739000
  -0.0374694500   -0.0185550700   -0.0393412800
   0.0004945400   -0.0000684100   -0.0004330100
  -0.0002879400    0.0003999200   -0.0001482500
  -0.0003516600   -0.0003945300   -0.0003382800
   0.0013974700   -0.0001535600   -0.0010573300
   0.0003223400    0.0008973200   -0.0002463500
   0.0000766400   -0.0000007500   -0.0001088600
  -0.0002589900   -0.0000816300   -0.0004791500
   0.0002481300   -0.0000347100   -0.0000547700
   0.0000890100    0.0001268900    0.0000105600
  -0.0003654800   -0.0007573500   -0.0001025000
  -0.0053265100    0.0233371500   -0.0263983800
  -0.0002555400    0.0009537500   -0.0015761900
   0.0003085500   -0.0000920900   -0.0000214200
   0.0000106900   -0.0008011600   -0.0005318100
   0.0491715400   -0.0001575100    0.0850914300
  -0.0040170600   -0.0001643000    0.0010744500
  -0.0001908900   -0.0001555700   -0.0000694300
  -0.0050161200   -0.0001678100    0.0017663400
  -0.0007950200    0.0026896600    0.0016963900
  -0.0006150700   -0.0017005900    0.0011428500
  -0.0001572600   -0.0000876400   -0.0002373800
   0.0000418200   -0.0000253200   -0.0001965200
   0.0000922400    0.0001644600    0.0000261200
  -0.0000028600    0.0000319100   -0.0002166400
  -0.0001760100   -0.0000077100   -0.0001656400
  -0.0000037100    0.0001152400   -0.0002172400
  -0.0003362000    0.0018764600    0.0013488000
  -0.0000303000    0.0000158000   -0.0001490600
  -0.0000855300   -0.0000477500   -0.0002853200
  -0.0010862500   -0.0025282000    0.0014870200
   0.0016566600    0.0000004100   -0.0087468800
  -0.0016398900    0.0012620100   -0.0012576300
  -0.0000860900   -0.0000102400    0.0003565200
   0.0005861000    0.0004774200    0.0003054400
   0.0002634200   -0.0004396700    0.0004407700
   0.0006499100   -0.0023453500   -0.0013900900
  -0.0001189900   -0.0000740600    0.0004655100
  -0.0001658100    0.0001021300    0.0003459500
   0.0000413800    0.0000741000    0.0003507900
   0.0000109600    0.0001004700    0.0004078200
   0.0000246700   -0.0000635100    0.0003617900
   0.0000102300   -0.0000267500    0.0004055100
  -0.0008595200    0.0007094400   -0.0003438200
  -0.0000515100    0.0000360400    0.0004237600
  -0.0002272800   -0.0001375600    0.0003908500
   0.0017601700    0.0003510900   -0.0006115100
