phonopy:
  version: 2.16.3
  frequency_unit_conversion_factor: 521.370622
  symmetry_tolerance: 1.00000e-05
  configuration:
    atom_name: "Mo Te"
    dim: "4 4 1"
    frequency_conversion_factor: "521.3706217"
    band: "0.0 0.0 0.0   0.3333333333   0.3333333333   0.0   0.5   0.0   0.0 0.0 0.0 0.0"
    band_labels: "$\\Gamma$  K M $\\Gamma$"

physical_unit:
  atomic_mass: "AMU"
  length: "angstrom"
  force_constants: "eV/angstrom^2"

space_group:
  type: "P-6m2"
  number: 187
  Hall_symbol: "P -6 2"

supercell_matrix:
- [   4,   0,   0 ]
- [   0,   4,   0 ]
- [   0,   0,   1 ]

primitive_cell:
  lattice:
  - [     3.549523652261799,     0.000000000000000,     0.000000000000000 ] # a
  - [    -1.774761826081029,     3.073977654199909,     0.000000000000000 ] # b
  - [     0.000000000000000,     0.000000000000000,    20.000000000000000 ] # c
  points:
  - symbol: Mo # 1
    coordinates: [  0.333333343000000,  0.666666687000003,  0.499999993000003 ]
    mass: 95.960000
  - symbol: Te # 2
    coordinates: [  0.666666687000003,  0.333333343000000,  0.409723437189734 ]
    mass: 127.600000
  - symbol: Te # 3
    coordinates: [  0.666666687000003,  0.333333343000000,  0.590276562810266 ]
    mass: 127.600000
  reciprocal_lattice: # without 2pi
  - [     0.281727943794032,     0.162655704182758,     0.000000000000000 ] # a*
  - [     0.000000000000000,     0.325311408374658,     0.000000000000000 ] # b*
  - [     0.000000000000000,     0.000000000000000,     0.050000000000000 ] # c*

unit_cell:
  lattice:
  - [     3.549523652261799,     0.000000000000000,     0.000000000000000 ] # a
  - [    -1.774761826081029,     3.073977654199909,     0.000000000000000 ] # b
  - [     0.000000000000000,     0.000000000000000,    20.000000000000000 ] # c
  points:
  - symbol: Mo # 1
    coordinates: [  0.333333343000000,  0.666666687000003,  0.499999993000003 ]
    mass: 95.960000
    reduced_to: 1
  - symbol: Te # 2
    coordinates: [  0.666666687000003,  0.333333343000000,  0.409723437189734 ]
    mass: 127.600000
    reduced_to: 2
  - symbol: Te # 3
    coordinates: [  0.666666687000003,  0.333333343000000,  0.590276562810266 ]
    mass: 127.600000
    reduced_to: 3

supercell:
  lattice:
  - [    14.198094609047196,     0.000000000000000,     0.000000000000000 ] # a
  - [    -7.099047304324114,    12.295910616799635,     0.000000000000000 ] # b
  - [     0.000000000000000,     0.000000000000000,    20.000000000000000 ] # c
  points:
  - symbol: Mo # 1
    coordinates: [  0.083333335750000,  0.166666671750001,  0.499999993000003 ]
    mass: 95.960000
    reduced_to: 1
  - symbol: Mo # 2
    coordinates: [  0.333333335750000,  0.166666671750001,  0.499999993000003 ]
    mass: 95.960000
    reduced_to: 1
  - symbol: Mo # 3
    coordinates: [  0.583333335750000,  0.166666671750001,  0.499999993000003 ]
    mass: 95.960000
    reduced_to: 1
  - symbol: Mo # 4
    coordinates: [  0.833333335750000,  0.166666671750001,  0.499999993000003 ]
    mass: 95.960000
    reduced_to: 1
  - symbol: Mo # 5
    coordinates: [  0.083333335750000,  0.416666671750001,  0.499999993000003 ]
    mass: 95.960000
    reduced_to: 1
  - symbol: Mo # 6
    coordinates: [  0.333333335750000,  0.416666671750001,  0.499999993000003 ]
    mass: 95.960000
    reduced_to: 1
  - symbol: Mo # 7
    coordinates: [  0.583333335750000,  0.416666671750001,  0.499999993000003 ]
    mass: 95.960000
    reduced_to: 1
  - symbol: Mo # 8
    coordinates: [  0.833333335750000,  0.416666671750001,  0.499999993000003 ]
    mass: 95.960000
    reduced_to: 1
  - symbol: Mo # 9
    coordinates: [  0.083333335750000,  0.666666671750001,  0.499999993000003 ]
    mass: 95.960000
    reduced_to: 1
  - symbol: Mo # 10
    coordinates: [  0.333333335750000,  0.666666671750001,  0.499999993000003 ]
    mass: 95.960000
    reduced_to: 1
  - symbol: Mo # 11
    coordinates: [  0.583333335750000,  0.666666671750001,  0.499999993000003 ]
    mass: 95.960000
    reduced_to: 1
  - symbol: Mo # 12
    coordinates: [  0.833333335750000,  0.666666671750001,  0.499999993000003 ]
    mass: 95.960000
    reduced_to: 1
  - symbol: Mo # 13
    coordinates: [  0.083333335750000,  0.916666671750001,  0.499999993000003 ]
    mass: 95.960000
    reduced_to: 1
  - symbol: Mo # 14
    coordinates: [  0.333333335750000,  0.916666671750001,  0.499999993000003 ]
    mass: 95.960000
    reduced_to: 1
  - symbol: Mo # 15
    coordinates: [  0.583333335750000,  0.916666671750001,  0.499999993000003 ]
    mass: 95.960000
    reduced_to: 1
  - symbol: Mo # 16
    coordinates: [  0.833333335750000,  0.916666671750001,  0.499999993000003 ]
    mass: 95.960000
    reduced_to: 1
  - symbol: Te # 17
    coordinates: [  0.166666671750001,  0.083333335750000,  0.409723437189734 ]
    mass: 127.600000
    reduced_to: 17
  - symbol: Te # 18
    coordinates: [  0.416666671750001,  0.083333335750000,  0.409723437189734 ]
    mass: 127.600000
    reduced_to: 17
  - symbol: Te # 19
    coordinates: [  0.666666671750001,  0.083333335750000,  0.409723437189734 ]
    mass: 127.600000
    reduced_to: 17
  - symbol: Te # 20
    coordinates: [  0.916666671750001,  0.083333335750000,  0.409723437189734 ]
    mass: 127.600000
    reduced_to: 17
  - symbol: Te # 21
    coordinates: [  0.166666671750001,  0.333333335750000,  0.409723437189734 ]
    mass: 127.600000
    reduced_to: 17
  - symbol: Te # 22
    coordinates: [  0.416666671750001,  0.333333335750000,  0.409723437189734 ]
    mass: 127.600000
    reduced_to: 17
  - symbol: Te # 23
    coordinates: [  0.666666671750001,  0.333333335750000,  0.409723437189734 ]
    mass: 127.600000
    reduced_to: 17
  - symbol: Te # 24
    coordinates: [  0.916666671750001,  0.333333335750000,  0.409723437189734 ]
    mass: 127.600000
    reduced_to: 17
  - symbol: Te # 25
    coordinates: [  0.166666671750001,  0.583333335750000,  0.409723437189734 ]
    mass: 127.600000
    reduced_to: 17
  - symbol: Te # 26
    coordinates: [  0.416666671750001,  0.583333335750000,  0.409723437189734 ]
    mass: 127.600000
    reduced_to: 17
  - symbol: Te # 27
    coordinates: [  0.666666671750001,  0.583333335750000,  0.409723437189734 ]
    mass: 127.600000
    reduced_to: 17
  - symbol: Te # 28
    coordinates: [  0.916666671750001,  0.583333335750000,  0.409723437189734 ]
    mass: 127.600000
    reduced_to: 17
  - symbol: Te # 29
    coordinates: [  0.166666671750001,  0.833333335750000,  0.409723437189734 ]
    mass: 127.600000
    reduced_to: 17
  - symbol: Te # 30
    coordinates: [  0.416666671750001,  0.833333335750000,  0.409723437189734 ]
    mass: 127.600000
    reduced_to: 17
  - symbol: Te # 31
    coordinates: [  0.666666671750001,  0.833333335750000,  0.409723437189734 ]
    mass: 127.600000
    reduced_to: 17
  - symbol: Te # 32
    coordinates: [  0.916666671750001,  0.833333335750000,  0.409723437189734 ]
    mass: 127.600000
    reduced_to: 17
  - symbol: Te # 33
    coordinates: [  0.166666671750001,  0.083333335750000,  0.590276562810266 ]
    mass: 127.600000
    reduced_to: 33
  - symbol: Te # 34
    coordinates: [  0.416666671750001,  0.083333335750000,  0.590276562810266 ]
    mass: 127.600000
    reduced_to: 33
  - symbol: Te # 35
    coordinates: [  0.666666671750001,  0.083333335750000,  0.590276562810266 ]
    mass: 127.600000
    reduced_to: 33
  - symbol: Te # 36
    coordinates: [  0.916666671750001,  0.083333335750000,  0.590276562810266 ]
    mass: 127.600000
    reduced_to: 33
  - symbol: Te # 37
    coordinates: [  0.166666671750001,  0.333333335750000,  0.590276562810266 ]
    mass: 127.600000
    reduced_to: 33
  - symbol: Te # 38
    coordinates: [  0.416666671750001,  0.333333335750000,  0.590276562810266 ]
    mass: 127.600000
    reduced_to: 33
  - symbol: Te # 39
    coordinates: [  0.666666671750001,  0.333333335750000,  0.590276562810266 ]
    mass: 127.600000
    reduced_to: 33
  - symbol: Te # 40
    coordinates: [  0.916666671750001,  0.333333335750000,  0.590276562810266 ]
    mass: 127.600000
    reduced_to: 33
  - symbol: Te # 41
    coordinates: [  0.166666671750001,  0.583333335750000,  0.590276562810266 ]
    mass: 127.600000
    reduced_to: 33
  - symbol: Te # 42
    coordinates: [  0.416666671750001,  0.583333335750000,  0.590276562810266 ]
    mass: 127.600000
    reduced_to: 33
  - symbol: Te # 43
    coordinates: [  0.666666671750001,  0.583333335750000,  0.590276562810266 ]
    mass: 127.600000
    reduced_to: 33
  - symbol: Te # 44
    coordinates: [  0.916666671750001,  0.583333335750000,  0.590276562810266 ]
    mass: 127.600000
    reduced_to: 33
  - symbol: Te # 45
    coordinates: [  0.166666671750001,  0.833333335750000,  0.590276562810266 ]
    mass: 127.600000
    reduced_to: 33
  - symbol: Te # 46
    coordinates: [  0.416666671750001,  0.833333335750000,  0.590276562810266 ]
    mass: 127.600000
    reduced_to: 33
  - symbol: Te # 47
    coordinates: [  0.666666671750001,  0.833333335750000,  0.590276562810266 ]
    mass: 127.600000
    reduced_to: 33
  - symbol: Te # 48
    coordinates: [  0.916666671750001,  0.833333335750000,  0.590276562810266 ]
    mass: 127.600000
    reduced_to: 33
