 vasp.5.4.4.18Apr17-6-g9f103f2a35 (build Jan 05 2022 20:33:25) complex          
  
 POSCAR found type information on POSCAR  Te Mo
 03/POSCAR found :  2 types and       6 ions
 scaLAPACK will be used
 LDA part: xc-table for Pade appr. of Perdew
 POSCAR found type information on POSCAR  Te Mo
 00/POSCAR found :  2 types and       6 ions
 POSCAR found type information on POSCAR  Te Mo
 04/POSCAR found :  2 types and       6 ions
 Jacobian:    11.4521530763955     
 POSCAR, INCAR and KPOINTS ok, starting setup
 FFT: planning ...
 WAVECAR not read
 entering main loop
       N       E                     dE             d eps       ncg     rms          rms(c)
DAV:   1     0.268868000946E+03    0.26887E+03   -0.11461E+04  3264   0.116E+03
DAV:   2     0.100070272045E+01   -0.26787E+03   -0.25909E+03  5232   0.184E+02
DAV:   3    -0.346730111479E+02   -0.35674E+02   -0.35216E+02  4344   0.762E+01
DAV:   4    -0.361404037082E+02   -0.14674E+01   -0.14559E+01  5128   0.188E+01
DAV:   5    -0.361687444981E+02   -0.28341E-01   -0.28310E-01  4792   0.273E+00    0.217E+01
DAV:   6    -0.352357416065E+02    0.93300E+00   -0.39687E+00  4624   0.972E+00    0.903E+00
DAV:   7    -0.353197284916E+02   -0.83987E-01   -0.58761E+00  4296   0.120E+01    0.658E+00
DAV:   8    -0.347997169298E+02    0.52001E+00   -0.21494E+00  4416   0.683E+00    0.256E+00
DAV:   9    -0.347904970134E+02    0.92199E-02   -0.63295E-01  4736   0.363E+00    0.153E+00
DAV:  10    -0.347717676341E+02    0.18729E-01   -0.15707E-01  4776   0.204E+00    0.828E-01
DAV:  11    -0.347670753505E+02    0.46923E-02   -0.22585E-02  4352   0.750E-01    0.389E-01
DAV:  12    -0.347661573600E+02    0.91799E-03   -0.31882E-03  4440   0.283E-01    0.215E-01
DAV:  13    -0.347657870673E+02    0.37029E-03   -0.85511E-04  4456   0.142E-01    0.847E-02
DAV:  14    -0.347656378163E+02    0.14925E-03   -0.30944E-04  4288   0.752E-02    0.382E-02
DAV:  15    -0.347655932596E+02    0.44557E-04   -0.37908E-04  4184   0.674E-02    0.367E-02
DAV:  16    -0.347656391557E+02   -0.45896E-04   -0.22152E-05  4784   0.224E-02    0.259E-02
DAV:  17    -0.347657410057E+02   -0.10185E-03   -0.10635E-05  4064   0.141E-02    0.162E-02
DAV:  18    -0.347659270184E+02   -0.18601E-03   -0.54399E-05  3864   0.257E-02    0.925E-03
DAV:  19    -0.347659697002E+02   -0.42682E-04   -0.33299E-06  3944   0.882E-03    0.638E-03
DAV:  20    -0.347660494224E+02   -0.79722E-04   -0.31471E-06  3256   0.891E-03    0.393E-03
DAV:  21    -0.347660783528E+02   -0.28930E-04   -0.16532E-06  3264   0.511E-03    0.409E-03
DAV:  22    -0.347661010663E+02   -0.22714E-04   -0.75922E-07  2896   0.363E-03    0.231E-03
DAV:  23    -0.347661198110E+02   -0.18745E-04   -0.37290E-07  2648   0.239E-03    0.118E-03
DAV:  24    -0.347661260685E+02   -0.62575E-05   -0.17894E-07  2504   0.122E-03    0.633E-04
DAV:  25    -0.347661307361E+02   -0.46676E-05   -0.99645E-08  2312   0.996E-04    0.504E-04
DAV:  26    -0.347661331928E+02   -0.24567E-05   -0.63374E-08  2184   0.677E-04    0.432E-04
DAV:  27    -0.347661336994E+02   -0.50652E-06   -0.15027E-08  1864   0.373E-04
   1 F= -.34766134E+02 E0= -.34761629E+02  d E =-.347661E+02
quench:  g(F)=  0.000E+00 g(S)=  0.000E+00 dE (1.order)= 0.000E+00
 bond charge predicted
       N       E                     dE             d eps       ncg     rms          rms(c)
DAV:   1    -0.348333015121E+02   -0.67168E-01   -0.14326E+00  3264   0.582E+00    0.542E-01
DAV:   2    -0.348352653075E+02   -0.19638E-02   -0.29451E-02  4504   0.887E-01    0.301E-01
DAV:   3    -0.348356870877E+02   -0.42178E-03   -0.16545E-02  4816   0.605E-01    0.270E-01
DAV:   4    -0.348347045528E+02    0.98253E-03   -0.10198E-02  4840   0.444E-01    0.164E-01
DAV:   5    -0.348344846385E+02    0.21991E-03   -0.94479E-04  4272   0.140E-01    0.607E-02
DAV:   6    -0.348344745405E+02    0.10098E-04   -0.12621E-04  4264   0.634E-02    0.147E-02
DAV:   7    -0.348344722014E+02    0.23392E-05   -0.21594E-05  4216   0.265E-02    0.910E-03
DAV:   8    -0.348344720652E+02    0.13619E-06   -0.23567E-06  3008   0.901E-03
   2 F= -.34834472E+02 E0= -.34829870E+02  d E =-.683384E-01
quench:  g(F)=  0.000E+00 g(S)=  0.000E+00 dE (1.order)= 0.000E+00
 bond charge predicted
       N       E                     dE             d eps       ncg     rms          rms(c)
DAV:   1    -0.349095854067E+02   -0.75113E-01   -0.42921E+00  3264   0.101E+01    0.912E-01
DAV:   2    -0.349155560983E+02   -0.59707E-02   -0.85121E-02  4448   0.149E+00    0.489E-01
DAV:   3    -0.349165470787E+02   -0.99098E-03   -0.37808E-02  4848   0.925E-01    0.425E-01
DAV:   4    -0.349143708266E+02    0.21763E-02   -0.25651E-02  4864   0.705E-01    0.277E-01
DAV:   5    -0.349136973240E+02    0.67350E-03   -0.28705E-03  4392   0.242E-01    0.872E-02
DAV:   6    -0.349136867233E+02    0.10601E-04   -0.31473E-04  4360   0.992E-02    0.236E-02
DAV:   7    -0.349136802056E+02    0.65178E-05   -0.55342E-05  4352   0.415E-02    0.148E-02
DAV:   8    -0.349136799782E+02    0.22731E-06   -0.65094E-06  4224   0.140E-02
   3 F= -.34913680E+02 E0= -.34908913E+02  d E =-.792079E-01
quench:  g(F)=  0.000E+00 g(S)=  0.000E+00 dE (1.order)= 0.000E+00
 bond charge predicted
       N       E                     dE             d eps       ncg     rms          rms(c)
DAV:   1    -0.349537574817E+02   -0.40077E-01   -0.51249E+00  3264   0.110E+01    0.100E+00
DAV:   2    -0.349611850279E+02   -0.74275E-02   -0.99281E-02  4336   0.158E+00    0.519E-01
DAV:   3    -0.349614716801E+02   -0.28665E-03   -0.16517E-02  4984   0.635E-01    0.365E-01
DAV:   4    -0.349617941699E+02   -0.32249E-03   -0.24001E-02  4936   0.675E-01    0.382E-01
DAV:   5    -0.349601710884E+02    0.16231E-02   -0.77570E-03  4920   0.385E-01    0.821E-02
DAV:   6    -0.349601441029E+02    0.26985E-04   -0.65246E-04  4360   0.128E-01    0.287E-02
DAV:   7    -0.349601351254E+02    0.89776E-05   -0.76652E-05  4272   0.517E-02    0.174E-02
DAV:   8    -0.349601349049E+02    0.22049E-06   -0.71918E-06  4536   0.131E-02
   4 F= -.34960135E+02 E0= -.34954987E+02  d E =-.464549E-01
quench:  g(F)=  0.000E+00 g(S)=  0.000E+00 dE (1.order)= 0.000E+00
 bond charge predicted
       N       E                     dE             d eps       ncg     rms          rms(c)
DAV:   1    -0.349656373653E+02   -0.55022E-02   -0.46811E+00  3264   0.106E+01    0.894E-01
DAV:   2    -0.349716923672E+02   -0.60550E-02   -0.85040E-02  4384   0.146E+00    0.482E-01
DAV:   3    -0.349714401671E+02    0.25220E-03   -0.56632E-03  4424   0.413E-01    0.298E-01
DAV:   4    -0.349722954900E+02   -0.85532E-03   -0.99200E-03  5000   0.457E-01    0.328E-01
DAV:   5    -0.349713326585E+02    0.96283E-03   -0.11010E-02  4968   0.462E-01    0.153E-01
DAV:   6    -0.349710806503E+02    0.25201E-03   -0.19567E-03  4480   0.198E-01    0.419E-02
DAV:   7    -0.349710536270E+02    0.27023E-04   -0.19532E-04  4648   0.744E-02    0.348E-02
DAV:   8    -0.349710539181E+02   -0.29115E-06   -0.14143E-05  4544   0.202E-02    0.265E-02
DAV:   9    -0.349710531352E+02    0.78294E-06   -0.47029E-06  4176   0.967E-03
   5 F= -.34971053E+02 E0= -.34965472E+02  d E =-.109182E-01
quench:  g(F)=  0.000E+00 g(S)=  0.000E+00 dE (1.order)= 0.000E+00
 bond charge predicted
       N       E                     dE             d eps       ncg     rms          rms(c)
DAV:   1    -0.349492966933E+02    0.21757E-01   -0.47519E+00  3264   0.107E+01    0.562E-01
DAV:   2    -0.349543540402E+02   -0.50573E-02   -0.64843E-02  4384   0.127E+00    0.299E-01
DAV:   3    -0.349541150369E+02    0.23900E-03   -0.18180E-03  4848   0.215E-01    0.207E-01
DAV:   4    -0.349540970196E+02    0.18017E-04   -0.18167E-03  4992   0.200E-01    0.151E-01
DAV:   5    -0.349539157824E+02    0.18124E-03   -0.25990E-03  5008   0.228E-01    0.688E-02
DAV:   6    -0.349538524828E+02    0.63300E-04   -0.47233E-04  4704   0.102E-01    0.212E-02
DAV:   7    -0.349538500983E+02    0.23844E-05   -0.59236E-05  4496   0.384E-02    0.220E-02
DAV:   8    -0.349538492007E+02    0.89765E-06   -0.71121E-06  4192   0.143E-02
   6 F= -.34953849E+02 E0= -.34948103E+02  d E =0.172039E-01
quench:  g(F)=  0.000E+00 g(S)=  0.000E+00 dE (1.order)= 0.000E+00
 bond charge predicted
       N       E                     dE             d eps       ncg     rms          rms(c)
DAV:   1    -0.349380258175E+02    0.15824E-01   -0.17941E+00  3264   0.652E+00    0.516E-01
DAV:   2    -0.349410707030E+02   -0.30449E-02   -0.38522E-02  4504   0.965E-01    0.178E-01
DAV:   3    -0.349411972263E+02   -0.12652E-03   -0.58081E-03  4680   0.384E-01    0.175E-01
DAV:   4    -0.349408445328E+02    0.35269E-03   -0.33219E-03  4904   0.265E-01    0.111E-01
DAV:   5    -0.349407547063E+02    0.89826E-04   -0.44277E-04  4616   0.101E-01    0.536E-02
DAV:   6    -0.349407409347E+02    0.13772E-04   -0.10977E-04  3760   0.617E-02    0.155E-02
DAV:   7    -0.349407411544E+02   -0.21961E-06   -0.12354E-05  4320   0.206E-02    0.579E-03
DAV:   8    -0.349407413743E+02   -0.21997E-06   -0.28782E-06  3128   0.980E-03
   7 F= -.34940741E+02 E0= -.34935132E+02  d E =0.131078E-01
quench:  g(F)=  0.000E+00 g(S)=  0.000E+00 dE (1.order)= 0.000E+00
 bond charge predicted
       N       E                     dE             d eps       ncg     rms          rms(c)
DAV:   1    -0.349443014597E+02   -0.35603E-02   -0.40506E-01  3264   0.311E+00    0.277E-01
DAV:   2    -0.349447228493E+02   -0.42139E-03   -0.67377E-03  4408   0.420E-01    0.104E-01
DAV:   3    -0.349447657922E+02   -0.42943E-04   -0.18499E-03  4864   0.210E-01    0.104E-01
DAV:   4    -0.349446399866E+02    0.12581E-03   -0.11288E-03  4952   0.153E-01    0.630E-02
DAV:   5    -0.349446096982E+02    0.30288E-04   -0.16331E-04  4536   0.579E-02    0.282E-02
DAV:   6    -0.349446084446E+02    0.12536E-05   -0.57655E-05  4224   0.392E-02    0.163E-02
DAV:   7    -0.349446060719E+02    0.23727E-05   -0.10528E-05  4240   0.180E-02    0.535E-03
DAV:   8    -0.349446063842E+02   -0.31232E-06   -0.28132E-06  3224   0.803E-03
   8 F= -.34944606E+02 E0= -.34938877E+02  d E =-.386501E-02
quench:  g(F)=  0.000E+00 g(S)=  0.000E+00 dE (1.order)= 0.000E+00
 bond charge predicted
       N       E                     dE             d eps       ncg     rms          rms(c)
DAV:   1    -0.349478569923E+02   -0.32509E-02   -0.10901E-01  3264   0.162E+00    0.132E-01
DAV:   2    -0.349479236982E+02   -0.66706E-04   -0.21407E-03  4376   0.230E-01    0.522E-02
DAV:   3    -0.349478989116E+02    0.24787E-04   -0.18637E-04  4584   0.719E-02    0.379E-02
DAV:   4    -0.349478997893E+02   -0.87769E-06   -0.24558E-04  4944   0.724E-02    0.375E-02
DAV:   5    -0.349478777415E+02    0.22048E-04   -0.14011E-04  4880   0.534E-02    0.137E-02
DAV:   6    -0.349478763666E+02    0.13749E-05   -0.16152E-05  4072   0.213E-02    0.922E-03
DAV:   7    -0.349478763657E+02    0.93087E-09   -0.22135E-06  2520   0.857E-03
   9 F= -.34947876E+02 E0= -.34942163E+02  d E =-.326998E-02
quench:  g(F)=  0.000E+00 g(S)=  0.000E+00 dE (1.order)= 0.000E+00
 bond charge predicted
       N       E                     dE             d eps       ncg     rms          rms(c)
DAV:   1    -0.349517992646E+02   -0.39229E-02   -0.14551E-01  3264   0.188E+00    0.143E-01
DAV:   2    -0.349518984924E+02   -0.99228E-04   -0.30343E-03  4360   0.271E-01    0.596E-02
DAV:   3    -0.349518571665E+02    0.41326E-04   -0.13867E-04  5000   0.624E-02    0.376E-02
DAV:   4    -0.349518599511E+02   -0.27846E-05   -0.19554E-04  4968   0.645E-02    0.393E-02
DAV:   5    -0.349518368647E+02    0.23086E-04   -0.19367E-04  4952   0.631E-02    0.181E-02
DAV:   6    -0.349518344348E+02    0.24299E-05   -0.31582E-05  4400   0.273E-02    0.120E-02
DAV:   7    -0.349518336158E+02    0.81900E-06   -0.47373E-06  3360   0.113E-02
  10 F= -.34951834E+02 E0= -.34946096E+02  d E =-.395725E-02
quench:  g(F)=  0.000E+00 g(S)=  0.000E+00 dE (1.order)= 0.000E+00
 bond charge predicted
       N       E                     dE             d eps       ncg     rms          rms(c)
DAV:   1    -0.349570168032E+02   -0.51824E-02   -0.20997E-01  3264   0.226E+00    0.167E-01
DAV:   2    -0.349571821110E+02   -0.16531E-03   -0.44452E-03  4336   0.328E-01    0.681E-02
DAV:   3    -0.349571260909E+02    0.56020E-04   -0.17779E-04  4928   0.702E-02    0.437E-02
DAV:   4    -0.349571185995E+02    0.74913E-05   -0.16735E-04  4904   0.606E-02    0.380E-02
DAV:   5    -0.349571016500E+02    0.16950E-04   -0.21437E-04  4936   0.673E-02    0.230E-02
DAV:   6    -0.349570956988E+02    0.59512E-05   -0.39604E-05  4560   0.304E-02    0.114E-02
DAV:   7    -0.349570954017E+02    0.29702E-06   -0.51598E-06  3472   0.114E-02
  11 F= -.34957095E+02 E0= -.34951327E+02  d E =-.526179E-02
quench:  g(F)=  0.000E+00 g(S)=  0.000E+00 dE (1.order)= 0.000E+00
 bond charge predicted
       N       E                     dE             d eps       ncg     rms          rms(c)
DAV:   1    -0.349641623598E+02   -0.70667E-02   -0.28089E-01  3264   0.262E+00    0.188E-01
DAV:   2    -0.349644133728E+02   -0.25101E-03   -0.61189E-03  4336   0.385E-01    0.774E-02
DAV:   3    -0.349643449472E+02    0.68426E-04   -0.26284E-04  5088   0.845E-02    0.520E-02
DAV:   4    -0.349643534889E+02   -0.85417E-05   -0.36885E-04  5040   0.889E-02    0.546E-02
DAV:   5    -0.349643054235E+02    0.48065E-04   -0.33692E-04  4960   0.839E-02    0.217E-02
DAV:   6    -0.349643017619E+02    0.36616E-05   -0.35234E-05  4136   0.303E-02    0.119E-02
DAV:   7    -0.349643015362E+02    0.22562E-06   -0.46432E-06  3520   0.119E-02
  12 F= -.34964302E+02 E0= -.34958489E+02  d E =-.720613E-02
quench:  g(F)=  0.000E+00 g(S)=  0.000E+00 dE (1.order)= 0.000E+00
 bond charge predicted
       N       E                     dE             d eps       ncg     rms          rms(c)
DAV:   1    -0.349735920306E+02   -0.92903E-02   -0.35952E-01  3264   0.296E+00    0.206E-01
DAV:   2    -0.349739402309E+02   -0.34820E-03   -0.79335E-03  4344   0.439E-01    0.871E-02
DAV:   3    -0.349738577434E+02    0.82487E-04   -0.33985E-04  5128   0.956E-02    0.586E-02
DAV:   4    -0.349738701138E+02   -0.12370E-04   -0.47355E-04  5040   0.101E-01    0.621E-02
DAV:   5    -0.349738074528E+02    0.62661E-04   -0.42261E-04  4952   0.943E-02    0.235E-02
DAV:   6    -0.349738033058E+02    0.41470E-05   -0.44885E-05  4104   0.342E-02    0.128E-02
DAV:   7    -0.349738029112E+02    0.39457E-06   -0.58319E-06  3864   0.134E-02
  13 F= -.34973803E+02 E0= -.34967924E+02  d E =-.950137E-02
quench:  g(F)=  0.000E+00 g(S)=  0.000E+00 dE (1.order)= 0.000E+00
 bond charge predicted
       N       E                     dE             d eps       ncg     rms          rms(c)
DAV:   1    -0.349850153098E+02   -0.11212E-01   -0.41817E-01  3264   0.319E+00    0.220E-01
DAV:   2    -0.349854829727E+02   -0.46766E-03   -0.98589E-03  4304   0.489E-01    0.937E-02
DAV:   3    -0.349853889464E+02    0.94026E-04   -0.39328E-04  5088   0.102E-01    0.640E-02
DAV:   4    -0.349853948868E+02   -0.59404E-05   -0.47134E-04  5016   0.102E-01    0.635E-02
DAV:   5    -0.349853319842E+02    0.62903E-04   -0.46135E-04  4944   0.995E-02    0.262E-02
DAV:   6    -0.349853256706E+02    0.63137E-05   -0.47997E-05  4088   0.355E-02    0.117E-02
DAV:   7    -0.349853258731E+02   -0.20255E-06   -0.53133E-06  4264   0.125E-02
  14 F= -.34985326E+02 E0= -.34979368E+02  d E =-.115230E-01
quench:  g(F)=  0.000E+00 g(S)=  0.000E+00 dE (1.order)= 0.000E+00
 bond charge predicted
       N       E                     dE             d eps       ncg     rms          rms(c)
DAV:   1    -0.349976003209E+02   -0.12275E-01   -0.51401E-01  3264   0.354E+00    0.238E-01
DAV:   2    -0.349981510878E+02   -0.55077E-03   -0.11881E-02  4328   0.539E-01    0.106E-01
DAV:   3    -0.349980423713E+02    0.10872E-03   -0.61363E-04  5136   0.128E-01    0.729E-02
DAV:   4    -0.349980691269E+02   -0.26756E-04   -0.89516E-04  5040   0.140E-01    0.811E-02
DAV:   5    -0.349979567033E+02    0.11242E-03   -0.61878E-04  4792   0.114E-01    0.256E-02
DAV:   6    -0.349979545355E+02    0.21678E-05   -0.69592E-05  4032   0.429E-02    0.163E-02
DAV:   7    -0.349979530963E+02    0.14392E-05   -0.84583E-06  4160   0.167E-02    0.689E-03
DAV:   8    -0.349979532050E+02   -0.10869E-06   -0.14096E-06  2280   0.688E-03
  15 F= -.34997953E+02 E0= -.34991826E+02  d E =-.126273E-01
quench:  g(F)=  0.000E+00 g(S)=  0.000E+00 dE (1.order)= 0.000E+00
 bond charge predicted
       N       E                     dE             d eps       ncg     rms          rms(c)
DAV:   1    -0.350110611565E+02   -0.13108E-01   -0.52921E-01  3264   0.358E+00    0.277E-01
DAV:   2    -0.350116879165E+02   -0.62676E-03   -0.13091E-02  4344   0.564E-01    0.107E-01
DAV:   3    -0.350115663320E+02    0.12158E-03   -0.55272E-04  4720   0.121E-01    0.762E-02
DAV:   4    -0.350115463113E+02    0.20021E-04   -0.40134E-04  4928   0.976E-02    0.629E-02
DAV:   5    -0.350115122677E+02    0.34044E-04   -0.58500E-04  4920   0.113E-01    0.409E-02
DAV:   6    -0.350114869126E+02    0.25355E-04   -0.14442E-04  4832   0.580E-02    0.141E-02
DAV:   7    -0.350114874776E+02   -0.56495E-06   -0.10285E-05  4088   0.181E-02    0.101E-02
DAV:   8    -0.350114873186E+02    0.15903E-06   -0.37363E-06  2912   0.105E-02
  16 F= -.35011487E+02 E0= -.35005308E+02  d E =-.135341E-01
quench:  g(F)=  0.000E+00 g(S)=  0.000E+00 dE (1.order)= 0.000E+00
 bond charge predicted
       N       E                     dE             d eps       ncg     rms          rms(c)
DAV:   1    -0.350241694993E+02   -0.12682E-01   -0.40472E-01  3264   0.314E+00    0.306E-01
DAV:   2    -0.350240503310E+02    0.11917E-03   -0.77923E-03  4376   0.450E-01    0.118E-01
DAV:   3    -0.350238858785E+02    0.16445E-03   -0.82927E-04  4688   0.145E-01    0.803E-02
DAV:   4    -0.350238939120E+02   -0.80335E-05   -0.11555E-03  4960   0.161E-01    0.865E-02
DAV:   5    -0.350237726150E+02    0.12130E-03   -0.73506E-04  4768   0.125E-01    0.324E-02
DAV:   6    -0.350237669262E+02    0.56888E-05   -0.13709E-04  4424   0.569E-02    0.233E-02
DAV:   7    -0.350237620332E+02    0.48931E-05   -0.21488E-05  4456   0.246E-02    0.682E-03
DAV:   8    -0.350237622686E+02   -0.23542E-06   -0.43178E-06  3712   0.947E-03
  17 F= -.35023762E+02 E0= -.35017301E+02  d E =-.122750E-01
quench:  g(F)=  0.000E+00 g(S)=  0.000E+00 dE (1.order)= 0.000E+00
 bond charge predicted
       N       E                     dE             d eps       ncg     rms          rms(c)
DAV:   1    -0.350357996539E+02   -0.12038E-01   -0.10485E-01  3264   0.164E+00    0.188E-01
DAV:   2    -0.350352998022E+02    0.49985E-03   -0.27072E-03  4352   0.268E-01    0.889E-02
DAV:   3    -0.350351419503E+02    0.15785E-03   -0.59622E-04  4768   0.122E-01    0.582E-02
DAV:   4    -0.350351311218E+02    0.10828E-04   -0.93446E-04  4968   0.144E-01    0.649E-02
DAV:   5    -0.350350495384E+02    0.81583E-04   -0.40044E-04  4848   0.929E-02    0.173E-02
DAV:   6    -0.350350489446E+02    0.59381E-06   -0.54667E-05  4296   0.370E-02    0.195E-02
DAV:   7    -0.350350473217E+02    0.16229E-05   -0.73760E-06  4056   0.152E-02    0.778E-03
DAV:   8    -0.350350474071E+02   -0.85335E-07   -0.20335E-06  2464   0.702E-03
  18 F= -.35035047E+02 E0= -.35028546E+02  d E =-.112851E-01
quench:  g(F)=  0.000E+00 g(S)=  0.000E+00 dE (1.order)= 0.000E+00
 bond charge predicted
       N       E                     dE             d eps       ncg     rms          rms(c)
DAV:   1    -0.350487978346E+02   -0.13751E-01   -0.12288E-01  3264   0.178E+00    0.189E-01
DAV:   2    -0.350482501481E+02    0.54769E-03   -0.33550E-03  4368   0.298E-01    0.912E-02
DAV:   3    -0.350480469844E+02    0.20316E-03   -0.44581E-04  4600   0.106E-01    0.498E-02
DAV:   4    -0.350480417693E+02    0.52151E-05   -0.66913E-04  4976   0.122E-01    0.626E-02
DAV:   5    -0.350479703084E+02    0.71461E-04   -0.41737E-04  4928   0.953E-02    0.193E-02
DAV:   6    -0.350479689412E+02    0.13672E-05   -0.59607E-05  4336   0.384E-02    0.200E-02
DAV:   7    -0.350479667641E+02    0.21771E-05   -0.91034E-06  4128   0.165E-02    0.726E-03
DAV:   8    -0.350479668232E+02   -0.59050E-07   -0.20058E-06  2368   0.707E-03
  19 F= -.35047967E+02 E0= -.35041410E+02  d E =-.129194E-01
quench:  g(F)=  0.000E+00 g(S)=  0.000E+00 dE (1.order)= 0.000E+00
 bond charge predicted
       N       E                     dE             d eps       ncg     rms          rms(c)
DAV:   1    -0.350637335634E+02   -0.15767E-01   -0.15583E-01  3264   0.199E+00    0.203E-01
DAV:   2    -0.350631638825E+02    0.56968E-03   -0.43898E-03  4368   0.339E-01    0.969E-02
DAV:   3    -0.350629305390E+02    0.23334E-03   -0.43108E-04  4648   0.103E-01    0.502E-02
DAV:   4    -0.350628946169E+02    0.35922E-04   -0.43228E-04  4912   0.977E-02    0.523E-02
DAV:   5    -0.350628520227E+02    0.42594E-04   -0.35286E-04  4920   0.887E-02    0.235E-02
DAV:   6    -0.350628478595E+02    0.41632E-05   -0.69300E-05  4512   0.411E-02    0.196E-02
DAV:   7    -0.350628453354E+02    0.25241E-05   -0.11129E-05  4216   0.174E-02    0.724E-03
DAV:   8    -0.350628454189E+02   -0.83508E-07   -0.21957E-06  2440   0.749E-03
  20 F= -.35062845E+02 E0= -.35056217E+02  d E =-.148786E-01
quench:  g(F)=  0.000E+00 g(S)=  0.000E+00 dE (1.order)= 0.000E+00
 bond charge predicted
       N       E                     dE             d eps       ncg     rms          rms(c)
DAV:   1    -0.350806461419E+02   -0.17801E-01   -0.20630E-01  3272   0.228E+00    0.220E-01
DAV:   2    -0.350801091671E+02    0.53697E-03   -0.58434E-03  4376   0.388E-01    0.104E-01
DAV:   3    -0.350798602077E+02    0.24896E-03   -0.49784E-04  4744   0.112E-01    0.567E-02
DAV:   4    -0.350798276597E+02    0.32548E-04   -0.56317E-04  4944   0.112E-01    0.614E-02
DAV:   5    -0.350797667836E+02    0.60876E-04   -0.45910E-04  4936   0.101E-01    0.238E-02
DAV:   6    -0.350797620342E+02    0.47494E-05   -0.72766E-05  4408   0.425E-02    0.189E-02
DAV:   7    -0.350797598175E+02    0.22168E-05   -0.10564E-05  4240   0.174E-02    0.745E-03
DAV:   8    -0.350797600147E+02   -0.19727E-06   -0.17762E-06  2464   0.706E-03
  21 F= -.35079760E+02 E0= -.35073065E+02  d E =-.169146E-01
quench:  g(F)=  0.000E+00 g(S)=  0.000E+00 dE (1.order)= 0.000E+00
 bond charge predicted
       N       E                     dE             d eps       ncg     rms          rms(c)
DAV:   1    -0.350992962015E+02   -0.19536E-01   -0.26590E-01  3280   0.258E+00    0.239E-01
DAV:   2    -0.350988281197E+02    0.46808E-03   -0.75746E-03  4352   0.439E-01    0.112E-01
DAV:   3    -0.350985688599E+02    0.25926E-03   -0.58907E-04  4896   0.122E-01    0.638E-02
DAV:   4    -0.350985465465E+02    0.22313E-04   -0.75617E-04  4960   0.130E-01    0.725E-02
DAV:   5    -0.350984587812E+02    0.87765E-04   -0.60078E-04  4928   0.116E-01    0.242E-02
DAV:   6    -0.350984538067E+02    0.49745E-05   -0.79902E-05  4296   0.449E-02    0.184E-02
DAV:   7    -0.350984518091E+02    0.19976E-05   -0.10543E-05  4272   0.179E-02    0.760E-03
DAV:   8    -0.350984520885E+02   -0.27946E-06   -0.16181E-06  2544   0.690E-03
  22 F= -.35098452E+02 E0= -.35091696E+02  d E =-.186921E-01
quench:  g(F)=  0.000E+00 g(S)=  0.000E+00 dE (1.order)= 0.000E+00
 bond charge predicted
       N       E                     dE             d eps       ncg     rms          rms(c)
DAV:   1    -0.351191186635E+02   -0.20667E-01   -0.33114E-01  3288   0.287E+00    0.257E-01
DAV:   2    -0.351187663160E+02    0.35235E-03   -0.94975E-03  4352   0.489E-01    0.119E-01
DAV:   3    -0.351185053037E+02    0.26101E-03   -0.70432E-04  4968   0.135E-01    0.712E-02
DAV:   4    -0.351185026405E+02    0.26632E-05   -0.10302E-03  4968   0.152E-01    0.852E-02
DAV:   5    -0.351183772836E+02    0.12536E-03   -0.76271E-04  4928   0.130E-01    0.243E-02
DAV:   6    -0.351183731464E+02    0.41372E-05   -0.87486E-05  4080   0.476E-02    0.180E-02
DAV:   7    -0.351183712754E+02    0.18711E-05   -0.10682E-05  4232   0.188E-02    0.771E-03
DAV:   8    -0.351183715893E+02   -0.31391E-06   -0.16636E-06  2632   0.696E-03
  23 F= -.35118372E+02 E0= -.35111562E+02  d E =-.199195E-01
quench:  g(F)=  0.000E+00 g(S)=  0.000E+00 dE (1.order)= 0.000E+00
 bond charge predicted
       N       E                     dE             d eps       ncg     rms          rms(c)
DAV:   1    -0.351392066044E+02   -0.20835E-01   -0.39949E-01  3272   0.314E+00    0.274E-01
DAV:   2    -0.351390004544E+02    0.20615E-03   -0.11525E-02  4352   0.536E-01    0.126E-01
DAV:   3    -0.351387423871E+02    0.25807E-03   -0.84372E-04  5016   0.149E-01    0.785E-02
DAV:   4    -0.351387567785E+02   -0.14391E-04   -0.13129E-03  4976   0.172E-01    0.957E-02
DAV:   5    -0.351385959128E+02    0.16087E-03   -0.88870E-04  4920   0.140E-01    0.246E-02
DAV:   6    -0.351385933493E+02    0.25635E-05   -0.95593E-05  4008   0.502E-02    0.179E-02
DAV:   7    -0.351385913634E+02    0.19860E-05   -0.11095E-05  4208   0.196E-02    0.779E-03
DAV:   8    -0.351385916780E+02   -0.31469E-06   -0.19083E-06  2808   0.721E-03
  24 F= -.35138592E+02 E0= -.35131725E+02  d E =-.202201E-01
quench:  g(F)=  0.000E+00 g(S)=  0.000E+00 dE (1.order)= 0.000E+00
 bond charge predicted
       N       E                     dE             d eps       ncg     rms          rms(c)
DAV:   1    -0.351583879237E+02   -0.19797E-01   -0.46832E-01  3264   0.340E+00    0.288E-01
DAV:   2    -0.351583709844E+02    0.16939E-04   -0.13454E-02  4352   0.578E-01    0.132E-01
DAV:   3    -0.351581291555E+02    0.24183E-03   -0.10349E-03  5032   0.167E-01    0.862E-02
DAV:   4    -0.351581512764E+02   -0.22121E-04   -0.16055E-03  4976   0.190E-01    0.103E-01
DAV:   5    -0.351579628258E+02    0.18845E-03   -0.94618E-04  4888   0.145E-01    0.252E-02
DAV:   6    -0.351579625643E+02    0.26147E-06   -0.10252E-04  4056   0.524E-02    0.182E-02
DAV:   7    -0.351579603056E+02    0.22588E-05   -0.11713E-05  4256   0.201E-02    0.790E-03
DAV:   8    -0.351579606005E+02   -0.29492E-06   -0.22349E-06  2928   0.753E-03
  25 F= -.35157961E+02 E0= -.35151024E+02  d E =-.193689E-01
quench:  g(F)=  0.000E+00 g(S)=  0.000E+00 dE (1.order)= 0.000E+00
 bond charge predicted
       N       E                     dE             d eps       ncg     rms          rms(c)
DAV:   1    -0.351748849440E+02   -0.16925E-01   -0.52853E-01  3264   0.360E+00    0.295E-01
DAV:   2    -0.351751605843E+02   -0.27564E-03   -0.14837E-02  4368   0.606E-01    0.131E-01
DAV:   3    -0.351749596282E+02    0.20096E-03   -0.10861E-03  5064   0.173E-01    0.890E-02
DAV:   4    -0.351749812861E+02   -0.21658E-04   -0.15972E-03  4960   0.190E-01    0.104E-01
DAV:   5    -0.351748001789E+02    0.18111E-03   -0.89187E-04  4864   0.141E-01    0.262E-02
DAV:   6    -0.351748010656E+02   -0.88666E-06   -0.10593E-04  4208   0.531E-02    0.172E-02
DAV:   7    -0.351747986388E+02    0.24268E-05   -0.12558E-05  4376   0.204E-02    0.705E-03
DAV:   8    -0.351747988397E+02   -0.20093E-06   -0.21872E-06  2952   0.743E-03
  26 F= -.35174799E+02 E0= -.35167768E+02  d E =-.168382E-01
quench:  g(F)=  0.000E+00 g(S)=  0.000E+00 dE (1.order)= 0.000E+00
 bond charge predicted
       N       E                     dE             d eps       ncg     rms          rms(c)
DAV:   1    -0.351813938353E+02   -0.65952E-02   -0.57803E-01  3264   0.373E+00    0.275E-01
DAV:   2    -0.351823152070E+02   -0.92137E-03   -0.13600E-02  4336   0.574E-01    0.107E-01
DAV:   3    -0.351822451336E+02    0.70073E-04   -0.60537E-04  4976   0.132E-01    0.772E-02
DAV:   4    -0.351822644130E+02   -0.19279E-04   -0.71384E-04  4960   0.129E-01    0.806E-02
DAV:   5    -0.351821760538E+02    0.88359E-04   -0.51289E-04  4848   0.107E-01    0.219E-02
DAV:   6    -0.351821754138E+02    0.64002E-06   -0.42121E-05  3928   0.362E-02    0.729E-03
DAV:   7    -0.351821751338E+02    0.27998E-06   -0.54465E-06  4008   0.122E-02
  27 F= -.35182175E+02 E0= -.35175071E+02  d E =-.737629E-02
quench:  g(F)=  0.000E+00 g(S)=  0.000E+00 dE (1.order)= 0.000E+00
 bond charge predicted
       N       E                     dE             d eps       ncg     rms          rms(c)
DAV:   1    -0.351753771925E+02    0.67982E-02   -0.89715E-02  3264   0.148E+00    0.131E-01
DAV:   2    -0.351753878585E+02   -0.10666E-04   -0.15152E-03  4328   0.202E-01    0.585E-02
DAV:   3    -0.351753703168E+02    0.17542E-04   -0.31204E-04  4736   0.895E-02    0.469E-02
DAV:   4    -0.351753560862E+02    0.14231E-04   -0.37093E-04  4912   0.908E-02    0.397E-02
DAV:   5    -0.351753307097E+02    0.25376E-04   -0.10284E-04  4616   0.485E-02    0.945E-03
DAV:   6    -0.351753314956E+02   -0.78586E-06   -0.77286E-06  4136   0.153E-02
  28 F= -.35175331E+02 E0= -.35168179E+02  d E =0.684364E-02
quench:  g(F)=  0.000E+00 g(S)=  0.000E+00 dE (1.order)= 0.000E+00
 bond charge predicted
       N       E                     dE             d eps       ncg     rms          rms(c)
DAV:   1    -0.351669265830E+02    0.84041E-02   -0.46056E-02  3272   0.106E+00    0.114E-01
DAV:   2    -0.351668793670E+02    0.47216E-04   -0.12328E-03  4352   0.178E-01    0.524E-02
DAV:   3    -0.351668399787E+02    0.39388E-04   -0.12110E-04  4800   0.571E-02    0.355E-02
DAV:   4    -0.351668474944E+02   -0.75158E-05   -0.27439E-04  4960   0.784E-02    0.412E-02
DAV:   5    -0.351668118896E+02    0.35605E-04   -0.15498E-04  4888   0.588E-02    0.800E-03
DAV:   6    -0.351668117594E+02    0.13011E-06   -0.83960E-06  3800   0.155E-02
  29 F= -.35166812E+02 E0= -.35159621E+02  d E =0.851974E-02
quench:  g(F)=  0.000E+00 g(S)=  0.000E+00 dE (1.order)= 0.000E+00
 bond charge predicted
       N       E                     dE             d eps       ncg     rms          rms(c)
DAV:   1    -0.351525110567E+02    0.14301E-01   -0.79509E-02  3280   0.137E+00    0.806E-02
DAV:   2    -0.351526525257E+02   -0.14147E-03   -0.18285E-03  4096   0.209E-01    0.470E-02
DAV:   3    -0.351526474245E+02    0.51012E-05   -0.15918E-04  5032   0.673E-02    0.332E-02
DAV:   4    -0.351526467525E+02    0.67198E-06   -0.18797E-04  4968   0.643E-02    0.322E-02
DAV:   5    -0.351526326420E+02    0.14110E-04   -0.76894E-05  4784   0.412E-02    0.943E-03
DAV:   6    -0.351526330369E+02   -0.39484E-06   -0.92942E-06  4120   0.163E-02
  30 F= -.35152633E+02 E0= -.35145335E+02  d E =0.141787E-01
quench:  g(F)=  0.000E+00 g(S)=  0.000E+00 dE (1.order)= 0.000E+00
 bond charge predicted
       N       E                     dE             d eps       ncg     rms          rms(c)
DAV:   1    -0.351348985282E+02    0.17734E-01   -0.12503E-01  3288   0.171E+00    0.957E-02
DAV:   2    -0.351351462293E+02   -0.24770E-03   -0.31276E-03  4000   0.272E-01    0.552E-02
DAV:   3    -0.351351350130E+02    0.11216E-04   -0.23997E-04  4984   0.834E-02    0.432E-02
DAV:   4    -0.351351273478E+02    0.76652E-05   -0.17741E-04  4920   0.632E-02    0.343E-02
DAV:   5    -0.351351117083E+02    0.15640E-04   -0.76101E-05  4720   0.418E-02    0.123E-02
DAV:   6    -0.351351108253E+02    0.88301E-06   -0.12238E-05  4256   0.187E-02    0.456E-03
DAV:   7    -0.351351107608E+02    0.64523E-07   -0.12126E-06  2376   0.668E-03
  31 F= -.35135111E+02 E0= -.35127667E+02  d E =0.175223E-01
quench:  g(F)=  0.000E+00 g(S)=  0.000E+00 dE (1.order)= 0.000E+00
 bond charge predicted
       N       E                     dE             d eps       ncg     rms          rms(c)
DAV:   1    -0.351139932692E+02    0.21118E-01   -0.19349E-01  3280   0.213E+00    0.107E-01
DAV:   2    -0.351143870873E+02   -0.39382E-03   -0.46224E-03  4048   0.331E-01    0.668E-02
DAV:   3    -0.351143753312E+02    0.11756E-04   -0.39427E-04  4912   0.106E-01    0.521E-02
DAV:   4    -0.351143606317E+02    0.14699E-04   -0.24526E-04  4904   0.742E-02    0.406E-02
DAV:   5    -0.351143426242E+02    0.18008E-04   -0.90364E-05  4448   0.460E-02    0.151E-02
DAV:   6    -0.351143417447E+02    0.87954E-06   -0.16173E-05  4496   0.216E-02    0.533E-03
DAV:   7    -0.351143416694E+02    0.75219E-07   -0.15394E-06  2648   0.747E-03
  32 F= -.35114342E+02 E0= -.35106691E+02  d E =0.207691E-01
quench:  g(F)=  0.000E+00 g(S)=  0.000E+00 dE (1.order)= 0.000E+00
 bond charge predicted
       N       E                     dE             d eps       ncg     rms          rms(c)
DAV:   1    -0.350908469701E+02    0.23495E-01   -0.25621E-01  3280   0.245E+00    0.131E-01
DAV:   2    -0.350913895457E+02   -0.54258E-03   -0.62580E-03  4024   0.383E-01    0.770E-02
DAV:   3    -0.350913775287E+02    0.12017E-04   -0.50733E-04  4952   0.121E-01    0.608E-02
DAV:   4    -0.350913593757E+02    0.18153E-04   -0.32574E-04  4912   0.852E-02    0.468E-02
DAV:   5    -0.350913357385E+02    0.23637E-04   -0.11619E-04  4480   0.522E-02    0.171E-02
DAV:   6    -0.350913348108E+02    0.92776E-06   -0.19576E-05  4416   0.238E-02    0.618E-03
DAV:   7    -0.350913347104E+02    0.10034E-06   -0.19584E-06  2696   0.838E-03
  33 F= -.35091335E+02 E0= -.35083437E+02  d E =0.230070E-01
quench:  g(F)=  0.000E+00 g(S)=  0.000E+00 dE (1.order)= 0.000E+00
 bond charge predicted
       N       E                     dE             d eps       ncg     rms          rms(c)
DAV:   1    -0.350662771839E+02    0.25058E-01   -0.33428E-01  3272   0.280E+00    0.143E-01
DAV:   2    -0.350669696904E+02   -0.69251E-03   -0.79082E-03  4056   0.432E-01    0.891E-02
DAV:   3    -0.350669554554E+02    0.14235E-04   -0.74176E-04  4904   0.145E-01    0.710E-02
DAV:   4    -0.350669251239E+02    0.30331E-04   -0.42824E-04  4912   0.975E-02    0.530E-02
DAV:   5    -0.350668970322E+02    0.28092E-04   -0.13449E-04  4296   0.566E-02    0.189E-02
DAV:   6    -0.350668961726E+02    0.85953E-06   -0.22847E-05  4440   0.260E-02    0.687E-03
DAV:   7    -0.350668960702E+02    0.10249E-06   -0.25005E-06  2920   0.940E-03
  34 F= -.35066896E+02 E0= -.35058721E+02  d E =0.244386E-01
quench:  g(F)=  0.000E+00 g(S)=  0.000E+00 dE (1.order)= 0.000E+00
 bond charge predicted
       N       E                     dE             d eps       ncg     rms          rms(c)
DAV:   1    -0.350405909076E+02    0.26305E-01   -0.37916E-01  3280   0.297E+00    0.174E-01
DAV:   2    -0.350414198510E+02   -0.82894E-03   -0.94076E-03  4024   0.469E-01    0.943E-02
DAV:   3    -0.350414094256E+02    0.10425E-04   -0.71629E-04  5112   0.143E-01    0.748E-02
DAV:   4    -0.350413859945E+02    0.23431E-04   -0.50114E-04  4952   0.105E-01    0.580E-02
DAV:   5    -0.350413502534E+02    0.35741E-04   -0.17060E-04  4584   0.629E-02    0.201E-02
DAV:   6    -0.350413497509E+02    0.50245E-06   -0.24629E-05  4336   0.270E-02    0.711E-03
DAV:   7    -0.350413495654E+02    0.18556E-06   -0.27770E-06  2888   0.980E-03
  35 F= -.35041350E+02 E0= -.35032908E+02  d E =0.255465E-01
quench:  g(F)=  0.000E+00 g(S)=  0.000E+00 dE (1.order)= 0.000E+00
 bond charge predicted
       N       E                     dE             d eps       ncg     rms          rms(c)
DAV:   1    -0.350159659494E+02    0.25384E-01   -0.50281E-01  3264   0.344E+00    0.190E-01
DAV:   2    -0.350168533667E+02   -0.88742E-03   -0.10385E-02  4360   0.503E-01    0.117E-01
DAV:   3    -0.350168495666E+02    0.38001E-05   -0.18352E-03  4720   0.218E-01    0.986E-02
DAV:   4    -0.350167471052E+02    0.10246E-03   -0.89841E-04  4920   0.139E-01    0.649E-02
DAV:   5    -0.350167106650E+02    0.36440E-04   -0.13594E-04  3904   0.583E-02    0.242E-02
DAV:   6    -0.350167106680E+02   -0.30163E-08   -0.30881E-05  4632   0.287E-02    0.862E-03
DAV:   7    -0.350167101646E+02    0.50347E-06   -0.77345E-06  4120   0.147E-02
  36 F= -.35016710E+02 E0= -.35008054E+02  d E =0.246394E-01
quench:  g(F)=  0.000E+00 g(S)=  0.000E+00 dE (1.order)= 0.000E+00
 bond charge predicted
       N       E                     dE             d eps       ncg     rms          rms(c)
DAV:   1    -0.350061702750E+02    0.10540E-01   -0.23474E-01  3264   0.235E+00    0.216E-01
DAV:   2    -0.350064419195E+02   -0.27164E-03   -0.43505E-03  4400   0.334E-01    0.677E-02
DAV:   3    -0.350064183236E+02    0.23596E-04   -0.32034E-04  4472   0.928E-02    0.551E-02
DAV:   4    -0.350064116900E+02    0.66337E-05   -0.25545E-04  4928   0.777E-02    0.465E-02
DAV:   5    -0.350063900916E+02    0.21598E-04   -0.17912E-04  4856   0.618E-02    0.227E-02
DAV:   6    -0.350063836576E+02    0.64340E-05   -0.34486E-05  4408   0.309E-02    0.574E-03
DAV:   7    -0.350063835145E+02    0.14306E-06   -0.38217E-06  3496   0.109E-02
  37 F= -.35006384E+02 E0= -.34997658E+02  d E =0.103267E-01
quench:  g(F)=  0.000E+00 g(S)=  0.000E+00 dE (1.order)= 0.000E+00
 bond charge predicted
       N       E                     dE             d eps       ncg     rms          rms(c)
DAV:   1    -0.350006546645E+02    0.57290E-02   -0.35002E-02  3264   0.925E-01    0.783E-02
DAV:   2    -0.350006644079E+02   -0.97435E-05   -0.81802E-04  4464   0.146E-01    0.424E-02
DAV:   3    -0.350006643064E+02    0.10154E-06   -0.34397E-04  4816   0.908E-02    0.412E-02
DAV:   4    -0.350006366960E+02    0.27610E-04   -0.20715E-04  4912   0.663E-02    0.224E-02
DAV:   5    -0.350006294299E+02    0.72661E-05   -0.24767E-05  3960   0.245E-02    0.786E-03
DAV:   6    -0.350006295779E+02   -0.14800E-06   -0.42809E-06  3784   0.104E-02
  38 F= -.35000630E+02 E0= -.34991899E+02  d E =0.575394E-02
quench:  g(F)=  0.000E+00 g(S)=  0.000E+00 dE (1.order)= 0.000E+00
 bond charge predicted
       N       E                     dE             d eps       ncg     rms          rms(c)
DAV:   1    -0.349891356308E+02    0.11494E-01   -0.50864E-02  3280   0.110E+00    0.766E-02
DAV:   2    -0.349892131122E+02   -0.77481E-04   -0.15413E-03  4384   0.192E-01    0.506E-02
DAV:   3    -0.349892085496E+02    0.45626E-05   -0.39572E-04  4784   0.100E-01    0.432E-02
DAV:   4    -0.349891823379E+02    0.26212E-04   -0.22738E-04  4888   0.696E-02    0.268E-02
DAV:   5    -0.349891729031E+02    0.94348E-05   -0.34707E-05  4160   0.290E-02    0.961E-03
DAV:   6    -0.349891732911E+02   -0.38801E-06   -0.61011E-06  4360   0.127E-02
  39 F= -.34989173E+02 E0= -.34980416E+02  d E =0.114563E-01
quench:  g(F)=  0.000E+00 g(S)=  0.000E+00 dE (1.order)= 0.000E+00
 bond charge predicted
       N       E                     dE             d eps       ncg     rms          rms(c)
DAV:   1    -0.349724188374E+02    0.16754E-01   -0.98938E-02  3288   0.153E+00    0.905E-02
DAV:   2    -0.349726298746E+02   -0.21104E-03   -0.30096E-03  4320   0.263E-01    0.619E-02
DAV:   3    -0.349726237415E+02    0.61331E-05   -0.51541E-04  4936   0.117E-01    0.515E-02
DAV:   4    -0.349725942787E+02    0.29463E-04   -0.29016E-04  4944   0.786E-02    0.351E-02
DAV:   5    -0.349725805069E+02    0.13772E-04   -0.52354E-05  4272   0.354E-02    0.135E-02
DAV:   6    -0.349725810210E+02   -0.51403E-06   -0.11783E-05  4552   0.179E-02    0.811E-03
DAV:   7    -0.349725806229E+02    0.39803E-06   -0.17692E-06  2656   0.759E-03
  40 F= -.34972581E+02 E0= -.34963779E+02  d E =0.165927E-01
quench:  g(F)=  0.000E+00 g(S)=  0.000E+00 dE (1.order)= 0.000E+00
 bond charge predicted
       N       E                     dE             d eps       ncg     rms          rms(c)
DAV:   1    -0.349536807028E+02    0.18900E-01   -0.18721E-01  3272   0.212E+00    0.112E-01
DAV:   2    -0.349540491381E+02   -0.36844E-03   -0.46806E-03  4368   0.327E-01    0.656E-02
DAV:   3    -0.349540422326E+02    0.69056E-05   -0.41410E-04  5072   0.106E-01    0.555E-02
DAV:   4    -0.349540244132E+02    0.17819E-04   -0.29896E-04  4944   0.799E-02    0.444E-02
DAV:   5    -0.349540033235E+02    0.21090E-04   -0.83030E-05  4616   0.439E-02    0.166E-02
DAV:   6    -0.349540036252E+02   -0.30170E-06   -0.17761E-05  4296   0.225E-02    0.983E-03
DAV:   7    -0.349540030665E+02    0.55869E-06   -0.21346E-06  2784   0.856E-03
  41 F= -.34954003E+02 E0= -.34945156E+02  d E =0.185776E-01
quench:  g(F)=  0.000E+00 g(S)=  0.000E+00 dE (1.order)= 0.000E+00
 bond charge predicted
       N       E                     dE             d eps       ncg     rms          rms(c)
DAV:   1    -0.349445981809E+02    0.94054E-02   -0.34247E-01  3264   0.286E+00    0.156E-01
DAV:   2    -0.349449752405E+02   -0.37706E-03   -0.48010E-03  4408   0.348E-01    0.696E-02
DAV:   3    -0.349449565581E+02    0.18682E-04   -0.14206E-04  5144   0.604E-02    0.485E-02
DAV:   4    -0.349449745530E+02   -0.17995E-04   -0.24105E-04  5032   0.713E-02    0.518E-02
DAV:   5    -0.349449379574E+02    0.36596E-04   -0.21718E-04  4944   0.687E-02    0.137E-02
DAV:   6    -0.349449370556E+02    0.90184E-06   -0.21467E-05  4192   0.231E-02    0.524E-03
DAV:   7    -0.349449367199E+02    0.33565E-06   -0.27825E-06  2880   0.963E-03
  42 F= -.34944937E+02 E0= -.34936096E+02  d E =0.906635E-02
quench:  g(F)=  0.000E+00 g(S)=  0.000E+00 dE (1.order)= 0.000E+00
 bond charge predicted
       N       E                     dE             d eps       ncg     rms          rms(c)
DAV:   1    -0.349498503669E+02   -0.49133E-02   -0.16154E-02  3264   0.636E-01    0.574E-02
DAV:   2    -0.349498455878E+02    0.47790E-05   -0.44839E-04  4432   0.109E-01    0.324E-02
DAV:   3    -0.349498469096E+02   -0.13218E-05   -0.24437E-04  4896   0.759E-02    0.337E-02
DAV:   4    -0.349498259498E+02    0.20960E-04   -0.14019E-04  4944   0.542E-02    0.150E-02
DAV:   5    -0.349498222267E+02    0.37231E-05   -0.17601E-05  3984   0.199E-02    0.638E-03
DAV:   6    -0.349498218240E+02    0.40273E-06   -0.36371E-06  3000   0.102E-02
  43 F= -.34949822E+02 E0= -.34940997E+02  d E =-.488510E-02
quench:  g(F)=  0.000E+00 g(S)=  0.000E+00 dE (1.order)= 0.000E+00
 bond charge predicted
       N       E                     dE             d eps       ncg     rms          rms(c)
DAV:   1    -0.349584598873E+02   -0.86377E-02   -0.29146E-02  3264   0.842E-01    0.658E-02
DAV:   2    -0.349584858883E+02   -0.26001E-04   -0.86140E-04  4360   0.147E-01    0.403E-02
DAV:   3    -0.349584863528E+02   -0.46449E-06   -0.33119E-04  4904   0.901E-02    0.379E-02
DAV:   4    -0.349584608538E+02    0.25499E-04   -0.18964E-04  4920   0.630E-02    0.190E-02
DAV:   5    -0.349584549803E+02    0.58735E-05   -0.23244E-05  4008   0.232E-02    0.706E-03
DAV:   6    -0.349584549970E+02   -0.16677E-07   -0.37820E-06  3440   0.984E-03
  44 F= -.34958455E+02 E0= -.34949658E+02  d E =-.863317E-02
quench:  g(F)=  0.000E+00 g(S)=  0.000E+00 dE (1.order)= 0.000E+00
 bond charge predicted
       N       E                     dE             d eps       ncg     rms          rms(c)
DAV:   1    -0.349710615317E+02   -0.12607E-01   -0.53905E-02  3280   0.113E+00    0.789E-02
DAV:   2    -0.349711576564E+02   -0.96125E-04   -0.16908E-03  4360   0.203E-01    0.543E-02
DAV:   3    -0.349711537337E+02    0.39227E-05   -0.52391E-04  4864   0.115E-01    0.454E-02
DAV:   4    -0.349711201259E+02    0.33608E-04   -0.26359E-04  4928   0.744E-02    0.255E-02
DAV:   5    -0.349711113181E+02    0.88078E-05   -0.33930E-05  3960   0.284E-02    0.854E-03
DAV:   6    -0.349711116263E+02   -0.30816E-06   -0.47808E-06  4208   0.107E-02
  45 F= -.34971112E+02 E0= -.34962348E+02  d E =-.126566E-01
quench:  g(F)=  0.000E+00 g(S)=  0.000E+00 dE (1.order)= 0.000E+00
 bond charge predicted
       N       E                     dE             d eps       ncg     rms          rms(c)
DAV:   1    -0.349878126280E+02   -0.16701E-01   -0.89314E-02  3288   0.145E+00    0.918E-02
DAV:   2    -0.349880076416E+02   -0.19501E-03   -0.28608E-03  4328   0.262E-01    0.665E-02
DAV:   3    -0.349879973886E+02    0.10253E-04   -0.67639E-04  4856   0.133E-01    0.520E-02
DAV:   4    -0.349879594358E+02    0.37953E-04   -0.33669E-04  4896   0.845E-02    0.332E-02
DAV:   5    -0.349879461191E+02    0.13317E-04   -0.52827E-05  4152   0.355E-02    0.109E-02
DAV:   6    -0.349879467450E+02   -0.62594E-06   -0.73384E-06  4456   0.138E-02
  46 F= -.34987947E+02 E0= -.34979231E+02  d E =-.168351E-01
quench:  g(F)=  0.000E+00 g(S)=  0.000E+00 dE (1.order)= 0.000E+00
 bond charge predicted
       N       E                     dE             d eps       ncg     rms          rms(c)
DAV:   1    -0.350086557555E+02   -0.20710E-01   -0.13459E-01  3296   0.177E+00    0.106E-01
DAV:   2    -0.350089904822E+02   -0.33473E-03   -0.44280E-03  4320   0.324E-01    0.815E-02
DAV:   3    -0.350089691894E+02    0.21293E-04   -0.90397E-04  4816   0.156E-01    0.601E-02
DAV:   4    -0.350089258773E+02    0.43312E-04   -0.42122E-04  4912   0.951E-02    0.418E-02
DAV:   5    -0.350089075164E+02    0.18361E-04   -0.74760E-05  4256   0.424E-02    0.138E-02
DAV:   6    -0.350089083908E+02   -0.87444E-06   -0.11536E-05  4592   0.178E-02    0.558E-03
DAV:   7    -0.350089082465E+02    0.14434E-06   -0.14244E-06  2744   0.679E-03
  47 F= -.35008908E+02 E0= -.35000254E+02  d E =-.209615E-01
quench:  g(F)=  0.000E+00 g(S)=  0.000E+00 dE (1.order)= 0.000E+00
 bond charge predicted
       N       E                     dE             d eps       ncg     rms          rms(c)
DAV:   1    -0.350332270996E+02   -0.24319E-01   -0.18576E-01  3304   0.207E+00    0.121E-01
DAV:   2    -0.350337090541E+02   -0.48195E-03   -0.61225E-03  4328   0.379E-01    0.918E-02
DAV:   3    -0.350336832746E+02    0.25779E-04   -0.10347E-03  4792   0.169E-01    0.679E-02
DAV:   4    -0.350336371393E+02    0.46135E-04   -0.50428E-04  4888   0.105E-01    0.501E-02
DAV:   5    -0.350336121910E+02    0.24948E-04   -0.10230E-04  4352   0.494E-02    0.167E-02
DAV:   6    -0.350336132171E+02   -0.10261E-05   -0.16664E-05  4584   0.215E-02    0.642E-03
DAV:   7    -0.350336130971E+02    0.11993E-06   -0.20760E-06  2912   0.826E-03
  48 F= -.35033613E+02 E0= -.35025041E+02  d E =-.247049E-01
quench:  g(F)=  0.000E+00 g(S)=  0.000E+00 dE (1.order)= 0.000E+00
 bond charge predicted
       N       E                     dE             d eps       ncg     rms          rms(c)
DAV:   1    -0.350606288538E+02   -0.27016E-01   -0.24261E-01  3304   0.237E+00    0.138E-01
DAV:   2    -0.350612661642E+02   -0.63731E-03   -0.79277E-03  4336   0.432E-01    0.105E-01
DAV:   3    -0.350612313183E+02    0.34846E-04   -0.12554E-03  4816   0.188E-01    0.772E-02
DAV:   4    -0.350611796946E+02    0.51624E-04   -0.61902E-04  4912   0.117E-01    0.589E-02
DAV:   5    -0.350611469923E+02    0.32702E-04   -0.13484E-04  4384   0.566E-02    0.197E-02
DAV:   6    -0.350611480626E+02   -0.10703E-05   -0.21700E-05  4552   0.247E-02    0.707E-03
DAV:   7    -0.350611480682E+02   -0.55629E-08   -0.27302E-06  3016   0.955E-03
  49 F= -.35061148E+02 E0= -.35052679E+02  d E =-.275350E-01
quench:  g(F)=  0.000E+00 g(S)=  0.000E+00 dE (1.order)= 0.000E+00
 bond charge predicted
       N       E                     dE             d eps       ncg     rms          rms(c)
DAV:   1    -0.350889497001E+02   -0.27802E-01   -0.28624E-01  3304   0.257E+00    0.169E-01
DAV:   2    -0.350896697019E+02   -0.72000E-03   -0.91909E-03  4328   0.463E-01    0.113E-01
DAV:   3    -0.350896428994E+02    0.26803E-04   -0.12966E-03  4968   0.191E-01    0.872E-02
DAV:   4    -0.350895870605E+02    0.55839E-04   -0.77907E-04  4944   0.131E-01    0.663E-02
DAV:   5    -0.350895426216E+02    0.44439E-04   -0.18281E-04  4400   0.652E-02    0.204E-02
DAV:   6    -0.350895440033E+02   -0.13817E-05   -0.23593E-05  4496   0.260E-02    0.726E-03
DAV:   7    -0.350895442395E+02   -0.23620E-06   -0.27429E-06  3072   0.957E-03
  50 F= -.35089544E+02 E0= -.35081205E+02  d E =-.283962E-01
quench:  g(F)=  0.000E+00 g(S)=  0.000E+00 dE (1.order)= 0.000E+00
 bond charge predicted
       N       E                     dE             d eps       ncg     rms          rms(c)
DAV:   1    -0.351081635538E+02   -0.18620E-01   -0.44552E-01  3264   0.326E+00    0.198E-01
DAV:   2    -0.351088016390E+02   -0.63809E-03   -0.86116E-03  4432   0.459E-01    0.119E-01
DAV:   3    -0.351087779065E+02    0.23733E-04   -0.17150E-03  4688   0.212E-01    0.992E-02
DAV:   4    -0.351086798838E+02    0.98023E-04   -0.88809E-04  4904   0.140E-01    0.664E-02
DAV:   5    -0.351086393357E+02    0.40548E-04   -0.16859E-04  4032   0.640E-02    0.248E-02
DAV:   6    -0.351086373721E+02    0.19636E-05   -0.39916E-05  4680   0.327E-02    0.104E-02
DAV:   7    -0.351086376654E+02   -0.29330E-06   -0.85694E-06  4352   0.158E-02
  51 F= -.35108638E+02 E0= -.35100380E+02  d E =-.190934E-01
quench:  g(F)=  0.000E+00 g(S)=  0.000E+00 dE (1.order)= 0.000E+00
 bond charge predicted
       N       E                     dE             d eps       ncg     rms          rms(c)
DAV:   1    -0.351073856438E+02    0.12517E-02   -0.11751E-02  3264   0.544E-01    0.100E-01
DAV:   2    -0.351073224137E+02    0.63230E-04   -0.26856E-04  4352   0.839E-02    0.420E-02
DAV:   3    -0.351073014694E+02    0.20944E-04   -0.43859E-05  4400   0.338E-02    0.193E-02
DAV:   4    -0.351073026894E+02   -0.12200E-05   -0.81176E-05  4856   0.418E-02    0.229E-02
DAV:   5    -0.351072941228E+02    0.85666E-05   -0.59333E-05  4800   0.365E-02    0.972E-03
DAV:   6    -0.351072941015E+02    0.21335E-07   -0.74197E-06  3672   0.139E-02
  52 F= -.35107294E+02 E0= -.35099025E+02  d E =0.134356E-02
quench:  g(F)=  0.000E+00 g(S)=  0.000E+00 dE (1.order)= 0.000E+00
 bond charge predicted
       N       E                     dE             d eps       ncg     rms          rms(c)
DAV:   1    -0.351063379241E+02    0.95620E-03   -0.16307E-02  3264   0.616E-01    0.549E-02
DAV:   2    -0.351063553608E+02   -0.17437E-04   -0.24278E-04  4416   0.813E-02    0.211E-02
DAV:   3    -0.351063576550E+02   -0.22942E-05   -0.75433E-05  4696   0.435E-02    0.204E-02
DAV:   4    -0.351063521311E+02    0.55240E-05   -0.43371E-05  4936   0.310E-02    0.125E-02
DAV:   5    -0.351063509293E+02    0.12018E-05   -0.39988E-06  3152   0.102E-02    0.478E-03
DAV:   6    -0.351063508953E+02    0.33902E-07   -0.12886E-06  2560   0.649E-03
  53 F= -.35106351E+02 E0= -.35098083E+02  d E =0.943206E-03
quench:  g(F)=  0.000E+00 g(S)=  0.000E+00 dE (1.order)= 0.000E+00
 bond charge predicted
       N       E                     dE             d eps       ncg     rms          rms(c)
DAV:   1    -0.351036123247E+02    0.27386E-02   -0.77367E-03  3264   0.430E-01    0.321E-02
DAV:   2    -0.351036259142E+02   -0.13590E-04   -0.16022E-04  4432   0.641E-02    0.174E-02
DAV:   3    -0.351036264960E+02   -0.58182E-06   -0.49104E-05  4728   0.355E-02    0.147E-02
DAV:   4    -0.351036234132E+02    0.30828E-05   -0.24153E-05  4800   0.228E-02    0.884E-03
DAV:   5    -0.351036227451E+02    0.66811E-06   -0.21672E-06  2672   0.769E-03
  54 F= -.35103623E+02 E0= -.35095338E+02  d E =0.272815E-02
quench:  g(F)=  0.000E+00 g(S)=  0.000E+00 dE (1.order)= 0.000E+00
 bond charge predicted
       N       E                     dE             d eps       ncg     rms          rms(c)
DAV:   1    -0.351003703792E+02    0.32530E-02   -0.56703E-03  3296   0.365E-01    0.195E-02
DAV:   2    -0.351003815230E+02   -0.11144E-04   -0.12983E-04  4216   0.560E-02    0.110E-02
DAV:   3    -0.351003813709E+02    0.15214E-06   -0.11552E-05  4464   0.185E-02    0.884E-03
DAV:   4    -0.351003808771E+02    0.49384E-06   -0.66329E-06  3624   0.131E-02
  55 F= -.35100381E+02 E0= -.35092075E+02  d E =0.324187E-02
quench:  g(F)=  0.000E+00 g(S)=  0.000E+00 dE (1.order)= 0.000E+00
 bond charge predicted
       N       E                     dE             d eps       ncg     rms          rms(c)
DAV:   1    -0.350960648837E+02    0.43165E-02   -0.80911E-03  3296   0.435E-01    0.191E-02
DAV:   2    -0.350960831408E+02   -0.18257E-04   -0.20530E-04  4216   0.707E-02    0.172E-02
DAV:   3    -0.350960817863E+02    0.13545E-05   -0.25811E-05  4976   0.277E-02    0.118E-02
DAV:   4    -0.350960810437E+02    0.74261E-06   -0.98887E-06  3960   0.151E-02
  56 F= -.35096081E+02 E0= -.35087753E+02  d E =0.429983E-02
quench:  g(F)=  0.000E+00 g(S)=  0.000E+00 dE (1.order)= 0.000E+00
 bond charge predicted
       N       E                     dE             d eps       ncg     rms          rms(c)
DAV:   1    -0.350902685160E+02    0.58133E-02   -0.12242E-02  3304   0.531E-01    0.236E-02
DAV:   2    -0.350902989057E+02   -0.30390E-04   -0.33403E-04  4120   0.890E-02    0.199E-02
DAV:   3    -0.350902976198E+02    0.12859E-05   -0.33844E-05  5088   0.319E-02    0.142E-02
DAV:   4    -0.350902967845E+02    0.83531E-06   -0.15940E-05  4464   0.189E-02    0.118E-02
DAV:   5    -0.350902955483E+02    0.12362E-05   -0.55117E-06  3416   0.119E-02    0.403E-03
DAV:   6    -0.350902954681E+02    0.80213E-07   -0.99807E-07  1976   0.604E-03
  57 F= -.35090295E+02 E0= -.35081939E+02  d E =0.578558E-02
quench:  g(F)=  0.000E+00 g(S)=  0.000E+00 dE (1.order)= 0.000E+00
 bond charge predicted
       N       E                     dE             d eps       ncg     rms          rms(c)
DAV:   1    -0.350825431336E+02    0.77524E-02   -0.19600E-02  3304   0.668E-01    0.310E-02
DAV:   2    -0.350825973530E+02   -0.54219E-04   -0.58663E-04  4208   0.117E-01    0.252E-02
DAV:   3    -0.350825953557E+02    0.19972E-05   -0.64243E-05  5040   0.436E-02    0.182E-02
DAV:   4    -0.350825933825E+02    0.19732E-05   -0.26404E-05  4952   0.242E-02    0.141E-02
DAV:   5    -0.350825920493E+02    0.13332E-05   -0.73879E-06  3656   0.134E-02    0.610E-03
DAV:   6    -0.350825917919E+02    0.25743E-06   -0.22124E-06  2392   0.842E-03
  58 F= -.35082592E+02 E0= -.35074198E+02  d E =0.770368E-02
quench:  g(F)=  0.000E+00 g(S)=  0.000E+00 dE (1.order)= 0.000E+00
 bond charge predicted
       N       E                     dE             d eps       ncg     rms          rms(c)
DAV:   1    -0.350725236483E+02    0.10068E-01   -0.30561E-02  3304   0.830E-01    0.393E-02
DAV:   2    -0.350726129879E+02   -0.89340E-04   -0.96048E-04  4144   0.148E-01    0.316E-02
DAV:   3    -0.350726101872E+02    0.28007E-05   -0.10048E-04  5056   0.546E-02    0.233E-02
DAV:   4    -0.350726071306E+02    0.30566E-05   -0.41851E-05  4952   0.305E-02    0.180E-02
DAV:   5    -0.350726050678E+02    0.20628E-05   -0.11889E-05  4344   0.169E-02    0.781E-03
DAV:   6    -0.350726046857E+02    0.38209E-06   -0.38402E-06  2952   0.105E-02
  59 F= -.35072605E+02 E0= -.35064161E+02  d E =0.998711E-02
quench:  g(F)=  0.000E+00 g(S)=  0.000E+00 dE (1.order)= 0.000E+00
 bond charge predicted
       N       E                     dE             d eps       ncg     rms          rms(c)
DAV:   1    -0.350599702919E+02    0.12635E-01   -0.46904E-02  3304   0.103E+00    0.495E-02
DAV:   2    -0.350601122360E+02   -0.14194E-03   -0.15213E-03  4208   0.186E-01    0.408E-02
DAV:   3    -0.350601072180E+02    0.50179E-05   -0.16822E-04  5008   0.704E-02    0.298E-02
DAV:   4    -0.350601022070E+02    0.50110E-05   -0.66895E-05  4920   0.386E-02    0.230E-02
DAV:   5    -0.350600991149E+02    0.30921E-05   -0.18345E-05  4496   0.210E-02    0.100E-02
DAV:   6    -0.350600985428E+02    0.57217E-06   -0.67080E-06  3840   0.132E-02
  60 F= -.35060099E+02 E0= -.35051593E+02  d E =0.125061E-01
quench:  g(F)=  0.000E+00 g(S)=  0.000E+00 dE (1.order)= 0.000E+00
 bond charge predicted
       N       E                     dE             d eps       ncg     rms          rms(c)
DAV:   1    -0.350449146678E+02    0.15184E-01   -0.66226E-02  3304   0.121E+00    0.606E-02
DAV:   2    -0.350451217619E+02   -0.20709E-03   -0.22087E-03  4144   0.224E-01    0.481E-02
DAV:   3    -0.350451164099E+02    0.53520E-05   -0.23434E-04  5048   0.829E-02    0.362E-02
DAV:   4    -0.350451091903E+02    0.72196E-05   -0.99799E-05  4928   0.469E-02    0.278E-02
DAV:   5    -0.350451045127E+02    0.46776E-05   -0.26191E-05  4528   0.251E-02    0.116E-02
DAV:   6    -0.350451038356E+02    0.67704E-06   -0.92931E-06  4240   0.153E-02
  61 F= -.35045104E+02 E0= -.35036522E+02  d E =0.149947E-01
quench:  g(F)=  0.000E+00 g(S)=  0.000E+00 dE (1.order)= 0.000E+00
 bond charge predicted
       N       E                     dE             d eps       ncg     rms          rms(c)
DAV:   1    -0.350280421152E+02    0.17062E-01   -0.95117E-02  3296   0.147E+00    0.737E-02
DAV:   2    -0.350283246316E+02   -0.28252E-03   -0.30275E-03  4304   0.263E-01    0.602E-02
DAV:   3    -0.350283144654E+02    0.10166E-04   -0.38091E-04  4936   0.104E-01    0.445E-02
DAV:   4    -0.350283020707E+02    0.12395E-04   -0.14872E-04  4920   0.573E-02    0.337E-02
DAV:   5    -0.350282958130E+02    0.62577E-05   -0.34320E-05  4440   0.289E-02    0.143E-02
DAV:   6    -0.350282948385E+02    0.97452E-06   -0.13507E-05  4544   0.183E-02    0.645E-03
DAV:   7    -0.350282946331E+02    0.20544E-06   -0.13873E-06  2480   0.699E-03
  62 F= -.35028295E+02 E0= -.35019635E+02  d E =0.168092E-01
quench:  g(F)=  0.000E+00 g(S)=  0.000E+00 dE (1.order)= 0.000E+00
 bond charge predicted
       N       E                     dE             d eps       ncg     rms          rms(c)
DAV:   1    -0.350119535468E+02    0.16341E-01   -0.11288E-01  3296   0.161E+00    0.106E-01
DAV:   2    -0.350122675417E+02   -0.31399E-03   -0.33765E-03  4120   0.277E-01    0.581E-02
DAV:   3    -0.350122691666E+02   -0.16248E-05   -0.24950E-04  5152   0.847E-02    0.452E-02
DAV:   4    -0.350122628680E+02    0.62986E-05   -0.18575E-04  4928   0.632E-02    0.370E-02
DAV:   5    -0.350122504574E+02    0.12411E-04   -0.54301E-05  4744   0.354E-02    0.113E-02
DAV:   6    -0.350122504087E+02    0.48691E-07   -0.57647E-06  3952   0.135E-02
  63 F= -.35012250E+02 E0= -.35003489E+02  d E =0.160442E-01
quench:  g(F)=  0.000E+00 g(S)=  0.000E+00 dE (1.order)= 0.000E+00
 bond charge predicted
       N       E                     dE             d eps       ncg     rms          rms(c)
DAV:   1    -0.350114540240E+02    0.79643E-03   -0.41657E-02  3264   0.987E-01    0.775E-02
DAV:   2    -0.350114936399E+02   -0.39616E-04   -0.55331E-04  4408   0.122E-01    0.308E-02
DAV:   3    -0.350114986735E+02   -0.50337E-05   -0.17425E-04  4720   0.647E-02    0.308E-02
DAV:   4    -0.350114854471E+02    0.13226E-04   -0.97243E-05  4904   0.457E-02    0.178E-02
DAV:   5    -0.350114827681E+02    0.26790E-05   -0.82050E-06  3800   0.144E-02    0.696E-03
DAV:   6    -0.350114826213E+02    0.14678E-06   -0.20319E-06  2888   0.762E-03
  64 F= -.35011483E+02 E0= -.35002753E+02  d E =0.767787E-03
quench:  g(F)=  0.000E+00 g(S)=  0.000E+00 dE (1.order)= 0.000E+00
 bond charge predicted
       N       E                     dE             d eps       ncg     rms          rms(c)
DAV:   1    -0.350113790579E+02    0.10371E-03   -0.78104E-04  3264   0.137E-01    0.145E-02
DAV:   2    -0.350113789530E+02    0.10497E-06   -0.14429E-05  4400   0.199E-02    0.519E-03
DAV:   3    -0.350113785624E+02    0.39056E-06   -0.12060E-06  2920   0.601E-03
  65 F= -.35011379E+02 E0= -.35002646E+02  d E =0.104059E-03
quench:  g(F)=  0.000E+00 g(S)=  0.000E+00 dE (1.order)= 0.000E+00
 bond charge predicted
       N       E                     dE             d eps       ncg     rms          rms(c)
DAV:   1    -0.350109125715E+02    0.46638E-03   -0.22835E-03  3264   0.234E-01    0.197E-02
DAV:   2    -0.350109137221E+02   -0.11506E-05   -0.36693E-05  4464   0.310E-02    0.800E-03
DAV:   3    -0.350109134887E+02    0.23347E-06   -0.72551E-06  3800   0.138E-02
  66 F= -.35010913E+02 E0= -.35002181E+02  d E =0.465074E-03
quench:  g(F)=  0.000E+00 g(S)=  0.000E+00 dE (1.order)= 0.000E+00
 bond charge predicted
       N       E                     dE             d eps       ncg     rms          rms(c)
DAV:   1    -0.350105635406E+02    0.35018E-03   -0.40441E-03  3264   0.310E-01    0.174E-02
DAV:   2    -0.350105650110E+02   -0.14704E-05   -0.46714E-05  4472   0.363E-02    0.103E-02
DAV:   3    -0.350105646922E+02    0.31877E-06   -0.11230E-05  4248   0.168E-02    0.855E-03
DAV:   4    -0.350105639696E+02    0.72260E-06   -0.78347E-06  3776   0.136E-02
  67 F= -.35010564E+02 E0= -.35001836E+02  d E =0.349519E-03
quench:  g(F)=  0.000E+00 g(S)=  0.000E+00 dE (1.order)= 0.000E+00
 bond charge predicted
       N       E                     dE             d eps       ncg     rms          rms(c)
DAV:   1    -0.350113170511E+02   -0.75236E-03   -0.45605E-03  3264   0.330E-01    0.147E-02
DAV:   2    -0.350113194792E+02   -0.24281E-05   -0.47630E-05  4432   0.363E-02    0.787E-03
DAV:   3    -0.350113193033E+02    0.17587E-06   -0.68316E-06  3752   0.134E-02
  68 F= -.35011319E+02 E0= -.35002603E+02  d E =-.755334E-03
quench:  g(F)=  0.000E+00 g(S)=  0.000E+00 dE (1.order)= 0.000E+00
 bond charge predicted
       N       E                     dE             d eps       ncg     rms          rms(c)
DAV:   1    -0.350133828017E+02   -0.20633E-02   -0.44039E-03  3264   0.326E-01    0.173E-02
DAV:   2    -0.350133859221E+02   -0.31204E-05   -0.73636E-05  4328   0.434E-02    0.101E-02
DAV:   3    -0.350133849974E+02    0.92472E-06   -0.25237E-06  3528   0.889E-03
  69 F= -.35013385E+02 E0= -.35004685E+02  d E =-.206569E-02
quench:  g(F)=  0.000E+00 g(S)=  0.000E+00 dE (1.order)= 0.000E+00
 bond charge predicted
       N       E                     dE             d eps       ncg     rms          rms(c)
DAV:   1    -0.350169750020E+02   -0.35891E-02   -0.63357E-03  3296   0.389E-01    0.198E-02
DAV:   2    -0.350169871155E+02   -0.12113E-04   -0.16336E-04  4376   0.634E-02    0.169E-02
DAV:   3    -0.350169857456E+02    0.13699E-05   -0.35662E-05  4872   0.312E-02    0.114E-02
DAV:   4    -0.350169842939E+02    0.14518E-05   -0.15229E-05  4464   0.182E-02    0.811E-03
DAV:   5    -0.350169836542E+02    0.63963E-06   -0.34749E-06  2832   0.956E-03
  70 F= -.35016984E+02 E0= -.35008303E+02  d E =-.359866E-02
quench:  g(F)=  0.000E+00 g(S)=  0.000E+00 dE (1.order)= 0.000E+00
 bond charge predicted
       N       E                     dE             d eps       ncg     rms          rms(c)
DAV:   1    -0.350225146793E+02   -0.55304E-02   -0.10747E-02  3304   0.500E-01    0.260E-02
DAV:   2    -0.350225416418E+02   -0.26963E-04   -0.31977E-04  4272   0.872E-02    0.206E-02
DAV:   3    -0.350225404344E+02    0.12074E-05   -0.54162E-05  4832   0.388E-02    0.151E-02
DAV:   4    -0.350225381411E+02    0.22933E-05   -0.24239E-05  4872   0.230E-02    0.107E-02
DAV:   5    -0.350225371703E+02    0.97085E-06   -0.50761E-06  3376   0.112E-02
  71 F= -.35022537E+02 E0= -.35013885E+02  d E =-.555352E-02
quench:  g(F)=  0.000E+00 g(S)=  0.000E+00 dE (1.order)= 0.000E+00
 bond charge predicted
       N       E                     dE             d eps       ncg     rms          rms(c)
DAV:   1    -0.350302832663E+02   -0.77451E-02   -0.18440E-02  3320   0.648E-01    0.335E-02
DAV:   2    -0.350303354186E+02   -0.52152E-04   -0.59492E-04  4288   0.118E-01    0.269E-02
DAV:   3    -0.350303332943E+02    0.21243E-05   -0.90858E-05  4912   0.507E-02    0.197E-02
DAV:   4    -0.350303297056E+02    0.35887E-05   -0.37727E-05  4944   0.287E-02    0.141E-02
DAV:   5    -0.350303283593E+02    0.13463E-05   -0.84368E-06  4040   0.143E-02    0.502E-03
DAV:   6    -0.350303283048E+02    0.54497E-07   -0.24911E-06  2664   0.879E-03
  72 F= -.35030328E+02 E0= -.35021707E+02  d E =-.779113E-02
quench:  g(F)=  0.000E+00 g(S)=  0.000E+00 dE (1.order)= 0.000E+00
 bond charge predicted
       N       E                     dE             d eps       ncg     rms          rms(c)
DAV:   1    -0.350402717303E+02   -0.99434E-02   -0.29341E-02  3328   0.815E-01    0.427E-02
DAV:   2    -0.350403608608E+02   -0.89131E-04   -0.99384E-04  4288   0.152E-01    0.353E-02
DAV:   3    -0.350403568831E+02    0.39777E-05   -0.14382E-04  4928   0.642E-02    0.251E-02
DAV:   4    -0.350403518796E+02    0.50036E-05   -0.58313E-05  4896   0.358E-02    0.189E-02
DAV:   5    -0.350403495920E+02    0.22875E-05   -0.13500E-05  4408   0.180E-02    0.690E-03
DAV:   6    -0.350403495609E+02    0.31180E-07   -0.40411E-06  3200   0.107E-02
  73 F= -.35040350E+02 E0= -.35031768E+02  d E =-.100213E-01
quench:  g(F)=  0.000E+00 g(S)=  0.000E+00 dE (1.order)= 0.000E+00
 bond charge predicted
       N       E                     dE             d eps       ncg     rms          rms(c)
DAV:   1    -0.350519459682E+02   -0.11596E-01   -0.40308E-02  3328   0.952E-01    0.487E-02
DAV:   2    -0.350520706536E+02   -0.12469E-03   -0.13691E-03  4248   0.177E-01    0.399E-02
DAV:   3    -0.350520662498E+02    0.44039E-05   -0.16987E-04  4952   0.704E-02    0.290E-02
DAV:   4    -0.350520609683E+02    0.52815E-05   -0.74611E-05  4904   0.405E-02    0.228E-02
DAV:   5    -0.350520577218E+02    0.32464E-05   -0.18226E-05  4536   0.210E-02    0.784E-03
DAV:   6    -0.350520578457E+02   -0.12382E-06   -0.43943E-06  3416   0.112E-02
  74 F= -.35052058E+02 E0= -.35043534E+02  d E =-.117083E-01
quench:  g(F)=  0.000E+00 g(S)=  0.000E+00 dE (1.order)= 0.000E+00
 bond charge predicted
       N       E                     dE             d eps       ncg     rms          rms(c)
DAV:   1    -0.350641346681E+02   -0.12077E-01   -0.55129E-02  3296   0.113E+00    0.584E-02
DAV:   2    -0.350642895739E+02   -0.15491E-03   -0.17104E-03  4328   0.200E-01    0.492E-02
DAV:   3    -0.350642814991E+02    0.80748E-05   -0.24481E-04  4880   0.838E-02    0.344E-02
DAV:   4    -0.350642742183E+02    0.72808E-05   -0.99728E-05  4920   0.470E-02    0.274E-02
DAV:   5    -0.350642699892E+02    0.42291E-05   -0.23355E-05  4488   0.238E-02    0.948E-03
DAV:   6    -0.350642701121E+02   -0.12293E-06   -0.54547E-06  3952   0.124E-02
  75 F= -.35064270E+02 E0= -.35055807E+02  d E =-.122123E-01
quench:  g(F)=  0.000E+00 g(S)=  0.000E+00 dE (1.order)= 0.000E+00
 bond charge predicted
       N       E                     dE             d eps       ncg     rms          rms(c)
DAV:   1    -0.350728580719E+02   -0.85881E-02   -0.49280E-02  3296   0.107E+00    0.912E-02
DAV:   2    -0.350729896270E+02   -0.13156E-03   -0.15014E-03  4336   0.186E-01    0.397E-02
DAV:   3    -0.350729904188E+02   -0.79176E-06   -0.82904E-05  5056   0.490E-02    0.288E-02
DAV:   4    -0.350729936566E+02   -0.32378E-05   -0.97494E-05  4952   0.464E-02    0.276E-02
DAV:   5    -0.350729859079E+02    0.77487E-05   -0.48683E-05  4960   0.326E-02    0.869E-03
DAV:   6    -0.350729862861E+02   -0.37826E-06   -0.43377E-06  3352   0.115E-02
  76 F= -.35072986E+02 E0= -.35064617E+02  d E =-.871617E-02
quench:  g(F)=  0.000E+00 g(S)=  0.000E+00 dE (1.order)= 0.000E+00
 bond charge predicted
       N       E                     dE             d eps       ncg     rms          rms(c)
DAV:   1    -0.350727628294E+02    0.22308E-03   -0.16223E-03  3264   0.197E-01    0.201E-02
DAV:   2    -0.350727624057E+02    0.42367E-06   -0.25611E-05  4376   0.267E-02    0.711E-03
DAV:   3    -0.350727620333E+02    0.37240E-06   -0.39643E-06  3160   0.103E-02
  77 F= -.35072762E+02 E0= -.35064391E+02  d E =0.224253E-03
quench:  g(F)=  0.000E+00 g(S)=  0.000E+00 dE (1.order)= 0.000E+00
 bond charge predicted
       N       E                     dE             d eps       ncg     rms          rms(c)
DAV:   1    -0.350727179790E+02    0.44427E-04   -0.41999E-03  3264   0.315E-01    0.296E-02
DAV:   2    -0.350727182456E+02   -0.26661E-06   -0.60785E-05  4416   0.410E-02    0.108E-02
DAV:   3    -0.350727174316E+02    0.81399E-06   -0.73896E-06  4216   0.142E-02
  78 F= -.35072717E+02 E0= -.35064345E+02  d E =0.446017E-04
quench:  g(F)=  0.000E+00 g(S)=  0.000E+00 dE (1.order)= 0.000E+00
 bond charge predicted
       N       E                     dE             d eps       ncg     rms          rms(c)
DAV:   1    -0.350726031669E+02    0.11508E-03   -0.34850E-03  3264   0.286E-01    0.212E-02
DAV:   2    -0.350726055584E+02   -0.23915E-05   -0.48477E-05  4512   0.373E-02    0.116E-02
DAV:   3    -0.350726059033E+02   -0.34490E-06   -0.23148E-05  4760   0.241E-02    0.120E-02
DAV:   4    -0.350726042510E+02    0.16524E-05   -0.84667E-06  3800   0.140E-02    0.692E-03
DAV:   5    -0.350726040208E+02    0.23017E-06   -0.88719E-07  2480   0.572E-03
  79 F= -.35072604E+02 E0= -.35064222E+02  d E =0.113411E-03
quench:  g(F)=  0.000E+00 g(S)=  0.000E+00 dE (1.order)= 0.000E+00
 bond charge predicted
       N       E                     dE             d eps       ncg     rms          rms(c)
DAV:   1    -0.350722005166E+02    0.40373E-03   -0.30039E-04  3264   0.847E-02    0.538E-03
DAV:   2    -0.350722008748E+02   -0.35825E-06   -0.42491E-06  3960   0.109E-02
  80 F= -.35072201E+02 E0= -.35063818E+02  d E =0.403146E-03
quench:  g(F)=  0.000E+00 g(S)=  0.000E+00 dE (1.order)= 0.000E+00
 bond charge predicted
       N       E                     dE             d eps       ncg     rms          rms(c)
DAV:   1    -0.350711699984E+02    0.10305E-02   -0.59242E-04  3296   0.118E-01    0.547E-03
DAV:   2    -0.350711714463E+02   -0.14480E-05   -0.17004E-05  4448   0.213E-02    0.708E-03
DAV:   3    -0.350711708158E+02    0.63048E-06   -0.40416E-06  3168   0.112E-02
  81 F= -.35071171E+02 E0= -.35062784E+02  d E =0.103006E-02
quench:  g(F)=  0.000E+00 g(S)=  0.000E+00 dE (1.order)= 0.000E+00
 bond charge predicted
       N       E                     dE             d eps       ncg     rms          rms(c)
DAV:   1    -0.350691784245E+02    0.19930E-02   -0.15983E-03  3304   0.193E-01    0.842E-03
DAV:   2    -0.350691818549E+02   -0.34305E-05   -0.38642E-05  4240   0.301E-02    0.716E-03
DAV:   3    -0.350691817312E+02    0.12370E-06   -0.20375E-06  3008   0.846E-03
  82 F= -.35069182E+02 E0= -.35060788E+02  d E =0.198908E-02
quench:  g(F)=  0.000E+00 g(S)=  0.000E+00 dE (1.order)= 0.000E+00
 bond charge predicted
       N       E                     dE             d eps       ncg     rms          rms(c)
DAV:   1    -0.350659264146E+02    0.32554E-02   -0.35690E-03  3304   0.286E-01    0.129E-02
DAV:   2    -0.350659351553E+02   -0.87407E-05   -0.96012E-05  4104   0.467E-02    0.102E-02
DAV:   3    -0.350659349633E+02    0.19203E-06   -0.24791E-06  3656   0.899E-03
  83 F= -.35065935E+02 E0= -.35057528E+02  d E =0.324677E-02
quench:  g(F)=  0.000E+00 g(S)=  0.000E+00 dE (1.order)= 0.000E+00
 bond charge predicted
       N       E                     dE             d eps       ncg     rms          rms(c)
DAV:   1    -0.350612425757E+02    0.46926E-02   -0.69191E-03  3312   0.396E-01    0.187E-02
DAV:   2    -0.350612653697E+02   -0.22794E-04   -0.25015E-04  4480   0.786E-02    0.238E-02
DAV:   3    -0.350612594368E+02    0.59328E-05   -0.46260E-05  4688   0.369E-02    0.124E-02
DAV:   4    -0.350612590990E+02    0.33779E-06   -0.57790E-06  3408   0.123E-02
  84 F= -.35061259E+02 E0= -.35052833E+02  d E =0.467586E-02
quench:  g(F)=  0.000E+00 g(S)=  0.000E+00 dE (1.order)= 0.000E+00
 bond charge predicted
       N       E                     dE             d eps       ncg     rms          rms(c)
DAV:   1    -0.350551583595E+02    0.61011E-02   -0.11054E-02  3328   0.499E-01    0.228E-02
DAV:   2    -0.350551902314E+02   -0.31872E-04   -0.34208E-04  4160   0.886E-02    0.195E-02
DAV:   3    -0.350551894119E+02    0.81948E-06   -0.29095E-05  5072   0.298E-02    0.143E-02
DAV:   4    -0.350551889024E+02    0.50947E-06   -0.14705E-05  4368   0.181E-02    0.124E-02
DAV:   5    -0.350551878033E+02    0.10991E-05   -0.58901E-06  3440   0.122E-02    0.403E-03
DAV:   6    -0.350551877579E+02    0.45417E-07   -0.11772E-06  2056   0.649E-03
  85 F= -.35055188E+02 E0= -.35046738E+02  d E =0.607134E-02
quench:  g(F)=  0.000E+00 g(S)=  0.000E+00 dE (1.order)= 0.000E+00
 bond charge predicted
       N       E                     dE             d eps       ncg     rms          rms(c)
DAV:   1    -0.350479528042E+02    0.72350E-02   -0.16582E-02  3312   0.611E-01    0.296E-02
DAV:   2    -0.350480025450E+02   -0.49741E-04   -0.53442E-04  4264   0.111E-01    0.251E-02
DAV:   3    -0.350480004526E+02    0.20924E-05   -0.64253E-05  4968   0.433E-02    0.180E-02
DAV:   4    -0.350479985532E+02    0.18994E-05   -0.24335E-05  4912   0.233E-02    0.140E-02
DAV:   5    -0.350479973784E+02    0.11749E-05   -0.60084E-06  3504   0.123E-02    0.597E-03
DAV:   6    -0.350479971889E+02    0.18943E-06   -0.20223E-06  2392   0.810E-03
  86 F= -.35047997E+02 E0= -.35039520E+02  d E =0.719057E-02
quench:  g(F)=  0.000E+00 g(S)=  0.000E+00 dE (1.order)= 0.000E+00
 bond charge predicted
       N       E                     dE             d eps       ncg     rms          rms(c)
DAV:   1    -0.350401133430E+02    0.78840E-02   -0.21028E-02  3296   0.688E-01    0.368E-02
DAV:   2    -0.350401758384E+02   -0.62495E-04   -0.66959E-04  4120   0.123E-01    0.266E-02
DAV:   3    -0.350401749197E+02    0.91870E-06   -0.69427E-05  5120   0.449E-02    0.207E-02
DAV:   4    -0.350401725007E+02    0.24189E-05   -0.33857E-05  4952   0.272E-02    0.158E-02
DAV:   5    -0.350401706384E+02    0.18623E-05   -0.78306E-06  3696   0.139E-02    0.599E-03
DAV:   6    -0.350401704681E+02    0.17034E-06   -0.19145E-06  2328   0.787E-03
  87 F= -.35040170E+02 E0= -.35031658E+02  d E =0.782672E-02
quench:  g(F)=  0.000E+00 g(S)=  0.000E+00 dE (1.order)= 0.000E+00
 bond charge predicted
       N       E                     dE             d eps       ncg     rms          rms(c)
DAV:   1    -0.350329666050E+02    0.72040E-02   -0.31644E-02  3296   0.859E-01    0.460E-02
DAV:   2    -0.350330357081E+02   -0.69103E-04   -0.76529E-04  4352   0.134E-01    0.328E-02
DAV:   3    -0.350330340549E+02    0.16532E-05   -0.12695E-04  4776   0.586E-02    0.256E-02
DAV:   4    -0.350330283295E+02    0.57255E-05   -0.53736E-05  4936   0.343E-02    0.181E-02
DAV:   5    -0.350330259991E+02    0.23303E-05   -0.83283E-06  3928   0.146E-02    0.690E-03
DAV:   6    -0.350330258076E+02    0.19151E-06   -0.22272E-06  2736   0.822E-03
  88 F= -.35033026E+02 E0= -.35024493E+02  d E =0.714466E-02
quench:  g(F)=  0.000E+00 g(S)=  0.000E+00 dE (1.order)= 0.000E+00
 bond charge predicted
       N       E                     dE             d eps       ncg     rms          rms(c)
DAV:   1    -0.350325131682E+02    0.51283E-03   -0.55259E-03  3264   0.360E-01    0.357E-02
DAV:   2    -0.350325195832E+02   -0.64150E-05   -0.10104E-04  4448   0.513E-02    0.115E-02
DAV:   3    -0.350325195037E+02    0.79423E-07   -0.14507E-05  4448   0.196E-02    0.998E-03
DAV:   4    -0.350325187078E+02    0.79591E-06   -0.99059E-06  3976   0.155E-02
  89 F= -.35032519E+02 E0= -.35023974E+02  d E =0.507100E-03
quench:  g(F)=  0.000E+00 g(S)=  0.000E+00 dE (1.order)= 0.000E+00
 bond charge predicted
       N       E                     dE             d eps       ncg     rms          rms(c)
DAV:   1    -0.350322885508E+02    0.23095E-03   -0.22800E-04  3264   0.758E-02    0.845E-03
DAV:   2    -0.350322879507E+02    0.60002E-06   -0.47646E-06  4352   0.119E-02
  90 F= -.35032288E+02 E0= -.35023749E+02  d E =0.230757E-03
quench:  g(F)=  0.000E+00 g(S)=  0.000E+00 dE (1.order)= 0.000E+00
 bond charge predicted
       N       E                     dE             d eps       ncg     rms          rms(c)
DAV:   1    -0.350318128030E+02    0.47575E-03   -0.55744E-04  3264   0.117E-01    0.949E-03
DAV:   2    -0.350318121043E+02    0.69876E-06   -0.94891E-06  4360   0.159E-02
  91 F= -.35031812E+02 E0= -.35023281E+02  d E =0.475846E-03
quench:  g(F)=  0.000E+00 g(S)=  0.000E+00 dE (1.order)= 0.000E+00
 bond charge predicted
       N       E                     dE             d eps       ncg     rms          rms(c)
DAV:   1    -0.350313546229E+02    0.45818E-03   -0.11305E-03  3264   0.166E-01    0.105E-02
DAV:   2    -0.350313538872E+02    0.73567E-06   -0.14882E-05  4528   0.200E-02    0.601E-03
DAV:   3    -0.350313535187E+02    0.36854E-06   -0.22963E-06  3184   0.801E-03
  92 F= -.35031354E+02 E0= -.35022831E+02  d E =0.458586E-03
quench:  g(F)=  0.000E+00 g(S)=  0.000E+00 dE (1.order)= 0.000E+00
 bond charge predicted
       N       E                     dE             d eps       ncg     rms          rms(c)
DAV:   1    -0.350314530693E+02   -0.99182E-04   -0.12230E-03  3264   0.173E-01    0.107E-02
DAV:   2    -0.350314524725E+02    0.59683E-06   -0.19220E-05  4672   0.229E-02    0.747E-03
DAV:   3    -0.350314523411E+02    0.13141E-06   -0.12563E-05  4328   0.173E-02    0.755E-03
DAV:   4    -0.350314512500E+02    0.10911E-05   -0.50571E-06  3448   0.111E-02    0.245E-03
DAV:   5    -0.350314512478E+02    0.22405E-08   -0.90499E-07  1952   0.526E-03
  93 F= -.35031451E+02 E0= -.35022939E+02  d E =-.977291E-04
quench:  g(F)=  0.000E+00 g(S)=  0.000E+00 dE (1.order)= 0.000E+00
 bond charge predicted
       N       E                     dE             d eps       ncg     rms          rms(c)
DAV:   1    -0.350321825593E+02   -0.73131E-03   -0.11023E-03  3264   0.165E-01    0.990E-03
DAV:   2    -0.350321824696E+02    0.89763E-07   -0.18183E-05  4328   0.223E-02    0.555E-03
DAV:   3    -0.350321822780E+02    0.19157E-06   -0.37912E-06  3264   0.102E-02
  94 F= -.35032182E+02 E0= -.35023680E+02  d E =-.731030E-03
quench:  g(F)=  0.000E+00 g(S)=  0.000E+00 dE (1.order)= 0.000E+00
 bond charge predicted
       N       E                     dE             d eps       ncg     rms          rms(c)
DAV:   1    -0.350335679653E+02   -0.13855E-02   -0.13290E-03  3288   0.181E-01    0.125E-02
DAV:   2    -0.350335678708E+02    0.94501E-07   -0.30566E-05  4296   0.278E-02    0.698E-03
DAV:   3    -0.350335671699E+02    0.70091E-06   -0.14300E-06  3128   0.687E-03
  95 F= -.35033567E+02 E0= -.35025078E+02  d E =-.138489E-02
quench:  g(F)=  0.000E+00 g(S)=  0.000E+00 dE (1.order)= 0.000E+00
 bond charge predicted
       N       E                     dE             d eps       ncg     rms          rms(c)
DAV:   1    -0.350357784602E+02   -0.22106E-02   -0.21544E-03  3296   0.227E-01    0.149E-02
DAV:   2    -0.350357842067E+02   -0.57465E-05   -0.91781E-05  4688   0.488E-02    0.171E-02
DAV:   3    -0.350357803678E+02    0.38390E-05   -0.34602E-05  4832   0.297E-02    0.789E-03
DAV:   4    -0.350357794820E+02    0.88572E-06   -0.46616E-06  3248   0.107E-02
  96 F= -.35035779E+02 E0= -.35027307E+02  d E =-.221231E-02
quench:  g(F)=  0.000E+00 g(S)=  0.000E+00 dE (1.order)= 0.000E+00
 bond charge predicted
       N       E                     dE             d eps       ncg     rms          rms(c)
DAV:   1    -0.350390104786E+02   -0.32301E-02   -0.35565E-03  3304   0.288E-01    0.172E-02
DAV:   2    -0.350390179450E+02   -0.74664E-05   -0.10901E-04  4240   0.509E-02    0.121E-02
DAV:   3    -0.350390176364E+02    0.30861E-06   -0.17834E-05  4712   0.223E-02    0.955E-03
DAV:   4    -0.350390166611E+02    0.97530E-06   -0.10906E-05  4112   0.158E-02    0.688E-03
DAV:   5    -0.350390161184E+02    0.54268E-06   -0.27938E-06  2760   0.874E-03
  97 F= -.35039016E+02 E0= -.35030562E+02  d E =-.323664E-02
quench:  g(F)=  0.000E+00 g(S)=  0.000E+00 dE (1.order)= 0.000E+00
 bond charge predicted
       N       E                     dE             d eps       ncg     rms          rms(c)
DAV:   1    -0.350433438527E+02   -0.43272E-02   -0.57420E-03  3328   0.362E-01    0.207E-02
DAV:   2    -0.350433590131E+02   -0.15160E-04   -0.19215E-04  4256   0.672E-02    0.160E-02
DAV:   3    -0.350433582904E+02    0.72264E-06   -0.33689E-05  4832   0.307E-02    0.119E-02
DAV:   4    -0.350433566932E+02    0.15973E-05   -0.15971E-05  4528   0.188E-02    0.842E-03
DAV:   5    -0.350433559808E+02    0.71234E-06   -0.32064E-06  2752   0.926E-03
  98 F= -.35043356E+02 E0= -.35034923E+02  d E =-.433986E-02
quench:  g(F)=  0.000E+00 g(S)=  0.000E+00 dE (1.order)= 0.000E+00
 bond charge predicted
       N       E                     dE             d eps       ncg     rms          rms(c)
DAV:   1    -0.350487559585E+02   -0.53993E-02   -0.85613E-03  3328   0.440E-01    0.249E-02
DAV:   2    -0.350487804221E+02   -0.24464E-04   -0.29672E-04  4264   0.831E-02    0.199E-02
DAV:   3    -0.350487791869E+02    0.12352E-05   -0.47912E-05  4896   0.368E-02    0.144E-02
DAV:   4    -0.350487772051E+02    0.19819E-05   -0.21949E-05  4816   0.219E-02    0.107E-02
DAV:   5    -0.350487761621E+02    0.10430E-05   -0.47838E-06  3280   0.109E-02    0.317E-03
DAV:   6    -0.350487761872E+02   -0.25126E-07   -0.92943E-07  2064   0.570E-03
  99 F= -.35048776E+02 E0= -.35040368E+02  d E =-.542021E-02
quench:  g(F)=  0.000E+00 g(S)=  0.000E+00 dE (1.order)= 0.000E+00
[...]
DAV:   1    -0.350417864774E+02    0.12556E-03   -0.52594E-04  3264   0.113E-01    0.117E-02
DAV:   2    -0.350417858406E+02    0.63679E-06   -0.11953E-05  4416   0.184E-02    0.640E-03
DAV:   3    -0.350417858054E+02    0.35215E-07   -0.78811E-06  3712   0.139E-02
 116 F= -.35041786E+02 E0= -.35033444E+02  d E =0.125836E-03
quench:  g(F)=  0.000E+00 g(S)=  0.000E+00 dE (1.order)= 0.000E+00
 bond charge predicted
       N       E                     dE             d eps       ncg     rms          rms(c)
DAV:   1    -0.350417330213E+02    0.52819E-04   -0.53334E-04  3264   0.115E-01    0.990E-03
DAV:   2    -0.350417319333E+02    0.10880E-05   -0.83924E-06  4360   0.154E-02    0.526E-03
DAV:   3    -0.350417315222E+02    0.41106E-06   -0.82573E-07  2768   0.480E-03
 117 F= -.35041732E+02 E0= -.35033395E+02  d E =0.542832E-04
quench:  g(F)=  0.000E+00 g(S)=  0.000E+00 dE (1.order)= 0.000E+00
 bond charge predicted
       N       E                     dE             d eps       ncg     rms          rms(c)
DAV:   1    -0.350419175993E+02   -0.18567E-03   -0.34930E-04  3264   0.947E-02    0.812E-03
DAV:   2    -0.350419169440E+02    0.65531E-06   -0.87655E-06  4344   0.155E-02
 118 F= -.35041917E+02 E0= -.35033588E+02  d E =-.185422E-03
quench:  g(F)=  0.000E+00 g(S)=  0.000E+00 dE (1.order)= 0.000E+00
 bond charge predicted
       N       E                     dE             d eps       ncg     rms          rms(c)
DAV:   1    -0.350424441357E+02   -0.52654E-03   -0.41688E-04  3264   0.103E-01    0.107E-02
DAV:   2    -0.350424432183E+02    0.91749E-06   -0.18706E-05  4640   0.229E-02    0.868E-03
DAV:   3    -0.350424425705E+02    0.64772E-06   -0.15584E-05  4528   0.192E-02    0.747E-03
DAV:   4    -0.350424414724E+02    0.10981E-05   -0.42657E-06  3264   0.102E-02    0.199E-03
DAV:   5    -0.350424414994E+02   -0.26920E-07   -0.61468E-07  1840   0.427E-03
 119 F= -.35042441E+02 E0= -.35034121E+02  d E =-.524555E-03
quench:  g(F)=  0.000E+00 g(S)=  0.000E+00 dE (1.order)= 0.000E+00
 bond charge predicted
       N       E                     dE             d eps       ncg     rms          rms(c)
DAV:   1    -0.350434236120E+02   -0.98214E-03   -0.69163E-04  3280   0.131E-01    0.917E-03
DAV:   2    -0.350434237090E+02   -0.97023E-07   -0.16799E-05  4280   0.209E-02    0.548E-03
DAV:   3    -0.350434235966E+02    0.11241E-06   -0.42863E-06  3328   0.109E-02
 120 F= -.35043424E+02 E0= -.35035112E+02  d E =-.982097E-03
quench:  g(F)=  0.000E+00 g(S)=  0.000E+00 dE (1.order)= 0.000E+00
 bond charge predicted
       N       E                     dE             d eps       ncg     rms          rms(c)
DAV:   1    -0.350449739746E+02   -0.15503E-02   -0.10769E-03  3296   0.161E-01    0.118E-02
DAV:   2    -0.350449744356E+02   -0.46096E-06   -0.29233E-05  4312   0.265E-02    0.675E-03
DAV:   3    -0.350449738949E+02    0.54066E-06   -0.15016E-06  2944   0.698E-03
 121 F= -.35044974E+02 E0= -.35036673E+02  d E =-.155030E-02
quench:  g(F)=  0.000E+00 g(S)=  0.000E+00 dE (1.order)= 0.000E+00
 bond charge predicted
       N       E                     dE             d eps       ncg     rms          rms(c)
DAV:   1    -0.350471659230E+02   -0.21915E-02   -0.17600E-03  3296   0.203E-01    0.141E-02
DAV:   2    -0.350471687270E+02   -0.28040E-05   -0.54502E-05  4256   0.363E-02    0.859E-03
DAV:   3    -0.350471686586E+02    0.68381E-07   -0.13611E-05  4576   0.189E-02    0.927E-03
DAV:   4    -0.350471675088E+02    0.11498E-05   -0.48998E-06  3328   0.112E-02    0.444E-03
DAV:   5    -0.350471673274E+02    0.18137E-06   -0.11059E-06  2016   0.566E-03
 122 F= -.35047167E+02 E0= -.35038878E+02  d E =-.219343E-02
quench:  g(F)=  0.000E+00 g(S)=  0.000E+00 dE (1.order)= 0.000E+00
 bond charge predicted
       N       E                     dE             d eps       ncg     rms          rms(c)
DAV:   1    -0.350500196643E+02   -0.28522E-02   -0.27059E-03  3312   0.250E-01    0.151E-02
DAV:   2    -0.350500260309E+02   -0.63666E-05   -0.88781E-05  4264   0.460E-02    0.114E-02
DAV:   3    -0.350500256523E+02    0.37857E-06   -0.16998E-05  4664   0.217E-02    0.844E-03
DAV:   4    -0.350500247659E+02    0.88642E-06   -0.86433E-06  3856   0.142E-02
 123 F= -.35050025E+02 E0= -.35041749E+02  d E =-.285744E-02
quench:  g(F)=  0.000E+00 g(S)=  0.000E+00 dE (1.order)= 0.000E+00
 bond charge predicted
       N       E                     dE             d eps       ncg     rms          rms(c)
DAV:   1    -0.350535117681E+02   -0.34861E-02   -0.37815E-03  3320   0.294E-01    0.168E-02
DAV:   2    -0.350535212399E+02   -0.94717E-05   -0.12470E-04  4264   0.544E-02    0.131E-02
DAV:   3    -0.350535207592E+02    0.48071E-06   -0.17994E-05  4704   0.228E-02    0.952E-03
DAV:   4    -0.350535200301E+02    0.72907E-06   -0.10084E-05  4024   0.153E-02    0.767E-03
DAV:   5    -0.350535194499E+02    0.58019E-06   -0.27533E-06  2728   0.884E-03
 124 F= -.35053519E+02 E0= -.35045260E+02  d E =-.349468E-02
quench:  g(F)=  0.000E+00 g(S)=  0.000E+00 dE (1.order)= 0.000E+00
 bond charge predicted
       N       E                     dE             d eps       ncg     rms          rms(c)
DAV:   1    -0.350574761929E+02   -0.39562E-02   -0.50334E-03  3320   0.338E-01    0.193E-02
DAV:   2    -0.350574904069E+02   -0.14214E-04   -0.17611E-04  4296   0.646E-02    0.165E-02
DAV:   3    -0.350574892729E+02    0.11340E-05   -0.29541E-05  4768   0.290E-02    0.110E-02
DAV:   4    -0.350574882868E+02    0.98603E-06   -0.13329E-05  4280   0.173E-02    0.889E-03
DAV:   5    -0.350574875875E+02    0.69931E-06   -0.31858E-06  2840   0.937E-03
 125 F= -.35057488E+02 E0= -.35049249E+02  d E =-.396814E-02
quench:  g(F)=  0.000E+00 g(S)=  0.000E+00 dE (1.order)= 0.000E+00
 bond charge predicted
       N       E                     dE             d eps       ncg     rms          rms(c)
DAV:   1    -0.350615433701E+02   -0.40551E-02   -0.59399E-03  3320   0.366E-01    0.220E-02
DAV:   2    -0.350615602917E+02   -0.16922E-04   -0.20254E-04  4184   0.686E-02    0.169E-02
DAV:   3    -0.350615598277E+02    0.46403E-06   -0.26066E-05  5000   0.274E-02    0.121E-02
DAV:   4    -0.350615591708E+02    0.65687E-06   -0.15916E-05  4536   0.187E-02    0.103E-02
DAV:   5    -0.350615584766E+02    0.69417E-06   -0.42671E-06  3168   0.104E-02
 126 F= -.35061558E+02 E0= -.35053346E+02  d E =-.407089E-02
quench:  g(F)=  0.000E+00 g(S)=  0.000E+00 dE (1.order)= 0.000E+00
 bond charge predicted
       N       E                     dE             d eps       ncg     rms          rms(c)
DAV:   1    -0.350648704032E+02   -0.33112E-02   -0.78785E-03  3296   0.429E-01    0.283E-02
DAV:   2    -0.350648872487E+02   -0.16845E-04   -0.21370E-04  4368   0.723E-02    0.191E-02
DAV:   3    -0.350648869931E+02    0.25564E-06   -0.47468E-05  4776   0.356E-02    0.147E-02
DAV:   4    -0.350648847273E+02    0.22657E-05   -0.23005E-05  4752   0.225E-02    0.103E-02
DAV:   5    -0.350648841087E+02    0.61868E-06   -0.30520E-06  2728   0.901E-03
 127 F= -.35064884E+02 E0= -.35056693E+02  d E =-.332563E-02
quench:  g(F)=  0.000E+00 g(S)=  0.000E+00 dE (1.order)= 0.000E+00
 bond charge predicted
       N       E                     dE             d eps       ncg     rms          rms(c)
DAV:   1    -0.350646353812E+02    0.24935E-03   -0.19992E-04  3264   0.719E-02    0.123E-02
DAV:   2    -0.350646346979E+02    0.68328E-06   -0.55398E-06  4352   0.123E-02
 128 F= -.35064635E+02 E0= -.35056449E+02  d E =0.249411E-03
quench:  g(F)=  0.000E+00 g(S)=  0.000E+00 dE (1.order)= 0.000E+00
 bond charge predicted
       N       E                     dE             d eps       ncg     rms          rms(c)
DAV:   1    -0.350646638560E+02   -0.28475E-04   -0.35518E-04  3264   0.933E-02    0.105E-02
DAV:   2    -0.350646644060E+02   -0.54996E-06   -0.19183E-05  4808   0.226E-02    0.962E-03
DAV:   3    -0.350646633748E+02    0.10313E-05   -0.16099E-05  4504   0.193E-02    0.588E-03
DAV:   4    -0.350646626934E+02    0.68132E-06   -0.30489E-06  3008   0.860E-03
 129 F= -.35064663E+02 E0= -.35056481E+02  d E =-.279955E-04
quench:  g(F)=  0.000E+00 g(S)=  0.000E+00 dE (1.order)= 0.000E+00
 bond charge predicted
       N       E                     dE             d eps       ncg     rms          rms(c)
DAV:   1    -0.350645809381E+02    0.82437E-04   -0.27126E-04  3264   0.803E-02    0.632E-03
DAV:   2    -0.350645812409E+02   -0.30281E-06   -0.43995E-06  4232   0.108E-02
 130 F= -.35064581E+02 E0= -.35056399E+02  d E =0.814525E-04
quench:  g(F)=  0.000E+00 g(S)=  0.000E+00 dE (1.order)= 0.000E+00
 bond charge predicted
       N       E                     dE             d eps       ncg     rms          rms(c)
DAV:   1    -0.350643576035E+02    0.22333E-03   -0.59284E-05  3264   0.376E-02    0.326E-03
DAV:   2    -0.350643576624E+02   -0.58936E-07   -0.11485E-06  2648   0.585E-03
 131 F= -.35064358E+02 E0= -.35056174E+02  d E =0.223579E-03
quench:  g(F)=  0.000E+00 g(S)=  0.000E+00 dE (1.order)= 0.000E+00
 bond charge predicted
       N       E                     dE             d eps       ncg     rms          rms(c)
DAV:   1    -0.350639465922E+02    0.41101E-03   -0.90966E-05  3312   0.463E-02    0.253E-03
DAV:   2    -0.350639469015E+02   -0.30936E-06   -0.39197E-06  3824   0.105E-02
 132 F= -.35063947E+02 E0= -.35055761E+02  d E =0.410761E-03
quench:  g(F)=  0.000E+00 g(S)=  0.000E+00 dE (1.order)= 0.000E+00
 bond charge predicted
       N       E                     dE             d eps       ncg     rms          rms(c)
DAV:   1    -0.350632850341E+02    0.66156E-03   -0.18248E-04  3312   0.652E-02    0.289E-03
DAV:   2    -0.350632854040E+02   -0.36992E-06   -0.44707E-06  3944   0.108E-02
 133 F= -.35063285E+02 E0= -.35055098E+02  d E =0.661498E-03
quench:  g(F)=  0.000E+00 g(S)=  0.000E+00 dE (1.order)= 0.000E+00
 bond charge predicted
       N       E                     dE             d eps       ncg     rms          rms(c)
DAV:   1    -0.350623017710E+02    0.98326E-03   -0.34648E-04  3320   0.891E-02    0.421E-03
DAV:   2    -0.350623026814E+02   -0.91035E-06   -0.10703E-05  4344   0.164E-02    0.497E-03
DAV:   3    -0.350623025065E+02    0.17482E-06   -0.12796E-06  2608   0.675E-03
 134 F= -.35062303E+02 E0= -.35054112E+02  d E =0.982897E-03
quench:  g(F)=  0.000E+00 g(S)=  0.000E+00 dE (1.order)= 0.000E+00
 bond charge predicted
       N       E                     dE             d eps       ncg     rms          rms(c)
DAV:   1    -0.350609330815E+02    0.13696E-02   -0.61274E-04  3344   0.118E-01    0.563E-03
DAV:   2    -0.350609346124E+02   -0.15309E-05   -0.17413E-05  4216   0.199E-02    0.490E-03
DAV:   3    -0.350609345635E+02    0.48859E-07   -0.36024E-07  2440   0.369E-03
 135 F= -.35060935E+02 E0= -.35052740E+02  d E =0.136794E-02
quench:  g(F)=  0.000E+00 g(S)=  0.000E+00 dE (1.order)= 0.000E+00
 bond charge predicted
       N       E                     dE             d eps       ncg     rms          rms(c)
DAV:   1    -0.350591457897E+02    0.17888E-02   -0.10054E-03  3336   0.151E-01    0.701E-03
DAV:   2    -0.350591488543E+02   -0.30645E-05   -0.33508E-05  4400   0.282E-02    0.750E-03
DAV:   3    -0.350591484602E+02    0.39408E-06   -0.42094E-06  3200   0.118E-02
 136 F= -.35059148E+02 E0= -.35050948E+02  d E =0.178610E-02
quench:  g(F)=  0.000E+00 g(S)=  0.000E+00 dE (1.order)= 0.000E+00
 bond charge predicted
       N       E                     dE             d eps       ncg     rms          rms(c)
DAV:   1    -0.350569602445E+02    0.21886E-02   -0.14810E-03  3336   0.182E-01    0.883E-03
DAV:   2    -0.350569643524E+02   -0.41080E-05   -0.45605E-05  4168   0.319E-02    0.783E-03
DAV:   3    -0.350569642498E+02    0.10261E-06   -0.10542E-06  3120   0.598E-03
 137 F= -.35056964E+02 E0= -.35048756E+02  d E =0.218421E-02
quench:  g(F)=  0.000E+00 g(S)=  0.000E+00 dE (1.order)= 0.000E+00
 bond charge predicted
       N       E                     dE             d eps       ncg     rms          rms(c)
DAV:   1    -0.350544990923E+02    0.24653E-02   -0.21309E-03  3304   0.220E-01    0.104E-02
DAV:   2    -0.350545046515E+02   -0.55592E-05   -0.60777E-05  4232   0.371E-02    0.880E-03
DAV:   3    -0.350545045112E+02    0.14033E-06   -0.22051E-06  3496   0.867E-03
 138 F= -.35054505E+02 E0= -.35046288E+02  d E =0.245974E-02
quench:  g(F)=  0.000E+00 g(S)=  0.000E+00 dE (1.order)= 0.000E+00
 bond charge predicted
       N       E                     dE             d eps       ncg     rms          rms(c)
DAV:   1    -0.350521640454E+02    0.23406E-02   -0.25100E-03  3296   0.240E-01    0.156E-02
DAV:   2    -0.350521715103E+02   -0.74650E-05   -0.85992E-05  4400   0.456E-02    0.146E-02
DAV:   3    -0.350521703033E+02    0.12070E-05   -0.20605E-05  4800   0.238E-02    0.103E-02
DAV:   4    -0.350521696693E+02    0.63403E-06   -0.62617E-06  3592   0.121E-02
 139 F= -.35052170E+02 E0= -.35043942E+02  d E =0.233484E-02
quench:  g(F)=  0.000E+00 g(S)=  0.000E+00 dE (1.order)= 0.000E+00
 bond charge predicted
       N       E                     dE             d eps       ncg     rms          rms(c)
DAV:   1    -0.350521016790E+02    0.68624E-04   -0.64431E-04  3264   0.123E-01    0.928E-03
DAV:   2    -0.350521020486E+02   -0.36962E-06   -0.78596E-06  4352   0.150E-02
 140 F= -.35052102E+02 E0= -.35043878E+02  d E =0.676207E-04
quench:  g(F)=  0.000E+00 g(S)=  0.000E+00 dE (1.order)= 0.000E+00
 bond charge predicted
       N       E                     dE             d eps       ncg     rms          rms(c)
DAV:   1    -0.350520508032E+02    0.50876E-04   -0.34519E-05  3328   0.300E-02    0.511E-03
DAV:   2    -0.350520506465E+02    0.15671E-06   -0.28850E-06  3064   0.918E-03
 141 F= -.35052051E+02 E0= -.35043828E+02  d E =0.514021E-04
quench:  g(F)=  0.000E+00 g(S)=  0.000E+00 dE (1.order)= 0.000E+00
 bond charge predicted
       N       E                     dE             d eps       ncg     rms          rms(c)
DAV:   1    -0.350519891511E+02    0.61652E-04   -0.59626E-05  3272   0.394E-02    0.537E-03
DAV:   2    -0.350519890650E+02    0.86085E-07   -0.56113E-06  3536   0.127E-02
 142 F= -.35051989E+02 E0= -.35043769E+02  d E =0.615815E-04
quench:  g(F)=  0.000E+00 g(S)=  0.000E+00 dE (1.order)= 0.000E+00
 bond charge predicted
       N       E                     dE             d eps       ncg     rms          rms(c)
DAV:   1    -0.350520258337E+02   -0.36683E-04   -0.85175E-05  3272   0.470E-02    0.539E-03
DAV:   2    -0.350520254361E+02    0.39757E-06   -0.38045E-06  3064   0.113E-02
 143 F= -.35052025E+02 E0= -.35043809E+02  d E =-.363711E-04
quench:  g(F)=  0.000E+00 g(S)=  0.000E+00 dE (1.order)= 0.000E+00
 bond charge predicted
       N       E                     dE             d eps       ncg     rms          rms(c)
DAV:   1    -0.350522404707E+02   -0.21464E-03   -0.11131E-04  3272   0.534E-02    0.611E-03
DAV:   2    -0.350522403198E+02    0.15097E-06   -0.72380E-06  4136   0.144E-02
 144 F= -.35052240E+02 E0= -.35044027E+02  d E =-.214884E-03
quench:  g(F)=  0.000E+00 g(S)=  0.000E+00 dE (1.order)= 0.000E+00
 bond charge predicted
       N       E                     dE             d eps       ncg     rms          rms(c)
DAV:   1    -0.350527158117E+02   -0.47534E-03   -0.17649E-04  3288   0.663E-02    0.659E-03
DAV:   2    -0.350527155137E+02    0.29799E-06   -0.65300E-06  4168   0.142E-02
 145 F= -.35052716E+02 E0= -.35044507E+02  d E =-.475194E-03
quench:  g(F)=  0.000E+00 g(S)=  0.000E+00 dE (1.order)= 0.000E+00
 bond charge predicted
       N       E                     dE             d eps       ncg     rms          rms(c)
DAV:   1    -0.350535384935E+02   -0.82268E-03   -0.31260E-04  3296   0.867E-02    0.768E-03
DAV:   2    -0.350535388085E+02   -0.31499E-06   -0.13267E-05  4280   0.193E-02    0.627E-03
DAV:   3    -0.350535384146E+02    0.39389E-06   -0.75224E-06  3720   0.141E-02
 146 F= -.35053538E+02 E0= -.35045336E+02  d E =-.822901E-03
quench:  g(F)=  0.000E+00 g(S)=  0.000E+00 dE (1.order)= 0.000E+00
 bond charge predicted
       N       E                     dE             d eps       ncg     rms          rms(c)
DAV:   1    -0.350547683211E+02   -0.12295E-02   -0.55945E-04  3296   0.115E-01    0.741E-03
DAV:   2    -0.350547690994E+02   -0.77829E-06   -0.15953E-05  4200   0.198E-02    0.507E-03
DAV:   3    -0.350547689672E+02    0.13216E-06   -0.18518E-06  2992   0.766E-03
 147 F= -.35054769E+02 E0= -.35046571E+02  d E =-.123055E-02
quench:  g(F)=  0.000E+00 g(S)=  0.000E+00 dE (1.order)= 0.000E+00
 bond charge predicted
       N       E                     dE             d eps       ncg     rms          rms(c)
DAV:   1    -0.350564163910E+02   -0.16473E-02   -0.86209E-04  3320   0.141E-01    0.901E-03
DAV:   2    -0.350564180906E+02   -0.16996E-05   -0.26319E-05  4272   0.245E-02    0.573E-03
DAV:   3    -0.350564178761E+02    0.21444E-06   -0.93082E-07  2888   0.574E-03
 148 F= -.35056418E+02 E0= -.35048227E+02  d E =-.164891E-02
quench:  g(F)=  0.000E+00 g(S)=  0.000E+00 dE (1.order)= 0.000E+00
 bond charge predicted
       N       E                     dE             d eps       ncg     rms          rms(c)
DAV:   1    -0.350584599942E+02   -0.20419E-02   -0.12876E-03  3328   0.171E-01    0.108E-02
DAV:   2    -0.350584655979E+02   -0.56036E-05   -0.69843E-05  4784   0.424E-02    0.154E-02
DAV:   3    -0.350584622406E+02    0.33572E-05   -0.20648E-05  4736   0.232E-02    0.616E-03
DAV:   4    -0.350584620769E+02    0.16369E-06   -0.14013E-06  2584   0.625E-03
 149 F= -.35058462E+02 E0= -.35050280E+02  d E =-.204420E-02
quench:  g(F)=  0.000E+00 g(S)=  0.000E+00 dE (1.order)= 0.000E+00
 bond charge predicted
       N       E                     dE             d eps       ncg     rms          rms(c)
DAV:   1    -0.350607880490E+02   -0.23258E-02   -0.16907E-03  3320   0.196E-01    0.105E-02
DAV:   2    -0.350607926511E+02   -0.46021E-05   -0.55256E-05  4224   0.358E-02    0.859E-03
DAV:   3    -0.350607924617E+02    0.18944E-06   -0.49607E-06  3520   0.127E-02
 150 F= -.35060792E+02 E0= -.35052621E+02  d E =-.233038E-02
quench:  g(F)=  0.000E+00 g(S)=  0.000E+00 dE (1.order)= 0.000E+00
 bond charge predicted
       N       E                     dE             d eps       ncg     rms          rms(c)
DAV:   1    -0.350631593073E+02   -0.23667E-02   -0.21928E-03  3304   0.224E-01    0.128E-02
DAV:   2    -0.350631644276E+02   -0.51203E-05   -0.64922E-05  4272   0.382E-02    0.103E-02
DAV:   3    -0.350631642170E+02    0.21061E-06   -0.13253E-06  3144   0.663E-03
 151 F= -.35063164E+02 E0= -.35055008E+02  d E =-.237176E-02
quench:  g(F)=  0.000E+00 g(S)=  0.000E+00 dE (1.order)= 0.000E+00
 bond charge predicted
       N       E                     dE             d eps       ncg     rms          rms(c)
DAV:   1    -0.350649429308E+02   -0.17785E-02   -0.21247E-03  3296   0.222E-01    0.177E-02
DAV:   2    -0.350649485882E+02   -0.56574E-05   -0.63181E-05  4224   0.380E-02    0.906E-03
DAV:   3    -0.350649486689E+02   -0.80738E-07   -0.14618E-06  3128   0.705E-03
 152 F= -.35064949E+02 E0= -.35056806E+02  d E =-.178445E-02
quench:  g(F)=  0.000E+00 g(S)=  0.000E+00 dE (1.order)= 0.000E+00
 bond charge predicted
       N       E                     dE             d eps       ncg     rms          rms(c)
DAV:   1    -0.350648354683E+02    0.11312E-03   -0.59827E-05  3296   0.391E-02    0.627E-03
DAV:   2    -0.350648354453E+02    0.23068E-07   -0.31453E-06  3280   0.956E-03
 153 F= -.35064835E+02 E0= -.35056695E+02  d E =0.113224E-03
quench:  g(F)=  0.000E+00 g(S)=  0.000E+00 dE (1.order)= 0.000E+00
 bond charge predicted
       N       E                     dE             d eps       ncg     rms          rms(c)
DAV:   1    -0.350647606394E+02    0.74829E-04   -0.12538E-04  3280   0.558E-02    0.731E-03
DAV:   2    -0.350647609073E+02   -0.26789E-06   -0.96418E-06  4368   0.161E-02
 154 F= -.35064761E+02 E0= -.35056622E+02  d E =0.745379E-04
quench:  g(F)=  0.000E+00 g(S)=  0.000E+00 dE (1.order)= 0.000E+00
 reached required accuracy - stopping structural energy minimisation
