 running on  192 total cores
 distrk:  each k-point on  192 cores,    1 groups
 distr:  one band on   24 cores,    8 groups
 using from now: INCAR     
 vasp.5.4.4.18Apr17-6-g9f103f2a35 (build Feb 21 2024 19:30:58) complex          
  
 POSCAR found type information on POSCAR  S  Pb
 POSCAR found :  2 types and      12 ions
 scaLAPACK will be used
 WARNING: PSMAXN for non-local potential too small
 LDA part: xc-table for Pade appr. of Perdew
 found WAVECAR, reading the header
  number of k-points has changed, file:    25 present:    40
  trying to continue reading WAVECAR, but it might fail
 WARNING: stress and forces are not correct
 POSCAR, INCAR and KPOINTS ok, starting setup
 FFT: planning ...
 reading WAVECAR
 the WAVECAR file was read successfully
 charge-density read from file: unknown                                 
 entering main loop
       N       E                     dE             d eps       ncg     rms          rms(c)
DAV:   1    -0.401803197830E+02   -0.40180E+02   -0.69652E+02  4448   0.666E+01
DAV:   2    -0.514267248865E+02   -0.11246E+02   -0.11068E+02  4080   0.276E+01
DAV:   3    -0.517830234652E+02   -0.35630E+00   -0.35383E+00  4416   0.600E+00
DAV:   4    -0.517948148515E+02   -0.11791E-01   -0.11777E-01  4296   0.975E-01
DAV:   5    -0.517951075214E+02   -0.29267E-03   -0.29243E-03  4464   0.157E-01
DAV:   6    -0.517951178974E+02   -0.10376E-04   -0.10370E-04  4216   0.265E-02
DAV:   7    -0.517951182435E+02   -0.34617E-06   -0.34564E-06  3200   0.428E-03
   1 F= -.51795118E+02 E0= -.51795118E+02  d E =0.000000E+00
 writing wavefunctions
