temp.lmp (written by ASE) 

1457 	 atoms 
2  atom types
0.0       102.7838754004341  xlo xhi
0.0      115.58580980335701  ylo yhi
0.0      23.187507035345014  zlo zhi


Atoms 

     1   2  -0.0      10.007351315491249      57.795127187159025                      10
     2   2  -0.0                      10      57.790682616197998      13.184090000135628
     3   2  -0.0      12.748148057622657      56.197521173497179       10.00367304007675
     4   2  -0.0      12.752828195309171      56.193587813468156      13.187507035345014
     5   1   0.0      14.591291608737301      56.194573649825855      11.592205356805177
     6   2  -0.0      15.525786254487443      54.609081679412483                      10
     7   2  -0.0      15.518434938996194      54.604637108451456      13.184090000135628
     8   2  -0.0      12.748148057622657      59.383566681243721       10.00367304007675
     9   2  -0.0      12.752828195309171      59.379633321214698      13.187507035345014
    10   1   0.0      14.591291608737301      59.380619157572397      11.592205356805177
    11   1   0.0      11.834773659573692      57.785898067978536       11.59565347809222
    12   2  -0.0      15.525786254487443      57.795127187159025                      10
    13   2  -0.0      15.518434938996194      57.790682616197998      13.184090000135628
    14   2  -0.0      15.525786254487443      60.981172694905553                      10
    15   2  -0.0      15.518434938996194      60.976728123944525      13.184090000135628
    16   2  -0.0      18.266582996618844      53.011475665750652       10.00367304007675
    17   2  -0.0      18.271263134305357      53.007542305721628      13.187507035345014
    18   1   0.0      20.109726547733487      53.008528142079328      11.592205356805177
    19   2  -0.0      21.044221193483622      51.423036171665956                      10
    20   2  -0.0      21.036869877992388      51.418591600704922      13.184090000135628
    21   2  -0.0      18.266582996618844      56.197521173497179       10.00367304007675
    22   2  -0.0      18.271263134305357      56.193587813468156      13.187507035345014
    23   1   0.0      20.109726547733487      56.194573649825855      11.592205356805177
    24   1   0.0      17.353208598569879      54.599852560231994       11.59565347809222
    25   2  -0.0      21.044221193483622      54.609081679412483                      10
    26   2  -0.0      21.036869877992388      54.604637108451456      13.184090000135628
    27   2  -0.0      18.266582996618844      59.383566681243721       10.00367304007675
    28   2  -0.0      18.271263134305357      59.379633321214698      13.187507035345014
    29   1   0.0      20.109726547733487      59.380619157572397      11.592205356805177
    30   1   0.0      17.353208598569879      57.785898067978536       11.59565347809222
    31   2  -0.0      21.044221193483622      57.795127187159025                      10
    32   2  -0.0      21.036869877992388      57.790682616197998      13.184090000135628
    33   2  -0.0      18.266582996618844      62.569612188990249       10.00367304007675
    34   2  -0.0      18.271263134305357      62.565678828961225      13.187507035345014
    35   1   0.0      20.109726547733487      62.566664665318925      11.592205356805177
    36   1   0.0      17.353208598569879      60.971943575725064       11.59565347809222
    37   2  -0.0      21.044221193483622      60.981172694905553                      10
    38   2  -0.0      21.036869877992388      60.976728123944525      13.184090000135628
    39   2  -0.0      21.044221193483622       64.16721820265208                      10
    40   2  -0.0      21.036869877992388      64.162773631691053      13.184090000135628
    41   2  -0.0      23.785017935615031      49.825430158004117       10.00367304007675
    42   2  -0.0      23.789698073301551      49.821496797975094      13.187507035345014
    43   1   0.0      25.628161486729681      49.822482634332793      11.592205356805177
    44   2  -0.0      26.562656132479816      48.236990663919421                      10
    45   2  -0.0      26.555304816988567      48.232546092958387      13.184090000135628
    46   2  -0.0      23.785017935615031      53.011475665750652       10.00367304007675
    47   2  -0.0      23.789698073301551      53.007542305721628      13.187507035345014
    48   1   0.0      25.628161486729681      53.008528142079328      11.592205356805177
    49   1   0.0      22.871643537566058      51.413807052485467       11.59565347809222
    50   2  -0.0      26.562656132479816      51.423036171665956                      10
    51   2  -0.0      26.555304816988567      51.418591600704922      13.184090000135628
    52   2  -0.0      23.785017935615031      56.197521173497179       10.00367304007675
    53   2  -0.0      23.789698073301551      56.193587813468156      13.187507035345014
    54   1   0.0      25.628161486729681      56.194573649825855      11.592205356805177
    55   1   0.0      22.871643537566058      54.599852560231994       11.59565347809222
    56   2  -0.0      26.562656132479816      54.609081679412483                      10
    57   2  -0.0      26.555304816988567      54.604637108451456      13.184090000135628
    58   2  -0.0      23.785017935615031      59.383566681243721       10.00367304007675
    59   2  -0.0      23.789698073301551      59.379633321214698      13.187507035345014
    60   1   0.0      25.628161486729681      59.380619157572397      11.592205356805177
    61   1   0.0      22.871643537566058      57.785898067978536       11.59565347809222
    62   2  -0.0      26.562656132479816      57.795127187159025                      10
    63   2  -0.0      26.555304816988567      57.790682616197998      13.184090000135628
    64   2  -0.0      23.785017935615031      62.569612188990249       10.00367304007675
    65   2  -0.0      23.789698073301551      62.565678828961225      13.187507035345014
    66   1   0.0      25.628161486729681      62.566664665318925      11.592205356805177
    67   1   0.0      22.871643537566058      60.971943575725064       11.59565347809222
    68   2  -0.0      26.562656132479816      60.981172694905553                      10
    69   2  -0.0      26.555304816988567      60.976728123944525      13.184090000135628
    70   2  -0.0      23.785017935615031      65.755657696736776       10.00367304007675
    71   2  -0.0      23.789698073301551      65.751724336707753      13.187507035345014
    72   1   0.0      25.628161486729681      65.752710173065452      11.592205356805177
    73   1   0.0      22.871643537566058      64.157989083471591       11.59565347809222
    74   2  -0.0      26.562656132479816       64.16721820265208                      10
    75   2  -0.0      26.555304816988567      64.162773631691053      13.184090000135628
    76   2  -0.0      26.562656132479816      67.353263710398622                      10
    77   2  -0.0      26.555304816988567      67.348819139437595      13.184090000135628
    78   2  -0.0      29.303452874611224      46.639384650257583       10.00367304007675
    79   2  -0.0      29.308133012297745      46.635451290228559      13.187507035345014
    80   1   0.0      31.146596425725875      46.636437126586259      11.592205356805177
    81   2  -0.0       32.08109107147601      45.050945156172887                      10
    82   2  -0.0      32.073739755984761      45.046500585211852      13.184090000135628
    83   2  -0.0      29.303452874611224      49.825430158004117       10.00367304007675
    84   2  -0.0      29.308133012297745      49.821496797975094      13.187507035345014
    85   1   0.0      31.146596425725875      49.822482634332793      11.592205356805177
    86   1   0.0      28.390078476562252      48.227761544738932       11.59565347809222
    87   2  -0.0       32.08109107147601      48.236990663919421                      10
    88   2  -0.0      32.073739755984761      48.232546092958387      13.184090000135628
    89   2  -0.0      29.303452874611224      53.011475665750652       10.00367304007675
    90   2  -0.0      29.308133012297745      53.007542305721628      13.187507035345014
    91   1   0.0      31.146596425725875      53.008528142079328      11.592205356805177
    92   1   0.0      28.390078476562252      51.413807052485467       11.59565347809222
    93   2  -0.0       32.08109107147601      51.423036171665956                      10
    94   2  -0.0      32.073739755984761      51.418591600704922      13.184090000135628
    95   2  -0.0      29.303452874611224      56.197521173497179       10.00367304007675
    96   2  -0.0      29.308133012297745      56.193587813468156      13.187507035345014
    97   1   0.0      31.146596425725875      56.194573649825855      11.592205356805177
    98   1   0.0      28.390078476562252      54.599852560231994       11.59565347809222
    99   2  -0.0       32.08109107147601      54.609081679412483                      10
   100   2  -0.0      32.073739755984761      54.604637108451456      13.184090000135628
   101   2  -0.0      29.303452874611224      59.383566681243721       10.00367304007675
   102   2  -0.0      29.308133012297745      59.379633321214698      13.187507035345014
   103   1   0.0      31.146596425725875      59.380619157572397      11.592205356805177
   104   1   0.0      28.390078476562252      57.785898067978536       11.59565347809222
   105   2  -0.0       32.08109107147601      57.795127187159025                      10
   106   2  -0.0      32.073739755984761      57.790682616197998      13.184090000135628
   107   2  -0.0      29.303452874611224      62.569612188990249       10.00367304007675
   108   2  -0.0      29.308133012297745      62.565678828961225      13.187507035345014
   109   1   0.0      31.146596425725875      62.566664665318925      11.592205356805177
   110   1   0.0      28.390078476562252      60.971943575725064       11.59565347809222
   111   2  -0.0       32.08109107147601      60.981172694905553                      10
   112   2  -0.0      32.073739755984761      60.976728123944525      13.184090000135628
   113   2  -0.0      29.303452874611224      65.755657696736776       10.00367304007675
   114   2  -0.0      29.308133012297745      65.751724336707753      13.187507035345014
   115   1   0.0      31.146596425725875      65.752710173065452      11.592205356805177
   116   1   0.0      28.390078476562252      64.157989083471591       11.59565347809222
   117   2  -0.0       32.08109107147601       64.16721820265208                      10
   118   2  -0.0      32.073739755984761      64.162773631691053      13.184090000135628
   119   2  -0.0      29.303452874611224      68.941703204483318       10.00367304007675
   120   2  -0.0      29.308133012297745      68.937769844454294      13.187507035345014
   121   1   0.0      31.146596425725875      68.938755680811994      11.592205356805177
   122   1   0.0      28.390078476562252      67.344034591218133       11.59565347809222
   123   2  -0.0       32.08109107147601      67.353263710398622                      10
   124   2  -0.0      32.073739755984761      67.348819139437595      13.184090000135628
   125   2  -0.0       32.08109107147601      70.539309218145149                      10
   126   2  -0.0      32.073739755984761      70.534864647184122      13.184090000135628
   127   2  -0.0      34.821887813607418      43.453339142511055       10.00367304007675
   128   2  -0.0      34.826567951293939      43.449405782482032      13.187507035345014
   129   1   0.0      36.665031364722068      43.450391618839731      11.592205356805177
   130   2  -0.0      37.599526010472204      41.864899648426359                      10
   131   2  -0.0      37.592174694980955      41.860455077465325      13.184090000135628
   132   2  -0.0      34.821887813607418      46.639384650257583       10.00367304007675
   133   2  -0.0      34.826567951293939      46.635451290228559      13.187507035345014
   134   1   0.0      36.665031364722068      46.636437126586259      11.592205356805177
   135   1   0.0      33.908513415558446      45.041716036992398       11.59565347809222
   136   2  -0.0      37.599526010472204      45.050945156172887                      10
   137   2  -0.0      37.592174694980955      45.046500585211852      13.184090000135628
   138   2  -0.0      34.821887813607418      49.825430158004117       10.00367304007675
   139   2  -0.0      34.826567951293939      49.821496797975094      13.187507035345014
   140   1   0.0      36.665031364722068      49.822482634332793      11.592205356805177
   141   1   0.0      33.908513415558446      48.227761544738932       11.59565347809222
   142   2  -0.0      37.599526010472204      48.236990663919421                      10
   143   2  -0.0      37.592174694980955      48.232546092958387      13.184090000135628
   144   2  -0.0      34.821887813607418      53.011475665750652       10.00367304007675
   145   2  -0.0      34.826567951293939      53.007542305721628      13.187507035345014
   146   1   0.0      36.665031364722068      53.008528142079328      11.592205356805177
   147   1   0.0      33.908513415558446      51.413807052485467       11.59565347809222
   148   2  -0.0      37.599526010472204      51.423036171665956                      10
   149   2  -0.0      37.592174694980955      51.418591600704922      13.184090000135628
   150   2  -0.0      34.821887813607418      56.197521173497179       10.00367304007675
   151   2  -0.0      34.826567951293939      56.193587813468156      13.187507035345014
   152   1   0.0      36.665031364722068      56.194573649825855      11.592205356805177
   153   1   0.0      33.908513415558446      54.599852560231994       11.59565347809222
   154   2  -0.0      37.599526010472204      54.609081679412483                      10
   155   2  -0.0      37.592174694980955      54.604637108451456      13.184090000135628
   156   2  -0.0      34.821887813607418      59.383566681243721       10.00367304007675
   157   2  -0.0      34.826567951293939      59.379633321214698      13.187507035345014
   158   1   0.0      36.665031364722068      59.380619157572397      11.592205356805177
   159   1   0.0      33.908513415558446      57.785898067978536       11.59565347809222
   160   2  -0.0      37.599526010472204      57.795127187159025                      10
   161   2  -0.0      37.592174694980955      57.790682616197998      13.184090000135628
   162   2  -0.0      34.821887813607418      62.569612188990249       10.00367304007675
   163   2  -0.0      34.826567951293939      62.565678828961225      13.187507035345014
   164   1   0.0      36.665031364722068      62.566664665318925      11.592205356805177
   165   1   0.0      33.908513415558446      60.971943575725064       11.59565347809222
   166   2  -0.0      37.599526010472204      60.981172694905553                      10
   167   2  -0.0      37.592174694980955      60.976728123944525      13.184090000135628
   168   2  -0.0      34.821887813607418      65.755657696736776       10.00367304007675
   169   2  -0.0      34.826567951293939      65.751724336707753      13.187507035345014
   170   1   0.0      36.665031364722068      65.752710173065452      11.592205356805177
   171   1   0.0      33.908513415558446      64.157989083471591       11.59565347809222
   172   2  -0.0      37.599526010472204       64.16721820265208                      10
   173   2  -0.0      37.592174694980955      64.162773631691053      13.184090000135628
   174   2  -0.0      34.821887813607418      68.941703204483318       10.00367304007675
   175   2  -0.0      34.826567951293939      68.937769844454294      13.187507035345014
   176   1   0.0      36.665031364722068      68.938755680811994      11.592205356805177
   177   1   0.0      33.908513415558446      67.344034591218133       11.59565347809222
   178   2  -0.0      37.599526010472204      67.353263710398622                      10
   179   2  -0.0      37.592174694980955      67.348819139437595      13.184090000135628
   180   2  -0.0      34.821887813607418      72.127748712229845       10.00367304007675
   181   2  -0.0      34.826567951293939      72.123815352200822      13.187507035345014
   182   1   0.0      36.665031364722068      72.124801188558521      11.592205356805177
   183   1   0.0      33.908513415558446       70.53008009896466       11.59565347809222
   184   2  -0.0      37.599526010472204      70.539309218145149                      10
   185   2  -0.0      37.592174694980955      70.534864647184122      13.184090000135628
   186   2  -0.0      37.599526010472204      73.725354725891677                      10
   187   2  -0.0      37.592174694980955       73.72091015493065      13.184090000135628
   188   2  -0.0      40.340322752603612      40.267293634764521       10.00367304007675
   189   2  -0.0      40.345002890290132      40.263360274735497      13.187507035345014
   190   1   0.0      42.183466303718262      40.264346111093197      11.592205356805177
   191   2  -0.0      43.117960949468397      38.678854140679825                      10
   192   2  -0.0      43.110609633977148       38.67440956971879      13.184090000135628
   193   2  -0.0      40.340322752603612      43.453339142511055       10.00367304007675
   194   2  -0.0      40.345002890290132      43.449405782482032      13.187507035345014
   195   1   0.0      42.183466303718262      43.450391618839731      11.592205356805177
   196   1   0.0      39.426948354554639       41.85567052924587       11.59565347809222
   197   2  -0.0      43.117960949468397      41.864899648426359                      10
   198   2  -0.0      43.110609633977148      41.860455077465325      13.184090000135628
   199   2  -0.0      40.340322752603612      46.639384650257583       10.00367304007675
   200   2  -0.0      40.345002890290132      46.635451290228559      13.187507035345014
   201   1   0.0      42.183466303718262      46.636437126586259      11.592205356805177
   202   1   0.0      39.426948354554639      45.041716036992398       11.59565347809222
   203   2  -0.0      43.117960949468397      45.050945156172887                      10
   204   2  -0.0      43.110609633977148      45.046500585211852      13.184090000135628
   205   2  -0.0      40.340322752603612      49.825430158004117       10.00367304007675
   206   2  -0.0      40.345002890290132      49.821496797975094      13.187507035345014
   207   1   0.0      42.183466303718262      49.822482634332793      11.592205356805177
   208   1   0.0      39.426948354554639      48.227761544738932       11.59565347809222
   209   2  -0.0      43.117960949468397      48.236990663919421                      10
   210   2  -0.0      43.110609633977148      48.232546092958387      13.184090000135628
   211   2  -0.0      40.340322752603612      53.011475665750652       10.00367304007675
   212   2  -0.0      40.345002890290132      53.007542305721628      13.187507035345014
   213   1   0.0      42.183466303718262      53.008528142079328      11.592205356805177
   214   1   0.0      39.426948354554639      51.413807052485467       11.59565347809222
   215   2  -0.0      43.117960949468397      51.423036171665956                      10
   216   2  -0.0      43.110609633977148      51.418591600704922      13.184090000135628
   217   2  -0.0      40.340322752603612      56.197521173497179       10.00367304007675
   218   2  -0.0      40.345002890290132      56.193587813468156      13.187507035345014
   219   1   0.0      42.183466303718262      56.194573649825855      11.592205356805177
   220   1   0.0      39.426948354554639      54.599852560231994       11.59565347809222
   221   2  -0.0      43.117960949468397      54.609081679412483                      10
   222   2  -0.0      43.110609633977148      54.604637108451456      13.184090000135628
   223   2  -0.0      40.340322752603612      59.383566681243721       10.00367304007675
   224   2  -0.0      40.345002890290132      59.379633321214698      13.187507035345014
   225   1   0.0      42.183466303718262      59.380619157572397      11.592205356805177
   226   1   0.0      39.426948354554639      57.785898067978536       11.59565347809222
   227   2  -0.0      43.117960949468397      57.795127187159025                      10
   228   2  -0.0      43.110609633977148      57.790682616197998      13.184090000135628
   229   2  -0.0      40.340322752603612      62.569612188990249       10.00367304007675
   230   2  -0.0      40.345002890290132      62.565678828961225      13.187507035345014
   231   1   0.0      42.183466303718262      62.566664665318925      11.592205356805177
   232   1   0.0      39.426948354554639      60.971943575725064       11.59565347809222
   233   2  -0.0      43.117960949468397      60.981172694905553                      10
   234   2  -0.0      43.110609633977148      60.976728123944525      13.184090000135628
   235   2  -0.0      40.340322752603612      65.755657696736776       10.00367304007675
   236   2  -0.0      40.345002890290132      65.751724336707753      13.187507035345014
   237   1   0.0      42.183466303718262      65.752710173065452      11.592205356805177
   238   1   0.0      39.426948354554639      64.157989083471591       11.59565347809222
   239   2  -0.0      43.117960949468397       64.16721820265208                      10
   240   2  -0.0      43.110609633977148      64.162773631691053      13.184090000135628
   241   2  -0.0      40.340322752603612      68.941703204483318       10.00367304007675
   242   2  -0.0      40.345002890290132      68.937769844454294      13.187507035345014
   243   1   0.0      42.183466303718262      68.938755680811994      11.592205356805177
   244   1   0.0      39.426948354554639      67.344034591218133       11.59565347809222
   245   2  -0.0      43.117960949468397      67.353263710398622                      10
   246   2  -0.0      43.110609633977148      67.348819139437595      13.184090000135628
   247   2  -0.0      40.340322752603612      72.127748712229845       10.00367304007675
   248   2  -0.0      40.345002890290132      72.123815352200822      13.187507035345014
   249   1   0.0      42.183466303718262      72.124801188558521      11.592205356805177
   250   1   0.0      39.426948354554639       70.53008009896466       11.59565347809222
   251   2  -0.0      43.117960949468397      70.539309218145149                      10
   252   2  -0.0      43.110609633977148      70.534864647184122      13.184090000135628
   253   2  -0.0      40.340322752603612      75.313794219976373       10.00367304007675
   254   2  -0.0      40.345002890290132      75.309860859947349      13.187507035345014
   255   1   0.0      42.183466303718262      75.310846696305049      11.592205356805177
   256   1   0.0      39.426948354554639      73.716125606711188       11.59565347809222
   257   2  -0.0      43.117960949468397      73.725354725891677                      10
   258   2  -0.0      43.110609633977148       73.72091015493065      13.184090000135628
   259   2  -0.0      43.117960949468397      76.911400233638219                      10
   260   2  -0.0      43.110609633977148      76.906955662677191      13.184090000135628
   261   2  -0.0      45.858757691599806      37.081248127017986       10.00367304007675
   262   2  -0.0      45.863437829286326      37.077314766988962      13.187507035345014
   263   1   0.0      47.701901242714456      37.078300603346662      11.592205356805177
   264   2  -0.0      48.636395888464591       35.49280863293329                      10
   265   2  -0.0      48.629044572973342      35.488364061972256      13.184090000135628
   266   2  -0.0      45.858757691599806      40.267293634764521       10.00367304007675
   267   2  -0.0      45.863437829286326      40.263360274735497      13.187507035345014
   268   1   0.0      47.701901242714456      40.264346111093197      11.592205356805177
   269   1   0.0      44.945383293550833      38.669625021499336       11.59565347809222
   270   2  -0.0      48.636395888464591      38.678854140679825                      10
   271   2  -0.0      48.629044572973342       38.67440956971879      13.184090000135628
   272   2  -0.0      45.858757691599806      43.453339142511055       10.00367304007675
   273   2  -0.0      45.863437829286326      43.449405782482032      13.187507035345014
   274   1   0.0      47.701901242714456      43.450391618839731      11.592205356805177
   275   1   0.0      44.945383293550833       41.85567052924587       11.59565347809222
   276   2  -0.0      48.636395888464591      41.864899648426359                      10
   277   2  -0.0      48.629044572973342      41.860455077465325      13.184090000135628
   278   2  -0.0      45.858757691599806      46.639384650257583       10.00367304007675
   279   2  -0.0      45.863437829286326      46.635451290228559      13.187507035345014
   280   1   0.0      47.701901242714456      46.636437126586259      11.592205356805177
   281   1   0.0      44.945383293550833      45.041716036992398       11.59565347809222
   282   2  -0.0      48.636395888464591      45.050945156172887                      10
   283   2  -0.0      48.629044572973342      45.046500585211852      13.184090000135628
   284   2  -0.0      45.858757691599806      49.825430158004117       10.00367304007675
   285   2  -0.0      45.863437829286326      49.821496797975094      13.187507035345014
   286   1   0.0      47.701901242714456      49.822482634332793      11.592205356805177
   287   1   0.0      44.945383293550833      48.227761544738932       11.59565347809222
   288   2  -0.0      48.636395888464591      48.236990663919421                      10
   289   2  -0.0      48.629044572973342      48.232546092958387      13.184090000135628
   290   2  -0.0      45.858757691599806      53.011475665750652       10.00367304007675
   291   2  -0.0      45.863437829286326      53.007542305721628      13.187507035345014
   292   1   0.0      47.701901242714456      53.008528142079328      11.592205356805177
   293   1   0.0      44.945383293550833      51.413807052485467       11.59565347809222
   294   2  -0.0      48.636395888464591      51.423036171665956                      10
   295   2  -0.0      48.629044572973342      51.418591600704922      13.184090000135628
   296   2  -0.0      45.858757691599806      56.197521173497179       10.00367304007675
   297   2  -0.0      45.863437829286326      56.193587813468156      13.187507035345014
   298   1   0.0      47.701901242714456      56.194573649825855      11.592205356805177
   299   1   0.0      44.945383293550833      54.599852560231994       11.59565347809222
   300   2  -0.0      48.636395888464591      54.609081679412483                      10
   301   2  -0.0      48.629044572973342      54.604637108451456      13.184090000135628
   302   2  -0.0      45.858757691599806      59.383566681243721       10.00367304007675
   303   2  -0.0      45.863437829286326      59.379633321214698      13.187507035345014
   304   1   0.0      47.701901242714456      59.380619157572397      11.592205356805177
   305   1   0.0      44.945383293550833      57.785898067978536       11.59565347809222
   306   2  -0.0      48.636395888464591      57.795127187159025                      10
   307   2  -0.0      48.629044572973342      57.790682616197998      13.184090000135628
   308   2  -0.0      45.858757691599806      62.569612188990249       10.00367304007675
   309   2  -0.0      45.863437829286326      62.565678828961225      13.187507035345014
   310   1   0.0      47.701901242714456      62.566664665318925      11.592205356805177
   311   1   0.0      44.945383293550833      60.971943575725064       11.59565347809222
   312   2  -0.0      48.636395888464591      60.981172694905553                      10
   313   2  -0.0      48.629044572973342      60.976728123944525      13.184090000135628
   314   2  -0.0      45.858757691599806      65.755657696736776       10.00367304007675
   315   2  -0.0      45.863437829286326      65.751724336707753      13.187507035345014
   316   1   0.0      47.701901242714456      65.752710173065452      11.592205356805177
   317   1   0.0      44.945383293550833      64.157989083471591       11.59565347809222
   318   2  -0.0      48.636395888464591       64.16721820265208                      10
   319   2  -0.0      48.629044572973342      64.162773631691053      13.184090000135628
   320   2  -0.0      45.858757691599806      68.941703204483318       10.00367304007675
   321   2  -0.0      45.863437829286326      68.937769844454294      13.187507035345014
   322   1   0.0      47.701901242714456      68.938755680811994      11.592205356805177
   323   1   0.0      44.945383293550833      67.344034591218133       11.59565347809222
   324   2  -0.0      48.636395888464591      67.353263710398622                      10
   325   2  -0.0      48.629044572973342      67.348819139437595      13.184090000135628
   326   2  -0.0      45.858757691599806      72.127748712229845       10.00367304007675
   327   2  -0.0      45.863437829286326      72.123815352200822      13.187507035345014
   328   1   0.0      47.701901242714456      72.124801188558521      11.592205356805177
   329   1   0.0      44.945383293550833       70.53008009896466       11.59565347809222
   330   2  -0.0      48.636395888464591      70.539309218145149                      10
   331   2  -0.0      48.629044572973342      70.534864647184122      13.184090000135628
   332   2  -0.0      45.858757691599806      75.313794219976373       10.00367304007675
   333   2  -0.0      45.863437829286326      75.309860859947349      13.187507035345014
   334   1   0.0      47.701901242714456      75.310846696305049      11.592205356805177
   335   1   0.0      44.945383293550833      73.716125606711188       11.59565347809222