Pristine 2H-MoS2 plus 0% Hydrogen

11488 	 atoms 
2  atom types
0.0      187.62678792587053  xlo xhi
0.0      191.16273046479193  ylo yhi
0.0                      20  zlo zhi


Atoms 

     1   2  -0.0      1.0829378422378999      1.6416449401505862      8.4066210583906056
     2   2  -0.0      1.0876179799244117      1.6377115801215589       11.59045505365887
     3   1   0.0       2.926081393352542      1.6386974164792638      9.9951533751190329
     4   1   0.0      0.1695634441889278    0.043976326885396169      9.9986014964060761
     5   2  -0.0       3.860576039102682    0.053205446065888055      8.4029480183138556
     6   2  -0.0       3.853224723611433    0.048760875104855446      11.587038018449483
     7   2  -0.0      1.0829378422378999       4.827690447897119      8.4066210583906056
     8   2  -0.0      1.0876179799244117      4.8237570878680911       11.59045505365887
     9   1   0.0       2.926081393352542       4.824742924225796      9.9951533751190329
    10   1   0.0      0.1695634441889278      3.2300218346319287      9.9986014964060761
    11   2  -0.0       3.860576039102682      3.2392509538124203      8.4029480183138556
    12   2  -0.0       3.853224723611433      3.2348063828513878      11.587038018449483
    13   1   0.0       2.926081393352542      8.0107884319723279      9.9951533751190329
    14   2  -0.0       3.860576039102682      6.4252964615589532      8.4029480183138556
    15   2  -0.0       3.853224723611433      6.4208518905979206      11.587038018449483
    16   2  -0.0       3.860576039102682      9.6113419693054851      8.4029480183138556
    17   2  -0.0       3.853224723611433      9.6068973983444526      11.587038018449483
    18   2  -0.0      1.0829378422378999       17.57187247888325      8.4066210583906056
    19   2  -0.0      1.0876179799244117       17.56793911885422       11.59045505365887
    20   1   0.0      0.1695634441889278      15.974203865618058      9.9986014964060761
    21   2  -0.0      1.0829378422378999      20.757917986629778      8.4066210583906056
    22   2  -0.0      1.0876179799244117      20.753984626600751       11.59045505365887
    23   1   0.0       2.926081393352542      20.754970462958457      9.9951533751190329
    24   1   0.0      0.1695634441889278      19.160249373364589      9.9986014964060761
    25   2  -0.0      1.0829378422378999      23.943963494376312      8.4066210583906056
    26   2  -0.0      1.0876179799244117      23.940030134347285       11.59045505365887
    27   1   0.0       2.926081393352542      23.941015970704992      9.9951533751190329
    28   1   0.0      0.1695634441889278      22.346294881111124      9.9986014964060761
    29   2  -0.0       3.860576039102682      22.355524000291616      8.4029480183138556
    30   2  -0.0       3.853224723611433      22.351079429330582      11.587038018449483
    31   2  -0.0      1.0829378422378999      27.130009002122847      8.4066210583906056
    32   2  -0.0      1.0876179799244117      27.126075642093816       11.59045505365887
    33   1   0.0       2.926081393352542      27.127061478451523      9.9951533751190329
    34   1   0.0      0.1695634441889278      25.532340388857655      9.9986014964060761
    35   2  -0.0       3.860576039102682      25.541569508038148      8.4029480183138556
    36   2  -0.0       3.853224723611433      25.537124937077113      11.587038018449483
    37   2  -0.0      1.0829378422378999      30.316054509869375      8.4066210583906056
    38   2  -0.0      1.0876179799244117      30.312121149840348       11.59045505365887
    39   1   0.0       2.926081393352542      30.313106986198054      9.9951533751190329
    40   1   0.0      0.1695634441889278      28.718385896604186      9.9986014964060761
    41   2  -0.0       3.860576039102682      28.727615015784679      8.4029480183138556
    42   2  -0.0       3.853224723611433      28.723170444823644      11.587038018449483
    43   2  -0.0      1.0829378422378999      33.502100017615909      8.4066210583906056
    44   2  -0.0      1.0876179799244117      33.498166657586886       11.59045505365887
    45   1   0.0       2.926081393352542      33.499152493944585      9.9951533751190329
    46   1   0.0      0.1695634441889278      31.904431404350721      9.9986014964060761
    47   2  -0.0       3.860576039102682      31.913660523531213      8.4029480183138556
    48   2  -0.0       3.853224723611433      31.909215952570179      11.587038018449483
    49   2  -0.0      1.0829378422378999      36.688145525362444      8.4066210583906056
    50   2  -0.0      1.0876179799244117       36.68421216533342       11.59045505365887
    51   1   0.0       2.926081393352542       36.68519800169112      9.9951533751190329
    52   1   0.0      0.1695634441889278      35.090476912097259      9.9986014964060761
    53   2  -0.0       3.860576039102682      35.099706031277748      8.4029480183138556
    54   2  -0.0       3.853224723611433      35.095261460316713      11.587038018449483
    55   2  -0.0      1.0829378422378999      39.874191033108971      8.4066210583906056
    56   2  -0.0      1.0876179799244117      39.870257673079948       11.59045505365887
    57   1   0.0       2.926081393352542      39.871243509437647      9.9951533751190329
    58   1   0.0      0.1695634441889278      38.276522419843786      9.9986014964060761
    59   2  -0.0       3.860576039102682      38.285751539024275      8.4029480183138556
    60   2  -0.0       3.853224723611433      38.281306968063241      11.587038018449483
    61   2  -0.0      1.0829378422378999      43.060236540855506      8.4066210583906056
    62   2  -0.0      1.0876179799244117      43.056303180826482       11.59045505365887
    63   1   0.0       2.926081393352542      43.057289017184182      9.9951533751190329
    64   1   0.0      0.1695634441889278      41.462567927590321      9.9986014964060761
    65   2  -0.0       3.860576039102682       41.47179704677081      8.4029480183138556
    66   2  -0.0       3.853224723611433      41.467352475809776      11.587038018449483
    67   2  -0.0      1.0829378422378999      46.246282048602041      8.4066210583906056
    68   2  -0.0      1.0876179799244117      46.242348688573017       11.59045505365887
    69   1   0.0       2.926081393352542      46.243334524930717      9.9951533751190329
    70   1   0.0      0.1695634441889278      44.648613435336856      9.9986014964060761
    71   2  -0.0       3.860576039102682      44.657842554517345      8.4029480183138556
    72   2  -0.0       3.853224723611433       44.65339798355631      11.587038018449483
    73   2  -0.0      1.0829378422378999      49.432327556348568      8.4066210583906056
    74   2  -0.0      1.0876179799244117      49.428394196319545       11.59045505365887
    75   1   0.0       2.926081393352542      49.429380032677244      9.9951533751190329
    76   1   0.0      0.1695634441889278      47.834658943083383      9.9986014964060761
    77   2  -0.0       3.860576039102682      47.843888062263872      8.4029480183138556
    78   2  -0.0       3.853224723611433      47.839443491302838      11.587038018449483
    79   2  -0.0      1.0829378422378999      52.618373064095103      8.4066210583906056
    80   2  -0.0      1.0876179799244117      52.614439704066079       11.59045505365887
    81   1   0.0       2.926081393352542      52.615425540423779      9.9951533751190329
    82   1   0.0      0.1695634441889278      51.020704450829918      9.9986014964060761
    83   2  -0.0       3.860576039102682      51.029933570010407      8.4029480183138556
    84   2  -0.0       3.853224723611433      51.025488999049372      11.587038018449483
    85   2  -0.0      1.0829378422378999      55.804418571841637      8.4066210583906056
    86   2  -0.0      1.0876179799244117      55.800485211812614       11.59045505365887
    87   1   0.0       2.926081393352542      55.801471048170313      9.9951533751190329
    88   1   0.0      0.1695634441889278      54.206749958576452      9.9986014964060761
    89   2  -0.0       3.860576039102682      54.215979077756941      8.4029480183138556
    90   2  -0.0       3.853224723611433      54.211534506795907      11.587038018449483
    91   2  -0.0      1.0829378422378999      58.990464079588165      8.4066210583906056
    92   2  -0.0      1.0876179799244117      58.986530719559141       11.59045505365887
    93   1   0.0       2.926081393352542      58.987516555916841      9.9951533751190329
    94   1   0.0      0.1695634441889278       57.39279546632298      9.9986014964060761
    95   2  -0.0       3.860576039102682      57.402024585503469      8.4029480183138556
    96   2  -0.0       3.853224723611433      57.397580014542434      11.587038018449483
    97   2  -0.0      1.0829378422378999      62.176509587334699      8.4066210583906056
    98   2  -0.0      1.0876179799244117      62.172576227305676       11.59045505365887
    99   1   0.0       2.926081393352542      62.173562063663375      9.9951533751190329
   100   1   0.0      0.1695634441889278      60.578840974069514      9.9986014964060761
   101   2  -0.0       3.860576039102682      60.588070093250003      8.4029480183138556
   102   2  -0.0       3.853224723611433      60.583625522288969      11.587038018449483
   103   2  -0.0      1.0829378422378999      65.362555095081234      8.4066210583906056
   104   2  -0.0      1.0876179799244117      65.358621735052211       11.59045505365887
   105   1   0.0       2.926081393352542       65.35960757140991      9.9951533751190329
   106   1   0.0      0.1695634441889278      63.764886481816049      9.9986014964060761
   107   2  -0.0       3.860576039102682      63.774115600996538      8.4029480183138556
   108   2  -0.0       3.853224723611433      63.769671030035504      11.587038018449483
   109   2  -0.0      1.0829378422378999      68.548600602827761      8.4066210583906056
   110   2  -0.0      1.0876179799244117      68.544667242798738       11.59045505365887
   111   1   0.0       2.926081393352542      68.545653079156438      9.9951533751190329
   112   1   0.0      0.1695634441889278      66.950931989562577      9.9986014964060761
   113   2  -0.0       3.860576039102682      66.960161108743065      8.4029480183138556
   114   2  -0.0       3.853224723611433      66.955716537782038      11.587038018449483
   115   2  -0.0      1.0829378422378999      71.734646110574303      8.4066210583906056
   116   2  -0.0      1.0876179799244117       71.73071275054528       11.59045505365887
   117   1   0.0       2.926081393352542      71.731698586902979      9.9951533751190329
   118   1   0.0      0.1695634441889278      70.136977497309118      9.9986014964060761
   119   2  -0.0       3.860576039102682      70.146206616489607      8.4029480183138556
   120   2  -0.0       3.853224723611433       70.14176204552858      11.587038018449483
   121   2  -0.0      1.0829378422378999      74.920691618320831      8.4066210583906056
   122   2  -0.0      1.0876179799244117      74.916758258291807       11.59045505365887
   123   1   0.0       2.926081393352542      74.917744094649507      9.9951533751190329
   124   1   0.0      0.1695634441889278      73.323023005055646      9.9986014964060761
   125   2  -0.0       3.860576039102682      73.332252124236135      8.4029480183138556
   126   2  -0.0       3.853224723611433      73.327807553275107      11.587038018449483
   127   2  -0.0      1.0829378422378999      78.106737126067358      8.4066210583906056
   128   2  -0.0      1.0876179799244117      78.102803766038335       11.59045505365887
   129   1   0.0       2.926081393352542      78.103789602396034      9.9951533751190329
   130   1   0.0      0.1695634441889278      76.509068512802173      9.9986014964060761
   131   2  -0.0       3.860576039102682      76.518297631982662      8.4029480183138556
   132   2  -0.0       3.853224723611433      76.513853061021635      11.587038018449483
   133   2  -0.0      1.0829378422378999        81.2927826338139      8.4066210583906056
   134   2  -0.0      1.0876179799244117      81.288849273784876       11.59045505365887
   135   1   0.0       2.926081393352542      81.289835110142576      9.9951533751190329
   136   1   0.0      0.1695634441889278      79.695114020548715      9.9986014964060761
   137   2  -0.0       3.860576039102682      79.704343139729204      8.4029480183138556
   138   2  -0.0       3.853224723611433      79.699898568768177      11.587038018449483
   139   2  -0.0      1.0829378422378999      84.478828141560427      8.4066210583906056
   140   2  -0.0      1.0876179799244117      84.474894781531404       11.59045505365887
   141   1   0.0       2.926081393352542      84.475880617889104      9.9951533751190329
   142   1   0.0      0.1695634441889278      82.881159528295242      9.9986014964060761
   143   2  -0.0       3.860576039102682      82.890388647475731      8.4029480183138556
   144   2  -0.0       3.853224723611433      82.885944076514704      11.587038018449483
   145   2  -0.0      1.0829378422378999      87.664873649306955      8.4066210583906056
   146   2  -0.0      1.0876179799244117      87.660940289277931       11.59045505365887
   147   1   0.0       2.926081393352542      87.661926125635631      9.9951533751190329
   148   1   0.0      0.1695634441889278       86.06720503604177      9.9986014964060761
   149   2  -0.0       3.860576039102682      86.076434155222259      8.4029480183138556
   150   2  -0.0       3.853224723611433      86.071989584261232      11.587038018449483
   151   2  -0.0      1.0829378422378999      90.850919157053497      8.4066210583906056
   152   2  -0.0      1.0876179799244117      90.846985797024473       11.59045505365887
   153   1   0.0       2.926081393352542      90.847971633382173      9.9951533751190329
   154   1   0.0      0.1695634441889278      89.253250543788312      9.9986014964060761
   155   2  -0.0       3.860576039102682      89.262479662968801      8.4029480183138556
   156   2  -0.0       3.853224723611433      89.258035092007773      11.587038018449483
   157   2  -0.0      1.0829378422378999      94.036964664800024      8.4066210583906056
   158   2  -0.0      1.0876179799244117      94.033031304771001       11.59045505365887
   159   1   0.0       2.926081393352542        94.0340171411287      9.9951533751190329
   160   1   0.0      0.1695634441889278      92.439296051534839      9.9986014964060761
   161   2  -0.0       3.860576039102682      92.448525170715328      8.4029480183138556
   162   2  -0.0       3.853224723611433      92.444080599754301      11.587038018449483
   163   2  -0.0      1.0829378422378999      97.223010172546552      8.4066210583906056
   164   2  -0.0      1.0876179799244117      97.219076812517528       11.59045505365887
   165   1   0.0       2.926081393352542      97.220062648875228      9.9951533751190329
   166   1   0.0      0.1695634441889278      95.625341559281367      9.9986014964060761
   167   2  -0.0      1.0829378422378999      100.40905568029309      8.4066210583906056
   168   2  -0.0      1.0876179799244117      100.40512232026407       11.59045505365887
   169   1   0.0       2.926081393352542      100.40610815662177      9.9951533751190329
   170   1   0.0      0.1695634441889278      98.811387067027908      9.9986014964060761
   171   2  -0.0       3.860576039102682      98.820616186208397      8.4029480183138556
   172   2  -0.0       3.853224723611433       98.81617161524737      11.587038018449483
   173   2  -0.0      1.0829378422378999      103.59510118803962      8.4066210583906056
   174   2  -0.0      1.0876179799244117       103.5911678280106       11.59045505365887
   175   1   0.0       2.926081393352542       103.5921536643683      9.9951533751190329
   176   1   0.0      0.1695634441889278      101.99743257477444      9.9986014964060761
   177   2  -0.0       3.860576039102682      102.00666169395492      8.4029480183138556
   178   2  -0.0       3.853224723611433       102.0022171229939      11.587038018449483
   179   2  -0.0      1.0829378422378999      106.78114669578615      8.4066210583906056
   180   2  -0.0      1.0876179799244117      106.77721333575712       11.59045505365887
   181   1   0.0       2.926081393352542      106.77819917211482      9.9951533751190329
   182   1   0.0      0.1695634441889278      105.18347808252096      9.9986014964060761
   183   2  -0.0       3.860576039102682      105.19270720170145      8.4029480183138556
   184   2  -0.0       3.853224723611433      105.18826263074043      11.587038018449483
   185   2  -0.0      1.0829378422378999      109.96719220353269      8.4066210583906056
   186   2  -0.0      1.0876179799244117      109.96325884350367       11.59045505365887
   187   1   0.0       2.926081393352542      109.96424467986137      9.9951533751190329
   188   1   0.0      0.1695634441889278      108.36952359026751      9.9986014964060761
   189   2  -0.0       3.860576039102682      108.37875270944799      8.4029480183138556
   190   2  -0.0       3.853224723611433      108.37430813848697      11.587038018449483
   191   2  -0.0      1.0829378422378999      113.15323771127922      8.4066210583906056
   192   2  -0.0      1.0876179799244117      113.14930435125019       11.59045505365887
   193   1   0.0       2.926081393352542      113.15029018760789      9.9951533751190329
   194   1   0.0      0.1695634441889278      111.55556909801403      9.9986014964060761
   195   2  -0.0       3.860576039102682      111.56479821719452      8.4029480183138556
   196   2  -0.0       3.853224723611433      111.56035364623349      11.587038018449483
   197   2  -0.0      1.0829378422378999      116.33928321902575      8.4066210583906056
   198   2  -0.0      1.0876179799244117      116.33534985899672       11.59045505365887
   199   1   0.0       2.926081393352542      116.33633569535442      9.9951533751190329
   200   1   0.0      0.1695634441889278      114.74161460576056      9.9986014964060761
   201   2  -0.0       3.860576039102682      114.75084372494105      8.4029480183138556
   202   2  -0.0       3.853224723611433      114.74639915398002      11.587038018449483
   203   2  -0.0      1.0829378422378999      119.52532872677229      8.4066210583906056
   204   2  -0.0      1.0876179799244117      119.52139536674326       11.59045505365887
   205   1   0.0       2.926081393352542      119.52238120310096      9.9951533751190329
   206   1   0.0      0.1695634441889278       117.9276601135071      9.9986014964060761
   207   2  -0.0       3.860576039102682      117.93688923268759      8.4029480183138556
   208   2  -0.0       3.853224723611433      117.93244466172656      11.587038018449483
   209   2  -0.0      1.0829378422378999      122.71137423451881      8.4066210583906056
   210   2  -0.0      1.0876179799244117      122.70744087448979       11.59045505365887
   211   1   0.0       2.926081393352542      122.70842671084749      9.9951533751190329
   212   1   0.0      0.1695634441889278      121.11370562125363      9.9986014964060761
   213   2  -0.0       3.860576039102682      121.12293474043412      8.4029480183138556
   214   2  -0.0       3.853224723611433      121.11849016947309      11.587038018449483
   215   2  -0.0      1.0829378422378999      125.89741974226534      8.4066210583906056
   216   2  -0.0      1.0876179799244117      125.89348638223632       11.59045505365887
   217   1   0.0       2.926081393352542      125.89447221859402      9.9951533751190329
   218   1   0.0      0.1695634441889278      124.29975112900016      9.9986014964060761
   219   2  -0.0       3.860576039102682      124.30898024818065      8.4029480183138556
   220   2  -0.0       3.853224723611433      124.30453567721962      11.587038018449483
   221   2  -0.0      1.0829378422378999       129.0834652500119      8.4066210583906056
   222   2  -0.0      1.0876179799244117      129.07953188998286       11.59045505365887
   223   1   0.0       2.926081393352542      129.08051772634056      9.9951533751190329
   224   1   0.0      0.1695634441889278       127.4857966367467      9.9986014964060761
   225   2  -0.0       3.860576039102682      127.49502575592719      8.4029480183138556
   226   2  -0.0       3.853224723611433      127.49058118496616      11.587038018449483
   227   2  -0.0      1.0829378422378999      132.26951075775844      8.4066210583906056
   228   2  -0.0      1.0876179799244117       132.2655773977294       11.59045505365887
   229   1   0.0       2.926081393352542       132.2665632340871      9.9951533751190329
   230   1   0.0      0.1695634441889278      130.67184214449324      9.9986014964060761
   231   2  -0.0       3.860576039102682      130.68107126367372      8.4029480183138556
   232   2  -0.0       3.853224723611433      130.67662669271269      11.587038018449483
   233   2  -0.0      1.0829378422378999      135.45555626550495      8.4066210583906056
   234   2  -0.0      1.0876179799244117      135.45162290547592       11.59045505365887
   235   1   0.0       2.926081393352542      135.45260874183361      9.9951533751190329
   236   1   0.0      0.1695634441889278      133.85788765223975      9.9986014964060761
   237   2  -0.0       3.860576039102682      133.86711677142023      8.4029480183138556
   238   2  -0.0       3.853224723611433       133.8626722004592      11.587038018449483
   239   2  -0.0      1.0829378422378999      138.64160177325149      8.4066210583906056
   240   2  -0.0      1.0876179799244117      138.63766841322246       11.59045505365887
   241   1   0.0       2.926081393352542      138.63865424958016      9.9951533751190329
   242   1   0.0      0.1695634441889278       137.0439331599863      9.9986014964060761
   243   2  -0.0       3.860576039102682      137.05316227916677      8.4029480183138556
   244   2  -0.0       3.853224723611433      137.04871770820574      11.587038018449483
   245   2  -0.0      1.0829378422378999      141.82764728099804      8.4066210583906056
   246   2  -0.0      1.0876179799244117        141.823713920969       11.59045505365887
   247   1   0.0       2.926081393352542       141.8246997573267      9.9951533751190329
   248   1   0.0      0.1695634441889278      140.22997866773284      9.9986014964060761
   249   2  -0.0       3.860576039102682      140.23920778691331      8.4029480183138556
   250   2  -0.0       3.853224723611433      140.23476321595228      11.587038018449483
   251   2  -0.0      1.0829378422378999      145.01369278874455      8.4066210583906056
   252   2  -0.0      1.0876179799244117      145.00975942871551       11.59045505365887
   253   1   0.0       2.926081393352542      145.01074526507321      9.9951533751190329
   254   1   0.0      0.1695634441889278      143.41602417547935      9.9986014964060761
   255   2  -0.0       3.860576039102682      143.42525329465983      8.4029480183138556
   256   2  -0.0       3.853224723611433       143.4208087236988      11.587038018449483
   257   2  -0.0      1.0829378422378999      148.19973829649109      8.4066210583906056
   258   2  -0.0      1.0876179799244117      148.19580493646205       11.59045505365887
   259   1   0.0       2.926081393352542      148.19679077281975      9.9951533751190329
   260   1   0.0      0.1695634441889278      146.60206968322589      9.9986014964060761
   261   2  -0.0       3.860576039102682      146.61129880240637      8.4029480183138556
   262   2  -0.0       3.853224723611433      146.60685423144534      11.587038018449483
   263   2  -0.0      1.0829378422378999      151.38578380423763      8.4066210583906056
   264   2  -0.0      1.0876179799244117       151.3818504442086       11.59045505365887
   265   1   0.0       2.926081393352542      151.38283628056629      9.9951533751190329
   266   1   0.0      0.1695634441889278      149.78811519097243      9.9986014964060761
   267   2  -0.0       3.860576039102682      149.79734431015291      8.4029480183138556
   268   2  -0.0       3.853224723611433      149.79289973919188      11.587038018449483
   269   2  -0.0      1.0829378422378999      154.57182931198415      8.4066210583906056
   270   2  -0.0      1.0876179799244117      154.56789595195511       11.59045505365887
   271   1   0.0       2.926081393352542      154.56888178831281      9.9951533751190329
   272   1   0.0      0.1695634441889278      152.97416069871895      9.9986014964060761
   273   2  -0.0       3.860576039102682      152.98338981789942      8.4029480183138556
   274   2  -0.0       3.853224723611433      152.97894524693839      11.587038018449483
   275   2  -0.0      1.0829378422378999      157.75787481973069      8.4066210583906056
   276   2  -0.0      1.0876179799244117      157.75394145970165       11.59045505365887
   277   1   0.0       2.926081393352542      157.75492729605935      9.9951533751190329
   278   1   0.0      0.1695634441889278      156.16020620646549      9.9986014964060761
   279   2  -0.0       3.860576039102682      156.16943532564596      8.4029480183138556
   280   2  -0.0       3.853224723611433      156.16499075468494      11.587038018449483
   281   2  -0.0      1.0829378422378999      160.94392032747723      8.4066210583906056
   282   2  -0.0      1.0876179799244117      160.93998696744819       11.59045505365887
   283   1   0.0       2.926081393352542      160.94097280380589      9.9951533751190329
   284   1   0.0      0.1695634441889278      159.34625171421203      9.9986014964060761
   285   2  -0.0       3.860576039102682      159.35548083339251      8.4029480183138556
   286   2  -0.0       3.853224723611433      159.35103626243148      11.587038018449483
   287   2  -0.0      1.0829378422378999      164.12996583522374      8.4066210583906056
   288   2  -0.0      1.0876179799244117      164.12603247519471       11.59045505365887
   289   1   0.0       2.926081393352542       164.1270183115524      9.9951533751190329
   290   1   0.0      0.1695634441889278      162.53229722195854      9.9986014964060761
   291   2  -0.0       3.860576039102682      162.54152634113902      8.4029480183138556
   292   2  -0.0       3.853224723611433      162.53708177017799      11.587038018449483
   293   2  -0.0      1.0829378422378999      167.31601134297028      8.4066210583906056
   294   2  -0.0      1.0876179799244117      167.31207798294125       11.59045505365887
   295   1   0.0       2.926081393352542      167.31306381929895      9.9951533751190329
   296   1   0.0      0.1695634441889278      165.71834272970509      9.9986014964060761
   297   2  -0.0       3.860576039102682      165.72757184888556      8.4029480183138556
   298   2  -0.0       3.853224723611433      165.72312727792453      11.587038018449483
   299   2  -0.0      1.0829378422378999      170.50205685071683      8.4066210583906056
   300   2  -0.0      1.0876179799244117      170.49812349068779       11.59045505365887
   301   1   0.0       2.926081393352542      170.49910932704549      9.9951533751190329
   302   1   0.0      0.1695634441889278      168.90438823745163      9.9986014964060761
   303   2  -0.0       3.860576039102682       168.9136173566321      8.4029480183138556
   304   2  -0.0       3.853224723611433      168.90917278567107      11.587038018449483
   305   2  -0.0      1.0829378422378999      173.68810235846334      8.4066210583906056
   306   2  -0.0      1.0876179799244117       173.6841689984343       11.59045505365887
   307   1   0.0      0.1695634441889278      172.09043374519814      9.9986014964060761
   308   1   0.0      0.1695634441889278      175.27647925294468      9.9986014964060761
   309   1   0.0       2.926081393352542       183.2432913580316      9.9951533751190329
   310   2  -0.0       3.860576039102682      181.65779938761821      8.4029480183138556
   311   2  -0.0       3.853224723611433      181.65335481665718      11.587038018449483
   312   2  -0.0      1.0829378422378999      186.43228438944948      8.4066210583906056
   313   2  -0.0      1.0876179799244117      186.42835102942044       11.59045505365887
   314   1   0.0       2.926081393352542      186.42933686577814      9.9951533751190329
   315   2  -0.0       3.860576039102682      184.84384489536475      8.4029480183138556
   316   2  -0.0       3.853224723611433      184.83940032440373      11.587038018449483
   317   2  -0.0      1.0829378422378999      189.61832989719602      8.4066210583906056
   318   2  -0.0      1.0876179799244117      189.61439653716698       11.59045505365887
   319   1   0.0       2.926081393352542      189.61538237352468      9.9951533751190329
   320   1   0.0      0.1695634441889278      188.02066128393082      9.9986014964060761
   321   2  -0.0       3.860576039102682       188.0298904031113      8.4029480183138556
   322   2  -0.0       3.853224723611433      188.02544583215027      11.587038018449483
   323   2  -0.0      6.6013727812340921      1.6416449401505862      8.4066210583906056
   324   2  -0.0      6.6060529189206036      1.6377115801215589       11.59045505365887
   325   1   0.0      8.4445163323487336      1.6386974164792638      9.9951533751190329
   326   1   0.0      5.6879983831851195    0.043976326885396169      9.9986014964060761
   327   2  -0.0       9.379010978098874    0.053205446065888055      8.4029480183138556
   328   2  -0.0       9.371659662607625    0.048760875104855446      11.587038018449483
   329   2  -0.0      6.6013727812340921       4.827690447897119      8.4066210583906056
   330   2  -0.0      6.6060529189206036      4.8237570878680911       11.59045505365887
   331   1   0.0      8.4445163323487336       4.824742924225796      9.9951533751190329
   332   1   0.0      5.6879983831851195      3.2300218346319287      9.9986014964060761
   333   2  -0.0       9.379010978098874      3.2392509538124203      8.4029480183138556
   334   2  -0.0       9.371659662607625      3.2348063828513878      11.587038018449483
   335   2  -0.0      6.6013727812340921        8.01373595564365      8.4066210583906056