./POSCAR-uncut.lmp (written by ASE) 

3060 	 atoms 
2  atom types
0.0      93.813393962935265  xlo xhi
0.0      95.581365232395967  ylo yhi
0.0                      20  zlo zhi


Atoms 

     1   2  -0.0      1.0829378422378999      1.6416449401505859      8.4066210583906056
     2   2  -0.0      1.0876179799244117      1.6377115801215589       11.59045505365887
     3   1   0.0      2.9260813933525416       1.638697416479264      9.9951533751190329
     4   1   0.0      0.1695634441889278    0.043976326885396169      9.9986014964060761
     5   2  -0.0      3.8605760391026824    0.053205446065888062      8.4029480183138556
     6   2  -0.0      3.8532247236114334    0.048760875104855446      11.587038018449483
     7   2  -0.0      1.0829378422378999      4.8276904478971181      8.4066210583906056
     8   2  -0.0      1.0876179799244117      4.8237570878680911       11.59045505365887
     9   1   0.0      2.9260813933525416      4.8247429242257969      9.9951533751190329
    10   1   0.0      0.1695634441889278      3.2300218346319287      9.9986014964060761
    11   2  -0.0      3.8605760391026824      3.2392509538124203      8.4029480183138556
    12   2  -0.0      3.8532247236114334      3.2348063828513878      11.587038018449483
    13   2  -0.0      1.0829378422378999        8.01373595564365      8.4066210583906056
    14   2  -0.0      1.0876179799244117       8.009802595614623       11.59045505365887
    15   1   0.0      2.9260813933525416      8.0107884319723297      9.9951533751190329
    16   1   0.0      0.1695634441889278      6.4160673423784607      9.9986014964060761
    17   2  -0.0      3.8605760391026824      6.4252964615589532      8.4029480183138556
    18   2  -0.0      3.8532247236114334      6.4208518905979206      11.587038018449483
    19   2  -0.0      1.0829378422378999      11.199781463390183      8.4066210583906056
    20   2  -0.0      1.0876179799244117      11.195848103361156       11.59045505365887
    21   1   0.0      2.9260813933525416      11.196833939718861      9.9951533751190329
    22   1   0.0      0.1695634441889278      9.6021128501249926      9.9986014964060761
    23   2  -0.0      3.8605760391026824      9.6113419693054851      8.4029480183138556
    24   2  -0.0      3.8532247236114334      9.6068973983444526      11.587038018449483
    25   2  -0.0      1.0829378422378999      14.385826971136716      8.4066210583906056
    26   2  -0.0      1.0876179799244117      14.381893611107689       11.59045505365887
    27   1   0.0      2.9260813933525416      14.382879447465394      9.9951533751190329
    28   1   0.0      0.1695634441889278      12.788158357871525      9.9986014964060761
    29   2  -0.0      3.8605760391026824      12.797387477052018      8.4029480183138556
    30   2  -0.0      3.8532247236114334      12.792942906090985      11.587038018449483
    31   2  -0.0      1.0829378422378999      17.571872478883247      8.4066210583906056
    32   2  -0.0      1.0876179799244117       17.56793911885422       11.59045505365887
    33   1   0.0      2.9260813933525416      17.568924955211926      9.9951533751190329
    34   1   0.0      0.1695634441889278      15.974203865618058      9.9986014964060761
    35   2  -0.0      3.8605760391026824      15.983432984798551      8.4029480183138556
    36   2  -0.0      3.8532247236114334      15.978988413837518      11.587038018449483
    37   2  -0.0      1.0829378422378999      20.757917986629778      8.4066210583906056
    38   2  -0.0      1.0876179799244117      20.753984626600751       11.59045505365887
    39   1   0.0      2.9260813933525416      20.754970462958457      9.9951533751190329
    40   1   0.0      0.1695634441889278      19.160249373364589      9.9986014964060761
    41   2  -0.0      3.8605760391026824      19.169478492545082      8.4029480183138556
    42   2  -0.0      3.8532247236114334      19.165033921584048      11.587038018449483
    43   2  -0.0      1.0829378422378999      23.943963494376312      8.4066210583906056
    44   2  -0.0      1.0876179799244117      23.940030134347285       11.59045505365887
    45   1   0.0      2.9260813933525416      23.941015970704992      9.9951533751190329
    46   1   0.0      0.1695634441889278      22.346294881111124      9.9986014964060761
    47   2  -0.0      3.8605760391026824      22.355524000291616      8.4029480183138556
    48   2  -0.0      3.8532247236114334      22.351079429330582      11.587038018449483
    49   2  -0.0      1.0829378422378999      27.130009002122843      8.4066210583906056
    50   2  -0.0      1.0876179799244117      27.126075642093816       11.59045505365887
    51   1   0.0      2.9260813933525416      27.127061478451523      9.9951533751190329
    52   1   0.0      0.1695634441889278      25.532340388857655      9.9986014964060761
    53   2  -0.0      3.8605760391026824      25.541569508038148      8.4029480183138556
    54   2  -0.0      3.8532247236114334      25.537124937077113      11.587038018449483
    55   2  -0.0      1.0829378422378999      30.316054509869375      8.4066210583906056
    56   2  -0.0      1.0876179799244117      30.312121149840348       11.59045505365887
    57   1   0.0      2.9260813933525416      30.313106986198054      9.9951533751190329
    58   1   0.0      0.1695634441889278      28.718385896604186      9.9986014964060761
    59   2  -0.0      3.8605760391026824      28.727615015784679      8.4029480183138556
    60   2  -0.0      3.8532247236114334      28.723170444823644      11.587038018449483
    61   2  -0.0      1.0829378422378999      33.502100017615909      8.4066210583906056
    62   2  -0.0      1.0876179799244117      33.498166657586886       11.59045505365887
    63   1   0.0      2.9260813933525416      33.499152493944592      9.9951533751190329
    64   1   0.0      0.1695634441889278      31.904431404350721      9.9986014964060761
    65   2  -0.0      3.8605760391026824      31.913660523531213      8.4029480183138556
    66   2  -0.0      3.8532247236114334      31.909215952570179      11.587038018449483
    67   2  -0.0      1.0829378422378999      36.688145525362444      8.4066210583906056
    68   2  -0.0      1.0876179799244117       36.68421216533342       11.59045505365887
    69   1   0.0      2.9260813933525416       36.68519800169112      9.9951533751190329
    70   1   0.0      0.1695634441889278      35.090476912097259      9.9986014964060761
    71   2  -0.0      3.8605760391026824      35.099706031277748      8.4029480183138556
    72   2  -0.0      3.8532247236114334      35.095261460316713      11.587038018449483
    73   2  -0.0      1.0829378422378999      39.874191033108971      8.4066210583906056
    74   2  -0.0      1.0876179799244117      39.870257673079948       11.59045505365887
    75   1   0.0      2.9260813933525416      39.871243509437647      9.9951533751190329
    76   1   0.0      0.1695634441889278      38.276522419843786      9.9986014964060761
    77   2  -0.0      3.8605760391026824      38.285751539024275      8.4029480183138556
    78   2  -0.0      3.8532247236114334      38.281306968063241      11.587038018449483
    79   2  -0.0      1.0829378422378999      43.060236540855506      8.4066210583906056
    80   2  -0.0      1.0876179799244117      43.056303180826482       11.59045505365887
    81   1   0.0      2.9260813933525416      43.057289017184189      9.9951533751190329
    82   1   0.0      0.1695634441889278      41.462567927590321      9.9986014964060761
    83   2  -0.0      3.8605760391026824       41.47179704677081      8.4029480183138556
    84   2  -0.0      3.8532247236114334      41.467352475809776      11.587038018449483
    85   2  -0.0      1.0829378422378999      46.246282048602041      8.4066210583906056
    86   2  -0.0      1.0876179799244117      46.242348688573017       11.59045505365887
    87   1   0.0      2.9260813933525416      46.243334524930717      9.9951533751190329
    88   1   0.0      0.1695634441889278      44.648613435336856      9.9986014964060761
    89   2  -0.0      3.8605760391026824      44.657842554517345      8.4029480183138556
    90   2  -0.0      3.8532247236114334       44.65339798355631      11.587038018449483
    91   2  -0.0      1.0829378422378999      49.432327556348568      8.4066210583906056
    92   2  -0.0      1.0876179799244117      49.428394196319545       11.59045505365887
    93   1   0.0      2.9260813933525416      49.429380032677244      9.9951533751190329
    94   1   0.0      0.1695634441889278      47.834658943083383      9.9986014964060761
    95   2  -0.0      3.8605760391026824      47.843888062263872      8.4029480183138556
    96   2  -0.0      3.8532247236114334      47.839443491302838      11.587038018449483
    97   2  -0.0      1.0829378422378999      52.618373064095103      8.4066210583906056
    98   2  -0.0      1.0876179799244117      52.614439704066079       11.59045505365887
    99   1   0.0      2.9260813933525416      52.615425540423786      9.9951533751190329
   100   1   0.0      0.1695634441889278      51.020704450829918      9.9986014964060761
   101   2  -0.0      3.8605760391026824      51.029933570010407      8.4029480183138556
   102   2  -0.0      3.8532247236114334      51.025488999049372      11.587038018449483
   103   2  -0.0      1.0829378422378999      55.804418571841637      8.4066210583906056
   104   2  -0.0      1.0876179799244117      55.800485211812614       11.59045505365887
   105   1   0.0      2.9260813933525416      55.801471048170313      9.9951533751190329
   106   1   0.0      0.1695634441889278      54.206749958576452      9.9986014964060761
   107   2  -0.0      3.8605760391026824      54.215979077756941      8.4029480183138556
   108   2  -0.0      3.8532247236114334      54.211534506795907      11.587038018449483
   109   2  -0.0      1.0829378422378999      58.990464079588165      8.4066210583906056
   110   2  -0.0      1.0876179799244117      58.986530719559141       11.59045505365887
   111   1   0.0      2.9260813933525416      58.987516555916841      9.9951533751190329
   112   1   0.0      0.1695634441889278       57.39279546632298      9.9986014964060761
   113   2  -0.0      3.8605760391026824      57.402024585503469      8.4029480183138556
   114   2  -0.0      3.8532247236114334      57.397580014542434      11.587038018449483
   115   2  -0.0      1.0829378422378999      62.176509587334699      8.4066210583906056
   116   2  -0.0      1.0876179799244117      62.172576227305676       11.59045505365887
   117   1   0.0      2.9260813933525416      62.173562063663383      9.9951533751190329
   118   1   0.0      0.1695634441889278      60.578840974069514      9.9986014964060761
   119   2  -0.0      3.8605760391026824      60.588070093250003      8.4029480183138556
   120   2  -0.0      3.8532247236114334      60.583625522288969      11.587038018449483
   121   2  -0.0      1.0829378422378999      65.362555095081234      8.4066210583906056
   122   2  -0.0      1.0876179799244117      65.358621735052211       11.59045505365887
   123   1   0.0      2.9260813933525416       65.35960757140991      9.9951533751190329
   124   1   0.0      0.1695634441889278      63.764886481816049      9.9986014964060761
   125   2  -0.0      3.8605760391026824      63.774115600996538      8.4029480183138556
   126   2  -0.0      3.8532247236114334      63.769671030035504      11.587038018449483
   127   2  -0.0      1.0829378422378999      68.548600602827761      8.4066210583906056
   128   2  -0.0      1.0876179799244117      68.544667242798738       11.59045505365887
   129   1   0.0      2.9260813933525416      68.545653079156438      9.9951533751190329
   130   1   0.0      0.1695634441889278      66.950931989562577      9.9986014964060761
   131   2  -0.0      3.8605760391026824      66.960161108743065      8.4029480183138556
   132   2  -0.0      3.8532247236114334      66.955716537782038      11.587038018449483
   133   2  -0.0      1.0829378422378999      71.734646110574303      8.4066210583906056
   134   2  -0.0      1.0876179799244117       71.73071275054528       11.59045505365887
   135   1   0.0      2.9260813933525416      71.731698586902979      9.9951533751190329
   136   1   0.0      0.1695634441889278      70.136977497309118      9.9986014964060761
   137   2  -0.0      3.8605760391026824      70.146206616489607      8.4029480183138556
   138   2  -0.0      3.8532247236114334       70.14176204552858      11.587038018449483
   139   2  -0.0      1.0829378422378999      74.920691618320831      8.4066210583906056
   140   2  -0.0      1.0876179799244117      74.916758258291807       11.59045505365887
   141   1   0.0      2.9260813933525416      74.917744094649507      9.9951533751190329
   142   1   0.0      0.1695634441889278      73.323023005055646      9.9986014964060761
   143   2  -0.0      3.8605760391026824      73.332252124236135      8.4029480183138556
   144   2  -0.0      3.8532247236114334      73.327807553275107      11.587038018449483
   145   2  -0.0      1.0829378422378999      78.106737126067358      8.4066210583906056
   146   2  -0.0      1.0876179799244117      78.102803766038335       11.59045505365887
   147   1   0.0      2.9260813933525416      78.103789602396034      9.9951533751190329
   148   1   0.0      0.1695634441889278      76.509068512802173      9.9986014964060761
   149   2  -0.0      3.8605760391026824      76.518297631982662      8.4029480183138556
   150   2  -0.0      3.8532247236114334      76.513853061021635      11.587038018449483
   151   2  -0.0      1.0829378422378999        81.2927826338139      8.4066210583906056
   152   2  -0.0      1.0876179799244117      81.288849273784876       11.59045505365887
   153   1   0.0      2.9260813933525416      81.289835110142576      9.9951533751190329
   154   1   0.0      0.1695634441889278      79.695114020548715      9.9986014964060761
   155   2  -0.0      3.8605760391026824      79.704343139729204      8.4029480183138556
   156   2  -0.0      3.8532247236114334      79.699898568768177      11.587038018449483
   157   2  -0.0      1.0829378422378999      84.478828141560427      8.4066210583906056
   158   2  -0.0      1.0876179799244117      84.474894781531404       11.59045505365887
   159   1   0.0      2.9260813933525416      84.475880617889104      9.9951533751190329
   160   1   0.0      0.1695634441889278      82.881159528295242      9.9986014964060761
   161   2  -0.0      3.8605760391026824      82.890388647475731      8.4029480183138556
   162   2  -0.0      3.8532247236114334      82.885944076514704      11.587038018449483
   163   2  -0.0      1.0829378422378999      87.664873649306955      8.4066210583906056
   164   2  -0.0      1.0876179799244117      87.660940289277931       11.59045505365887
   165   1   0.0      2.9260813933525416      87.661926125635631      9.9951533751190329
   166   1   0.0      0.1695634441889278       86.06720503604177      9.9986014964060761
   167   2  -0.0      3.8605760391026824      86.076434155222259      8.4029480183138556
   168   2  -0.0      3.8532247236114334      86.071989584261232      11.587038018449483
   169   2  -0.0      1.0829378422378999      90.850919157053497      8.4066210583906056
   170   2  -0.0      1.0876179799244117      90.846985797024473       11.59045505365887
   171   1   0.0      2.9260813933525416      90.847971633382173      9.9951533751190329
   172   1   0.0      0.1695634441889278      89.253250543788312      9.9986014964060761
   173   2  -0.0      3.8605760391026824      89.262479662968801      8.4029480183138556
   174   2  -0.0      3.8532247236114334      89.258035092007773      11.587038018449483
   175   2  -0.0      1.0829378422378999      94.036964664800024      8.4066210583906056
   176   2  -0.0      1.0876179799244117      94.033031304771001       11.59045505365887
   177   1   0.0      2.9260813933525416        94.0340171411287      9.9951533751190329
   178   1   0.0      0.1695634441889278      92.439296051534839      9.9986014964060761
   179   2  -0.0      3.8605760391026824      92.448525170715328      8.4029480183138556
   180   2  -0.0      3.8532247236114334      92.444080599754301      11.587038018449483
   181   2  -0.0      6.6013727812340921      1.6416449401505859      8.4066210583906056
   182   2  -0.0      6.6060529189206036      1.6377115801215589       11.59045505365887
   183   1   0.0      8.4445163323487336       1.638697416479264      9.9951533751190329
   184   1   0.0      5.6879983831851195    0.043976326885396169      9.9986014964060761
   185   2  -0.0       9.379010978098874    0.053205446065888062      8.4029480183138556
   186   2  -0.0       9.371659662607625    0.048760875104855446      11.587038018449483
   187   2  -0.0      6.6013727812340921      4.8276904478971181      8.4066210583906056
   188   2  -0.0      6.6060529189206036      4.8237570878680911       11.59045505365887
   189   1   0.0      8.4445163323487336      4.8247429242257969      9.9951533751190329
   190   1   0.0      5.6879983831851195      3.2300218346319287      9.9986014964060761
   191   2  -0.0       9.379010978098874      3.2392509538124203      8.4029480183138556
   192   2  -0.0       9.371659662607625      3.2348063828513878      11.587038018449483
   193   2  -0.0      6.6013727812340921        8.01373595564365      8.4066210583906056
   194   2  -0.0      6.6060529189206036       8.009802595614623       11.59045505365887
   195   1   0.0      8.4445163323487336      8.0107884319723297      9.9951533751190329
   196   1   0.0      5.6879983831851195      6.4160673423784607      9.9986014964060761
   197   2  -0.0       9.379010978098874      6.4252964615589532      8.4029480183138556
   198   2  -0.0       9.371659662607625      6.4208518905979206      11.587038018449483
   199   2  -0.0      6.6013727812340921      11.199781463390183      8.4066210583906056
   200   2  -0.0      6.6060529189206036      11.195848103361156       11.59045505365887
   201   1   0.0      8.4445163323487336      11.196833939718861      9.9951533751190329
   202   1   0.0      5.6879983831851195      9.6021128501249926      9.9986014964060761
   203   2  -0.0       9.379010978098874      9.6113419693054851      8.4029480183138556
   204   2  -0.0       9.371659662607625      9.6068973983444526      11.587038018449483
   205   2  -0.0      6.6013727812340921      14.385826971136716      8.4066210583906056
   206   2  -0.0      6.6060529189206036      14.381893611107689       11.59045505365887
   207   1   0.0      8.4445163323487336      14.382879447465394      9.9951533751190329
   208   1   0.0      5.6879983831851195      12.788158357871525      9.9986014964060761
   209   2  -0.0       9.379010978098874      12.797387477052018      8.4029480183138556
   210   2  -0.0       9.371659662607625      12.792942906090985      11.587038018449483
   211   2  -0.0      6.6013727812340921      17.571872478883247      8.4066210583906056
   212   2  -0.0      6.6060529189206036       17.56793911885422       11.59045505365887
   213   1   0.0      8.4445163323487336      17.568924955211926      9.9951533751190329
   214   1   0.0      5.6879983831851195      15.974203865618058      9.9986014964060761
   215   2  -0.0       9.379010978098874      15.983432984798551      8.4029480183138556
   216   2  -0.0       9.371659662607625      15.978988413837518      11.587038018449483
   217   2  -0.0      6.6013727812340921      20.757917986629778      8.4066210583906056
   218   2  -0.0      6.6060529189206036      20.753984626600751       11.59045505365887
   219   1   0.0      8.4445163323487336      20.754970462958457      9.9951533751190329
   220   1   0.0      5.6879983831851195      19.160249373364589      9.9986014964060761
   221   2  -0.0       9.379010978098874      19.169478492545082      8.4029480183138556
   222   2  -0.0       9.371659662607625      19.165033921584048      11.587038018449483
   223   2  -0.0      6.6013727812340921      23.943963494376312      8.4066210583906056
   224   2  -0.0      6.6060529189206036      23.940030134347285       11.59045505365887
   225   1   0.0      8.4445163323487336      23.941015970704992      9.9951533751190329
   226   1   0.0      5.6879983831851195      22.346294881111124      9.9986014964060761
   227   2  -0.0       9.379010978098874      22.355524000291616      8.4029480183138556
   228   2  -0.0       9.371659662607625      22.351079429330582      11.587038018449483
   229   2  -0.0      6.6013727812340921      27.130009002122843      8.4066210583906056
   230   2  -0.0      6.6060529189206036      27.126075642093816       11.59045505365887
   231   1   0.0      8.4445163323487336      27.127061478451523      9.9951533751190329
   232   1   0.0      5.6879983831851195      25.532340388857655      9.9986014964060761
   233   2  -0.0       9.379010978098874      25.541569508038148      8.4029480183138556
   234   2  -0.0       9.371659662607625      25.537124937077113      11.587038018449483
   235   2  -0.0      6.6013727812340921      30.316054509869375      8.4066210583906056
   236   2  -0.0      6.6060529189206036      30.312121149840348       11.59045505365887
   237   1   0.0      8.4445163323487336      30.313106986198054      9.9951533751190329
   238   1   0.0      5.6879983831851195      28.718385896604186      9.9986014964060761
   239   2  -0.0       9.379010978098874      28.727615015784679      8.4029480183138556
   240   2  -0.0       9.371659662607625      28.723170444823644      11.587038018449483
   241   2  -0.0      6.6013727812340921      33.502100017615909      8.4066210583906056
   242   2  -0.0      6.6060529189206036      33.498166657586886       11.59045505365887
   243   1   0.0      8.4445163323487336      33.499152493944592      9.9951533751190329
   244   1   0.0      5.6879983831851195      31.904431404350721      9.9986014964060761
   245   2  -0.0       9.379010978098874      31.913660523531213      8.4029480183138556
   246   2  -0.0       9.371659662607625      31.909215952570179      11.587038018449483
   247   2  -0.0      6.6013727812340921      36.688145525362444      8.4066210583906056
   248   2  -0.0      6.6060529189206036       36.68421216533342       11.59045505365887
   249   1   0.0      8.4445163323487336       36.68519800169112      9.9951533751190329
   250   1   0.0      5.6879983831851195      35.090476912097259      9.9986014964060761
   251   2  -0.0       9.379010978098874      35.099706031277748      8.4029480183138556
   252   2  -0.0       9.371659662607625      35.095261460316713      11.587038018449483
   253   2  -0.0      6.6013727812340921      39.874191033108971      8.4066210583906056
   254   2  -0.0      6.6060529189206036      39.870257673079948       11.59045505365887
   255   1   0.0      8.4445163323487336      39.871243509437647      9.9951533751190329
   256   1   0.0      5.6879983831851195      38.276522419843786      9.9986014964060761
   257   2  -0.0       9.379010978098874      38.285751539024275      8.4029480183138556
   258   2  -0.0       9.371659662607625      38.281306968063241      11.587038018449483
   259   2  -0.0      6.6013727812340921      43.060236540855506      8.4066210583906056
   260   2  -0.0      6.6060529189206036      43.056303180826482       11.59045505365887
   261   1   0.0      8.4445163323487336      43.057289017184189      9.9951533751190329
   262   1   0.0      5.6879983831851195      41.462567927590321      9.9986014964060761
   263   2  -0.0       9.379010978098874       41.47179704677081      8.4029480183138556
   264   2  -0.0       9.371659662607625      41.467352475809776      11.587038018449483
   265   2  -0.0      6.6013727812340921      46.246282048602041      8.4066210583906056
   266   2  -0.0      6.6060529189206036      46.242348688573017       11.59045505365887
   267   1   0.0      8.4445163323487336      46.243334524930717      9.9951533751190329
   268   1   0.0      5.6879983831851195      44.648613435336856      9.9986014964060761
   269   2  -0.0       9.379010978098874      44.657842554517345      8.4029480183138556
   270   2  -0.0       9.371659662607625       44.65339798355631      11.587038018449483
   271   2  -0.0      6.6013727812340921      49.432327556348568      8.4066210583906056
   272   2  -0.0      6.6060529189206036      49.428394196319545       11.59045505365887
   273   1   0.0      8.4445163323487336      49.429380032677244      9.9951533751190329
   274   1   0.0      5.6879983831851195      47.834658943083383      9.9986014964060761
   275   2  -0.0       9.379010978098874      47.843888062263872      8.4029480183138556
   276   2  -0.0       9.371659662607625      47.839443491302838      11.587038018449483
   277   2  -0.0      6.6013727812340921      52.618373064095103      8.4066210583906056
   278   2  -0.0      6.6060529189206036      52.614439704066079       11.59045505365887
   279   1   0.0      8.4445163323487336      52.615425540423786      9.9951533751190329
   280   1   0.0      5.6879983831851195      51.020704450829918      9.9986014964060761
   281   2  -0.0       9.379010978098874      51.029933570010407      8.4029480183138556
   282   2  -0.0       9.371659662607625      51.025488999049372      11.587038018449483
   283   2  -0.0      6.6013727812340921      55.804418571841637      8.4066210583906056
   284   2  -0.0      6.6060529189206036      55.800485211812614       11.59045505365887
   285   1   0.0      8.4445163323487336      55.801471048170313      9.9951533751190329
   286   1   0.0      5.6879983831851195      54.206749958576452      9.9986014964060761
   287   2  -0.0       9.379010978098874      54.215979077756941      8.4029480183138556
   288   2  -0.0       9.371659662607625      54.211534506795907      11.587038018449483
   289   2  -0.0      6.6013727812340921      58.990464079588165      8.4066210583906056
   290   2  -0.0      6.6060529189206036      58.986530719559141       11.59045505365887
   291   1   0.0      8.4445163323487336      58.987516555916841      9.9951533751190329
   292   1   0.0      5.6879983831851195       57.39279546632298      9.9986014964060761
   293   2  -0.0       9.379010978098874      57.402024585503469      8.4029480183138556
   294   2  -0.0       9.371659662607625      57.397580014542434      11.587038018449483
   295   2  -0.0      6.6013727812340921      62.176509587334699      8.4066210583906056
   296   2  -0.0      6.6060529189206036      62.172576227305676       11.59045505365887
   297   1   0.0      8.4445163323487336      62.173562063663383      9.9951533751190329
   298   1   0.0      5.6879983831851195      60.578840974069514      9.9986014964060761
   299   2  -0.0       9.379010978098874      60.588070093250003      8.4029480183138556
   300   2  -0.0       9.371659662607625      60.583625522288969      11.587038018449483
   301   2  -0.0      6.6013727812340921      65.362555095081234      8.4066210583906056
   302   2  -0.0      6.6060529189206036      65.358621735052211       11.59045505365887
   303   1   0.0      8.4445163323487336       65.35960757140991      9.9951533751190329
   304   1   0.0      5.6879983831851195      63.764886481816049      9.9986014964060761
   305   2  -0.0       9.379010978098874      63.774115600996538      8.4029480183138556
   306   2  -0.0       9.371659662607625      63.769671030035504      11.587038018449483
   307   2  -0.0      6.6013727812340921      68.548600602827761      8.4066210583906056
   308   2  -0.0      6.6060529189206036      68.544667242798738       11.59045505365887
   309   1   0.0      8.4445163323487336      68.545653079156438      9.9951533751190329
   310   1   0.0      5.6879983831851195      66.950931989562577      9.9986014964060761
   311   2  -0.0       9.379010978098874      66.960161108743065      8.4029480183138556
   312   2  -0.0       9.371659662607625      66.955716537782038      11.587038018449483
   313   2  -0.0      6.6013727812340921      71.734646110574303      8.4066210583906056
   314   2  -0.0      6.6060529189206036       71.73071275054528       11.59045505365887
   315   1   0.0      8.4445163323487336      71.731698586902979      9.9951533751190329
   316   1   0.0      5.6879983831851195      70.136977497309118      9.9986014964060761
   317   2  -0.0       9.379010978098874      70.146206616489607      8.4029480183138556
   318   2  -0.0       9.371659662607625       70.14176204552858      11.587038018449483
   319   2  -0.0      6.6013727812340921      74.920691618320831      8.4066210583906056
   320   2  -0.0      6.6060529189206036      74.916758258291807       11.59045505365887
   321   1   0.0      8.4445163323487336      74.917744094649507      9.9951533751190329
   322   1   0.0      5.6879983831851195      73.323023005055646      9.9986014964060761
   323   2  -0.0       9.379010978098874      73.332252124236135      8.4029480183138556
   324   2  -0.0       9.371659662607625      73.327807553275107      11.587038018449483
   325   2  -0.0      6.6013727812340921      78.106737126067358      8.4066210583906056
   326   2  -0.0      6.6060529189206036      78.102803766038335       11.59045505365887
   327   1   0.0      8.4445163323487336      78.103789602396034      9.9951533751190329
   328   1   0.0      5.6879983831851195      76.509068512802173      9.9986014964060761
   329   2  -0.0       9.379010978098874      76.518297631982662      8.4029480183138556
   330   2  -0.0       9.371659662607625      76.513853061021635      11.587038018449483
   331   2  -0.0      6.6013727812340921        81.2927826338139      8.4066210583906056
   332   2  -0.0      6.6060529189206036      81.288849273784876       11.59045505365887
   333   1   0.0      8.4445163323487336      81.289835110142576      9.9951533751190329
   334   1   0.0      5.6879983831851195      79.695114020548715      9.9986014964060761