Pristine 2H-MoS2 plus 0.0% Hydrogen

6 	 atoms 
2  atom types
0.0       5.518434938996192  xlo xhi
0.0      3.1860455077465324  ylo yhi
0.0                      20  zlo zhi


Atoms 

     1   2  -0.0      1.0829378422378999      1.6416449401505862      8.4066210583906056
     2   2  -0.0      1.0876179799244117      1.6377115801215589       11.59045505365887
     3   1   0.0       2.926081393352542      1.6386974164792638      9.9951533751190329
     4   1   0.0      0.1695634441889278    0.043976326885396169      9.9986014964060761
     5   2  -0.0       3.860576039102682    0.053205446065888055      8.4029480183138556
     6   2  -0.0       3.853224723611433    0.048760875104855446      11.587038018449483
