Pristine 2H-MoS2 plus 0% Hydrogen

2882 	 atoms 
2  atom types
0.0      93.813393962935265  xlo xhi
0.0      95.581365232395967  ylo yhi
0.0                      20  zlo zhi


Atoms 

     1   2  -0.0      1.0829378422378999      1.6416449401505859      8.4066210583906056
     2   2  -0.0      1.0876179799244117      1.6377115801215589       11.59045505365887
     3   1   0.0      2.9260813933525416       1.638697416479264      9.9951533751190329
     4   1   0.0      0.1695634441889278    0.043976326885396169      9.9986014964060761
     5   2  -0.0      3.8605760391026824    0.053205446065888062      8.4029480183138556
     6   2  -0.0      3.8532247236114334    0.048760875104855446      11.587038018449483
     7   1   0.0      2.9260813933525416      4.8247429242257969      9.9951533751190329
     8   2  -0.0      3.8605760391026824      3.2392509538124203      8.4029480183138556
     9   2  -0.0      3.8532247236114334      3.2348063828513878      11.587038018449483
    10   2  -0.0      3.8605760391026824      6.4252964615589532      8.4029480183138556
    11   2  -0.0      3.8532247236114334      6.4208518905979206      11.587038018449483
    12   2  -0.0      1.0829378422378999      11.199781463390183      8.4066210583906056
    13   2  -0.0      1.0876179799244117      11.195848103361156       11.59045505365887
    14   1   0.0      0.1695634441889278      9.6021128501249926      9.9986014964060761
    15   2  -0.0      1.0829378422378999      14.385826971136716      8.4066210583906056
    16   2  -0.0      1.0876179799244117      14.381893611107689       11.59045505365887
    17   1   0.0      2.9260813933525416      14.382879447465394      9.9951533751190329
    18   1   0.0      0.1695634441889278      12.788158357871525      9.9986014964060761
    19   2  -0.0      1.0829378422378999      17.571872478883247      8.4066210583906056
    20   2  -0.0      1.0876179799244117       17.56793911885422       11.59045505365887
    21   1   0.0      2.9260813933525416      17.568924955211926      9.9951533751190329
    22   1   0.0      0.1695634441889278      15.974203865618058      9.9986014964060761
    23   2  -0.0      3.8605760391026824      15.983432984798551      8.4029480183138556
    24   2  -0.0      3.8532247236114334      15.978988413837518      11.587038018449483
    25   2  -0.0      1.0829378422378999      20.757917986629778      8.4066210583906056
    26   2  -0.0      1.0876179799244117      20.753984626600751       11.59045505365887
    27   1   0.0      2.9260813933525416      20.754970462958457      9.9951533751190329
    28   1   0.0      0.1695634441889278      19.160249373364589      9.9986014964060761
    29   2  -0.0      3.8605760391026824      19.169478492545082      8.4029480183138556
    30   2  -0.0      3.8532247236114334      19.165033921584048      11.587038018449483
    31   2  -0.0      1.0829378422378999      23.943963494376312      8.4066210583906056
    32   2  -0.0      1.0876179799244117      23.940030134347285       11.59045505365887
    33   1   0.0      2.9260813933525416      23.941015970704992      9.9951533751190329
    34   1   0.0      0.1695634441889278      22.346294881111124      9.9986014964060761
    35   2  -0.0      3.8605760391026824      22.355524000291616      8.4029480183138556
    36   2  -0.0      3.8532247236114334      22.351079429330582      11.587038018449483
    37   2  -0.0      1.0829378422378999      27.130009002122843      8.4066210583906056
    38   2  -0.0      1.0876179799244117      27.126075642093816       11.59045505365887
    39   1   0.0      2.9260813933525416      27.127061478451523      9.9951533751190329
    40   1   0.0      0.1695634441889278      25.532340388857655      9.9986014964060761
    41   2  -0.0      3.8605760391026824      25.541569508038148      8.4029480183138556
    42   2  -0.0      3.8532247236114334      25.537124937077113      11.587038018449483
    43   2  -0.0      1.0829378422378999      30.316054509869375      8.4066210583906056
    44   2  -0.0      1.0876179799244117      30.312121149840348       11.59045505365887
    45   1   0.0      2.9260813933525416      30.313106986198054      9.9951533751190329
    46   1   0.0      0.1695634441889278      28.718385896604186      9.9986014964060761
    47   2  -0.0      3.8605760391026824      28.727615015784679      8.4029480183138556
    48   2  -0.0      3.8532247236114334      28.723170444823644      11.587038018449483
    49   2  -0.0      1.0829378422378999      33.502100017615909      8.4066210583906056
    50   2  -0.0      1.0876179799244117      33.498166657586886       11.59045505365887
    51   1   0.0      2.9260813933525416      33.499152493944592      9.9951533751190329
    52   1   0.0      0.1695634441889278      31.904431404350721      9.9986014964060761
    53   2  -0.0      3.8605760391026824      31.913660523531213      8.4029480183138556
    54   2  -0.0      3.8532247236114334      31.909215952570179      11.587038018449483
    55   2  -0.0      1.0829378422378999      36.688145525362444      8.4066210583906056
    56   2  -0.0      1.0876179799244117       36.68421216533342       11.59045505365887
    57   1   0.0      2.9260813933525416       36.68519800169112      9.9951533751190329
    58   1   0.0      0.1695634441889278      35.090476912097259      9.9986014964060761
    59   2  -0.0      3.8605760391026824      35.099706031277748      8.4029480183138556
    60   2  -0.0      3.8532247236114334      35.095261460316713      11.587038018449483
    61   2  -0.0      1.0829378422378999      39.874191033108971      8.4066210583906056
    62   2  -0.0      1.0876179799244117      39.870257673079948       11.59045505365887
    63   1   0.0      2.9260813933525416      39.871243509437647      9.9951533751190329
    64   1   0.0      0.1695634441889278      38.276522419843786      9.9986014964060761
    65   2  -0.0      3.8605760391026824      38.285751539024275      8.4029480183138556
    66   2  -0.0      3.8532247236114334      38.281306968063241      11.587038018449483
    67   2  -0.0      1.0829378422378999      43.060236540855506      8.4066210583906056
    68   2  -0.0      1.0876179799244117      43.056303180826482       11.59045505365887
    69   1   0.0      2.9260813933525416      43.057289017184189      9.9951533751190329
    70   1   0.0      0.1695634441889278      41.462567927590321      9.9986014964060761
    71   2  -0.0      3.8605760391026824       41.47179704677081      8.4029480183138556
    72   2  -0.0      3.8532247236114334      41.467352475809776      11.587038018449483
    73   2  -0.0      1.0829378422378999      46.246282048602041      8.4066210583906056
    74   2  -0.0      1.0876179799244117      46.242348688573017       11.59045505365887
    75   1   0.0      2.9260813933525416      46.243334524930717      9.9951533751190329
    76   1   0.0      0.1695634441889278      44.648613435336856      9.9986014964060761
    77   2  -0.0      3.8605760391026824      44.657842554517345      8.4029480183138556
    78   2  -0.0      3.8532247236114334       44.65339798355631      11.587038018449483
    79   2  -0.0      1.0829378422378999      49.432327556348568      8.4066210583906056
    80   2  -0.0      1.0876179799244117      49.428394196319545       11.59045505365887
    81   1   0.0      2.9260813933525416      49.429380032677244      9.9951533751190329
    82   1   0.0      0.1695634441889278      47.834658943083383      9.9986014964060761
    83   2  -0.0      1.0829378422378999      52.618373064095103      8.4066210583906056
    84   2  -0.0      1.0876179799244117      52.614439704066079       11.59045505365887
    85   1   0.0      2.9260813933525416      52.615425540423786      9.9951533751190329
    86   1   0.0      0.1695634441889278      51.020704450829918      9.9986014964060761
    87   2  -0.0      3.8605760391026824      51.029933570010407      8.4029480183138556
    88   2  -0.0      3.8532247236114334      51.025488999049372      11.587038018449483
    89   2  -0.0      1.0829378422378999      55.804418571841637      8.4066210583906056
    90   2  -0.0      1.0876179799244117      55.800485211812614       11.59045505365887
    91   1   0.0      2.9260813933525416      55.801471048170313      9.9951533751190329
    92   1   0.0      0.1695634441889278      54.206749958576452      9.9986014964060761
    93   2  -0.0      3.8605760391026824      54.215979077756941      8.4029480183138556
    94   2  -0.0      3.8532247236114334      54.211534506795907      11.587038018449483
    95   2  -0.0      1.0829378422378999      58.990464079588165      8.4066210583906056
    96   2  -0.0      1.0876179799244117      58.986530719559141       11.59045505365887
    97   1   0.0      2.9260813933525416      58.987516555916841      9.9951533751190329
    98   1   0.0      0.1695634441889278       57.39279546632298      9.9986014964060761
    99   2  -0.0      3.8605760391026824      57.402024585503469      8.4029480183138556
   100   2  -0.0      3.8532247236114334      57.397580014542434      11.587038018449483
   101   2  -0.0      1.0829378422378999      62.176509587334699      8.4066210583906056
   102   2  -0.0      1.0876179799244117      62.172576227305676       11.59045505365887
   103   1   0.0      2.9260813933525416      62.173562063663383      9.9951533751190329
   104   1   0.0      0.1695634441889278      60.578840974069514      9.9986014964060761
   105   2  -0.0      3.8605760391026824      60.588070093250003      8.4029480183138556
   106   2  -0.0      3.8532247236114334      60.583625522288969      11.587038018449483
   107   2  -0.0      1.0829378422378999      65.362555095081234      8.4066210583906056
   108   2  -0.0      1.0876179799244117      65.358621735052211       11.59045505365887
   109   1   0.0      2.9260813933525416       65.35960757140991      9.9951533751190329
   110   1   0.0      0.1695634441889278      63.764886481816049      9.9986014964060761
   111   2  -0.0      3.8605760391026824      63.774115600996538      8.4029480183138556
   112   2  -0.0      3.8532247236114334      63.769671030035504      11.587038018449483
   113   2  -0.0      1.0829378422378999      68.548600602827761      8.4066210583906056
   114   2  -0.0      1.0876179799244117      68.544667242798738       11.59045505365887
   115   1   0.0      2.9260813933525416      68.545653079156438      9.9951533751190329
   116   1   0.0      0.1695634441889278      66.950931989562577      9.9986014964060761
   117   2  -0.0      3.8605760391026824      66.960161108743065      8.4029480183138556
   118   2  -0.0      3.8532247236114334      66.955716537782038      11.587038018449483
   119   2  -0.0      1.0829378422378999      71.734646110574303      8.4066210583906056
   120   2  -0.0      1.0876179799244117       71.73071275054528       11.59045505365887
   121   1   0.0      2.9260813933525416      71.731698586902979      9.9951533751190329
   122   1   0.0      0.1695634441889278      70.136977497309118      9.9986014964060761
   123   2  -0.0      3.8605760391026824      70.146206616489607      8.4029480183138556
   124   2  -0.0      3.8532247236114334       70.14176204552858      11.587038018449483
   125   2  -0.0      1.0829378422378999      74.920691618320831      8.4066210583906056
   126   2  -0.0      1.0876179799244117      74.916758258291807       11.59045505365887
   127   1   0.0      2.9260813933525416      74.917744094649507      9.9951533751190329
   128   1   0.0      0.1695634441889278      73.323023005055646      9.9986014964060761
   129   2  -0.0      3.8605760391026824      73.332252124236135      8.4029480183138556
   130   2  -0.0      3.8532247236114334      73.327807553275107      11.587038018449483
   131   2  -0.0      1.0829378422378999      78.106737126067358      8.4066210583906056
   132   2  -0.0      1.0876179799244117      78.102803766038335       11.59045505365887
   133   1   0.0      2.9260813933525416      78.103789602396034      9.9951533751190329
   134   1   0.0      0.1695634441889278      76.509068512802173      9.9986014964060761
   135   2  -0.0      3.8605760391026824      76.518297631982662      8.4029480183138556
   136   2  -0.0      3.8532247236114334      76.513853061021635      11.587038018449483
   137   2  -0.0      1.0829378422378999        81.2927826338139      8.4066210583906056
   138   2  -0.0      1.0876179799244117      81.288849273784876       11.59045505365887
   139   1   0.0      2.9260813933525416      81.289835110142576      9.9951533751190329
   140   1   0.0      0.1695634441889278      79.695114020548715      9.9986014964060761
   141   2  -0.0      3.8605760391026824      79.704343139729204      8.4029480183138556
   142   2  -0.0      3.8532247236114334      79.699898568768177      11.587038018449483
   143   2  -0.0      1.0829378422378999      84.478828141560427      8.4066210583906056
   144   2  -0.0      1.0876179799244117      84.474894781531404       11.59045505365887
   145   1   0.0      0.1695634441889278      82.881159528295242      9.9986014964060761
   146   1   0.0      0.1695634441889278       86.06720503604177      9.9986014964060761
   147   1   0.0      2.9260813933525416      90.847971633382173      9.9951533751190329
   148   2  -0.0      3.8605760391026824      89.262479662968801      8.4029480183138556
   149   2  -0.0      3.8532247236114334      89.258035092007773      11.587038018449483
   150   2  -0.0      1.0829378422378999      94.036964664800024      8.4066210583906056
   151   2  -0.0      1.0876179799244117      94.033031304771001       11.59045505365887
   152   1   0.0      2.9260813933525416        94.0340171411287      9.9951533751190329
   153   2  -0.0      3.8605760391026824      92.448525170715328      8.4029480183138556
   154   2  -0.0      3.8532247236114334      92.444080599754301      11.587038018449483
   155   2  -0.0      6.6013727812340921      1.6416449401505859      8.4066210583906056
   156   2  -0.0      6.6060529189206036      1.6377115801215589       11.59045505365887
   157   1   0.0      8.4445163323487336       1.638697416479264      9.9951533751190329
   158   1   0.0      5.6879983831851195    0.043976326885396169      9.9986014964060761
   159   2  -0.0       9.379010978098874    0.053205446065888062      8.4029480183138556
   160   2  -0.0       9.371659662607625    0.048760875104855446      11.587038018449483
   161   2  -0.0      6.6013727812340921      4.8276904478971181      8.4066210583906056
   162   2  -0.0      6.6060529189206036      4.8237570878680911       11.59045505365887
   163   1   0.0      8.4445163323487336      4.8247429242257969      9.9951533751190329
   164   1   0.0      5.6879983831851195      3.2300218346319287      9.9986014964060761
   165   2  -0.0       9.379010978098874      3.2392509538124203      8.4029480183138556
   166   2  -0.0       9.371659662607625      3.2348063828513878      11.587038018449483
   167   2  -0.0      6.6013727812340921        8.01373595564365      8.4066210583906056
   168   2  -0.0      6.6060529189206036       8.009802595614623       11.59045505365887
   169   1   0.0      8.4445163323487336      8.0107884319723297      9.9951533751190329
   170   1   0.0      5.6879983831851195      6.4160673423784607      9.9986014964060761
   171   2  -0.0       9.379010978098874      6.4252964615589532      8.4029480183138556
   172   2  -0.0       9.371659662607625      6.4208518905979206      11.587038018449483
   173   2  -0.0      6.6013727812340921      11.199781463390183      8.4066210583906056
   174   2  -0.0      6.6060529189206036      11.195848103361156       11.59045505365887
   175   1   0.0      8.4445163323487336      11.196833939718861      9.9951533751190329
   176   1   0.0      5.6879983831851195      9.6021128501249926      9.9986014964060761
   177   2  -0.0       9.379010978098874      9.6113419693054851      8.4029480183138556
   178   2  -0.0       9.371659662607625      9.6068973983444526      11.587038018449483
   179   1   0.0      8.4445163323487336      14.382879447465394      9.9951533751190329
   180   2  -0.0       9.379010978098874      12.797387477052018      8.4029480183138556
   181   2  -0.0       9.371659662607625      12.792942906090985      11.587038018449483
   182   2  -0.0      6.6013727812340921      17.571872478883247      8.4066210583906056
   183   2  -0.0      6.6060529189206036       17.56793911885422       11.59045505365887
   184   1   0.0      8.4445163323487336      17.568924955211926      9.9951533751190329
   185   1   0.0      5.6879983831851195      15.974203865618058      9.9986014964060761
   186   2  -0.0       9.379010978098874      15.983432984798551      8.4029480183138556
   187   2  -0.0       9.371659662607625      15.978988413837518      11.587038018449483
   188   2  -0.0      6.6013727812340921      20.757917986629778      8.4066210583906056
   189   2  -0.0      6.6060529189206036      20.753984626600751       11.59045505365887
   190   1   0.0      8.4445163323487336      20.754970462958457      9.9951533751190329
   191   1   0.0      5.6879983831851195      19.160249373364589      9.9986014964060761
   192   2  -0.0       9.379010978098874      19.169478492545082      8.4029480183138556
   193   2  -0.0       9.371659662607625      19.165033921584048      11.587038018449483
   194   2  -0.0      6.6013727812340921      23.943963494376312      8.4066210583906056
   195   2  -0.0      6.6060529189206036      23.940030134347285       11.59045505365887
   196   1   0.0      8.4445163323487336      23.941015970704992      9.9951533751190329
   197   1   0.0      5.6879983831851195      22.346294881111124      9.9986014964060761
   198   2  -0.0       9.379010978098874      22.355524000291616      8.4029480183138556
   199   2  -0.0       9.371659662607625      22.351079429330582      11.587038018449483
   200   2  -0.0      6.6013727812340921      27.130009002122843      8.4066210583906056
   201   2  -0.0      6.6060529189206036      27.126075642093816       11.59045505365887
   202   1   0.0      8.4445163323487336      27.127061478451523      9.9951533751190329
   203   1   0.0      5.6879983831851195      25.532340388857655      9.9986014964060761
   204   2  -0.0       9.379010978098874      25.541569508038148      8.4029480183138556
   205   2  -0.0       9.371659662607625      25.537124937077113      11.587038018449483
   206   2  -0.0      6.6013727812340921      30.316054509869375      8.4066210583906056
   207   2  -0.0      6.6060529189206036      30.312121149840348       11.59045505365887
   208   1   0.0      8.4445163323487336      30.313106986198054      9.9951533751190329
   209   1   0.0      5.6879983831851195      28.718385896604186      9.9986014964060761
   210   2  -0.0       9.379010978098874      28.727615015784679      8.4029480183138556
   211   2  -0.0       9.371659662607625      28.723170444823644      11.587038018449483
   212   2  -0.0      6.6013727812340921      33.502100017615909      8.4066210583906056
   213   2  -0.0      6.6060529189206036      33.498166657586886       11.59045505365887
   214   1   0.0      8.4445163323487336      33.499152493944592      9.9951533751190329
   215   1   0.0      5.6879983831851195      31.904431404350721      9.9986014964060761
   216   2  -0.0       9.379010978098874      31.913660523531213      8.4029480183138556
   217   2  -0.0       9.371659662607625      31.909215952570179      11.587038018449483
   218   2  -0.0      6.6013727812340921      36.688145525362444      8.4066210583906056
   219   2  -0.0      6.6060529189206036       36.68421216533342       11.59045505365887
   220   1   0.0      8.4445163323487336       36.68519800169112      9.9951533751190329
   221   1   0.0      5.6879983831851195      35.090476912097259      9.9986014964060761
   222   2  -0.0       9.379010978098874      35.099706031277748      8.4029480183138556
   223   2  -0.0       9.371659662607625      35.095261460316713      11.587038018449483
   224   2  -0.0      6.6013727812340921      39.874191033108971      8.4066210583906056
   225   2  -0.0      6.6060529189206036      39.870257673079948       11.59045505365887
   226   1   0.0      8.4445163323487336      39.871243509437647      9.9951533751190329
   227   1   0.0      5.6879983831851195      38.276522419843786      9.9986014964060761
   228   2  -0.0       9.379010978098874      38.285751539024275      8.4029480183138556
   229   2  -0.0       9.371659662607625      38.281306968063241      11.587038018449483
   230   2  -0.0      6.6013727812340921      43.060236540855506      8.4066210583906056
   231   2  -0.0      6.6060529189206036      43.056303180826482       11.59045505365887
   232   1   0.0      8.4445163323487336      43.057289017184189      9.9951533751190329
   233   1   0.0      5.6879983831851195      41.462567927590321      9.9986014964060761
   234   2  -0.0       9.379010978098874       41.47179704677081      8.4029480183138556
   235   2  -0.0       9.371659662607625      41.467352475809776      11.587038018449483
   236   1   0.0      5.6879983831851195      44.648613435336856      9.9986014964060761
   237   2  -0.0       9.379010978098874      47.843888062263872      8.4029480183138556
   238   2  -0.0       9.371659662607625      47.839443491302838      11.587038018449483
   239   2  -0.0      6.6013727812340921      52.618373064095103      8.4066210583906056
   240   2  -0.0      6.6060529189206036      52.614439704066079       11.59045505365887
   241   1   0.0      8.4445163323487336      52.615425540423786      9.9951533751190329
   242   1   0.0      5.6879983831851195      51.020704450829918      9.9986014964060761
   243   2  -0.0      6.6013727812340921      55.804418571841637      8.4066210583906056
   244   2  -0.0      6.6060529189206036      55.800485211812614       11.59045505365887
   245   1   0.0      8.4445163323487336      55.801471048170313      9.9951533751190329
   246   1   0.0      5.6879983831851195      54.206749958576452      9.9986014964060761
   247   2  -0.0       9.379010978098874      54.215979077756941      8.4029480183138556
   248   2  -0.0       9.371659662607625      54.211534506795907      11.587038018449483
   249   2  -0.0      6.6013727812340921      58.990464079588165      8.4066210583906056
   250   2  -0.0      6.6060529189206036      58.986530719559141       11.59045505365887
   251   1   0.0      8.4445163323487336      58.987516555916841      9.9951533751190329
   252   1   0.0      5.6879983831851195       57.39279546632298      9.9986014964060761
   253   2  -0.0       9.379010978098874      57.402024585503469      8.4029480183138556
   254   2  -0.0       9.371659662607625      57.397580014542434      11.587038018449483
   255   2  -0.0      6.6013727812340921      62.176509587334699      8.4066210583906056
   256   2  -0.0      6.6060529189206036      62.172576227305676       11.59045505365887
   257   1   0.0      8.4445163323487336      62.173562063663383      9.9951533751190329
   258   1   0.0      5.6879983831851195      60.578840974069514      9.9986014964060761
   259   2  -0.0       9.379010978098874      60.588070093250003      8.4029480183138556
   260   2  -0.0       9.371659662607625      60.583625522288969      11.587038018449483
   261   2  -0.0      6.6013727812340921      65.362555095081234      8.4066210583906056
   262   2  -0.0      6.6060529189206036      65.358621735052211       11.59045505365887
   263   1   0.0      8.4445163323487336       65.35960757140991      9.9951533751190329
   264   1   0.0      5.6879983831851195      63.764886481816049      9.9986014964060761
   265   2  -0.0       9.379010978098874      63.774115600996538      8.4029480183138556
   266   2  -0.0       9.371659662607625      63.769671030035504      11.587038018449483
   267   2  -0.0      6.6013727812340921      68.548600602827761      8.4066210583906056
   268   2  -0.0      6.6060529189206036      68.544667242798738       11.59045505365887
   269   1   0.0      8.4445163323487336      68.545653079156438      9.9951533751190329
   270   1   0.0      5.6879983831851195      66.950931989562577      9.9986014964060761
   271   2  -0.0       9.379010978098874      66.960161108743065      8.4029480183138556
   272   2  -0.0       9.371659662607625      66.955716537782038      11.587038018449483
   273   2  -0.0      6.6013727812340921      71.734646110574303      8.4066210583906056
   274   2  -0.0      6.6060529189206036       71.73071275054528       11.59045505365887
   275   1   0.0      8.4445163323487336      71.731698586902979      9.9951533751190329
   276   1   0.0      5.6879983831851195      70.136977497309118      9.9986014964060761
   277   2  -0.0       9.379010978098874      70.146206616489607      8.4029480183138556
   278   2  -0.0       9.371659662607625       70.14176204552858      11.587038018449483
   279   2  -0.0      6.6013727812340921      74.920691618320831      8.4066210583906056
   280   2  -0.0      6.6060529189206036      74.916758258291807       11.59045505365887
   281   1   0.0      8.4445163323487336      74.917744094649507      9.9951533751190329
   282   1   0.0      5.6879983831851195      73.323023005055646      9.9986014964060761
   283   2  -0.0       9.379010978098874      73.332252124236135      8.4029480183138556
   284   2  -0.0       9.371659662607625      73.327807553275107      11.587038018449483
   285   2  -0.0      6.6013727812340921      78.106737126067358      8.4066210583906056
   286   2  -0.0      6.6060529189206036      78.102803766038335       11.59045505365887
   287   1   0.0      8.4445163323487336      78.103789602396034      9.9951533751190329
   288   1   0.0      5.6879983831851195      76.509068512802173      9.9986014964060761
   289   2  -0.0       9.379010978098874      76.518297631982662      8.4029480183138556
   290   2  -0.0       9.371659662607625      76.513853061021635      11.587038018449483
   291   1   0.0      8.4445163323487336      81.289835110142576      9.9951533751190329
   292   1   0.0      5.6879983831851195      79.695114020548715      9.9986014964060761
   293   2  -0.0       9.379010978098874      79.704343139729204      8.4029480183138556
   294   2  -0.0       9.371659662607625      79.699898568768177      11.587038018449483
   295   2  -0.0      6.6013727812340921      84.478828141560427      8.4066210583906056
   296   2  -0.0      6.6060529189206036      84.474894781531404       11.59045505365887
   297   1   0.0      8.4445163323487336      84.475880617889104      9.9951533751190329
   298   2  -0.0       9.379010978098874      82.890388647475731      8.4029480183138556
   299   2  -0.0       9.371659662607625      82.885944076514704      11.587038018449483
   300   2  -0.0      6.6013727812340921      87.664873649306955      8.4066210583906056
   301   2  -0.0      6.6060529189206036      87.660940289277931       11.59045505365887
   302   1   0.0      8.4445163323487336      87.661926125635631      9.9951533751190329
   303   1   0.0      5.6879983831851195       86.06720503604177      9.9986014964060761
   304   2  -0.0       9.379010978098874      86.076434155222259      8.4029480183138556
   305   2  -0.0       9.371659662607625      86.071989584261232      11.587038018449483
   306   2  -0.0      6.6013727812340921      90.850919157053497      8.4066210583906056
   307   2  -0.0      6.6060529189206036      90.846985797024473       11.59045505365887
   308   1   0.0      8.4445163323487336      90.847971633382173      9.9951533751190329
   309   1   0.0      5.6879983831851195      89.253250543788312      9.9986014964060761
   310   2  -0.0       9.379010978098874      89.262479662968801      8.4029480183138556
   311   2  -0.0       9.371659662607625      89.258035092007773      11.587038018449483
   312   2  -0.0      6.6013727812340921      94.036964664800024      8.4066210583906056
   313   2  -0.0      6.6060529189206036      94.033031304771001       11.59045505365887
   314   1   0.0      8.4445163323487336        94.0340171411287      9.9951533751190329
   315   1   0.0      5.6879983831851195      92.439296051534839      9.9986014964060761
   316   2  -0.0       9.379010978098874      92.448525170715328      8.4029480183138556
   317   2  -0.0       9.371659662607625      92.444080599754301      11.587038018449483
   318   2  -0.0      12.119807720230284      1.6416449401505859      8.4066210583906056
   319   2  -0.0      12.124487857916796      1.6377115801215589       11.59045505365887
   320   1   0.0      13.962951271344926       1.638697416479264      9.9951533751190329
   321   1   0.0      11.206433322181311    0.043976326885396169      9.9986014964060761
   322   2  -0.0      14.897445917095066    0.053205446065888062      8.4029480183138556
   323   2  -0.0      14.890094601603817    0.048760875104855446      11.587038018449483
   324   2  -0.0      12.119807720230284      4.8276904478971181      8.4066210583906056
   325   2  -0.0      12.124487857916796      4.8237570878680911       11.59045505365887
   326   1   0.0      13.962951271344926      4.8247429242257969      9.9951533751190329
   327   1   0.0      11.206433322181311      3.2300218346319287      9.9986014964060761
   328   2  -0.0      14.897445917095066      3.2392509538124203      8.4029480183138556
   329   2  -0.0      14.890094601603817      3.2348063828513878      11.587038018449483
   330   2  -0.0      12.119807720230284        8.01373595564365      8.4066210583906056
   331   2  -0.0      12.124487857916796       8.009802595614623       11.59045505365887
   332   1   0.0      13.962951271344926      8.0107884319723297      9.9951533751190329
   333   1   0.0      11.206433322181311      6.4160673423784607      9.9986014964060761
   334   2  -0.0      14.897445917095066      6.4252964615589532      8.4029480183138556
   335   2  -0.0      14.890094601603817      6.4208518905979206      11.587038018449483