LAMMPS (29 Sep 2021 - Update 3)
variable mode index file

if "${mode} == file" then     "message client md file tmp.couple" elif "${mode} == zmq"     "message client md zmq localhost:5555"
message client md file tmp.couple
# Units
    units       metal
    dimension   3
    boundary    p p p
    atom_style  atomic
    atom_modify sort 0 0.0 map yes

# Simulation variables
    timestep 0.0005

# Simulation cell
    read_data POSCAR.lmp
Reading data file ...
  orthogonal box = (0.0000000 0.0000000 0.0000000) to (5.4687276 5.4687276 5.4687276)
  1 by 1 by 1 MPI processor grid
  reading atoms ...
  8 atoms
  read_data CPU = 0.001 seconds
    mass 1 28.0855

# vasp md interface
    fix fxlmpvasp all client/md
    fix_modify fxlmpvasp energy yes


# Initial minimization
    # thermo 1
    # fix frelax all box/relax iso 0.0 vmax 0.01
    # thermo_style custom step pe lx ly lz pxx pyy pzz press
    # min_style cg
    # dump dmpRelax all atom 1 trj-relax.lammpstrj
    # minimize 1e-10 1e-10 5000 10000
    # unfix frelax
    # undump dmpRelax
    # write_data CONTCAR.lmp

# Heating 300K
    thermo 1
    velocity all create 300 12345 loop geom
    thermo_style custom step temp pe ke lx ly lz  pxx pyy pzz press
    fix	fheating all npt temp 300.0 300.0 $(100*dt) iso 0 0 $(1000*dt)
    fix	fheating all npt temp 300.0 300.0 0.050000000000000002776 iso 0 0 $(1000*dt)
    fix	fheating all npt temp 300.0 300.0 0.050000000000000002776 iso 0 0 0.5
    dump dmpHeat all atom 1 trj-heat.lammpstrj
    run 6000
WARNING: Communication cutoff is 0.0. No ghost atoms will be generated. Atoms may get lost. (../comm_brick.cpp:209)
Per MPI rank memory allocation (min/avg/max) = 3.301 | 3.301 | 3.301 Mbytes
Step Temp PotEng KinEng Lx Ly Lz Pxx Pyy Pzz Press 
       0          300    -43.28348    0.2714463    5.4687276    5.4687276    5.4687276    2706.0275      3245.58    2417.7225    2789.7766 
       1    299.67801   -43.283189   0.27115496    5.4687312    5.4687312    5.4687312    2728.0718    3264.6881    2439.6146    2810.7915 
       2    298.71544   -43.282319   0.27028401    5.4687421    5.4687421    5.4687421    2741.0157    3267.9287    2453.2911    2820.7452 
       3    297.12121    -43.28088   0.26884151    5.4687603    5.4687603    5.4687603    2751.6043    3262.4721    2465.2497     2826.442 
       4    294.90825    -43.27888   0.26683918    5.4687858    5.4687858    5.4687858    2761.7938    3250.3513    2477.5127    2829.8859 
       5    292.09373   -43.276338   0.26429255    5.4688186    5.4688186    5.4688186    2776.5803    3237.0062    2495.1743    2836.2536 
       6    288.69883   -43.273272   0.26122077    5.4688587    5.4688587    5.4688587    2792.4161    3218.8103    2514.6385     2841.955 
       7     284.7476   -43.269699   0.25764561    5.4689062    5.4689062    5.4689062    2808.6121    3194.8163     2535.168    2846.1988 
       8    280.26733   -43.265645   0.25359177     5.468961     5.468961     5.468961    2830.2298    3171.2945    2562.2319    2854.5854 
       9    275.28886   -43.261139   0.24908715    5.4690231    5.4690231    5.4690231    2851.4863    3141.9234    2590.0775    2861.1624 
      10    269.84586    -43.25621    0.2441622    5.4690926    5.4690926    5.4690926    2872.3613    3107.3444    2618.1874    2865.9644 
      11    263.97457   -43.250891   0.23884974    5.4691695    5.4691695    5.4691695    2892.2116    3066.9905    2646.1657    2868.4559 
      12    257.71379   -43.245221   0.23318485    5.4692537    5.4692537    5.4692537    2916.2946    3026.6095    2679.4623    2874.1221 
      13    251.10368   -43.239217   0.22720389    5.4693453    5.4693453    5.4693453    2932.6064    2974.0831    2705.8798    2870.8564 
      14    244.18713   -43.232942   0.22094565    5.4694442    5.4694442    5.4694442    2937.9428    2905.9459    2722.7416    2855.5434 
      15    237.00809   -43.226431    0.2144499    5.4695504    5.4695504    5.4695504    2953.4414    2845.0267    2750.2907    2849.5863 
      16    229.61064   -43.219706   0.20775654    5.4696639    5.4696639    5.4696639    2969.0091     2781.244    2779.0068    2843.0866 
      17    222.04023   -43.212806   0.20090666    5.4697846    5.4697846    5.4697846    2980.3933    2710.4671     2804.129    2831.6631 
      18    214.34298   -43.205794   0.19394203    5.4699125    5.4699125    5.4699125    2986.1532    2631.4977    2824.6693    2814.1067 
      19    206.56552   -43.198703   0.18690482    5.4700475    5.4700475    5.4700475    2986.1827    2544.8335    2840.3174    2790.4445 
      20    198.75397   -43.191566   0.17983677    5.4701896    5.4701896    5.4701896    2984.8014    2455.0257    2855.3785    2765.0685 
      21    190.95427   -43.184445   0.17277944    5.4703388    5.4703388    5.4703388    2976.1298    2356.6322    2863.8081      2732.19 
      22    183.21151   -43.177349   0.16577362    5.4704948    5.4704948    5.4704948     2965.285    2254.4707    2870.2119    2696.6559 
      23     175.5699   -43.170351   0.15885934    5.4706576    5.4706576    5.4706576    2940.9081    2138.6981    2864.0024    2647.8695 
      24    168.07264    -43.16347   0.15207566    5.4708272    5.4708272    5.4708272    2912.9459    2018.6098    2854.6307    2595.3955 
      25    160.76123    -43.15675   0.14546014    5.4710032    5.4710032    5.4710032    2880.4645    1894.2329    2840.9434    2538.5469 
      26    153.67565    -43.15023   0.13904896    5.4711857    5.4711857    5.4711857     2833.167    1755.4323    2813.0554    2467.2182 
      27    146.85396   -43.143939   0.13287655    5.4713744    5.4713744    5.4713744    2785.6068    1617.0302    2784.5211    2395.7194 
      28     140.3321   -43.137913   0.12697543    5.4715691    5.4715691    5.4715691    2721.7729    1463.7016    2740.0126    2308.4957 
      29    134.14368   -43.132173   0.12137602    5.4717696    5.4717696    5.4717696    2651.5132    1305.0119    2688.9883    2215.1711 
      30    128.31999   -43.126768   0.11610662    5.4719757    5.4719757    5.4719757    2569.1759     1136.444    2625.7482     2110.456 
      31    122.88965   -43.121711   0.11119314    5.4721871    5.4721871    5.4721871    2482.1575    965.27321    2557.9188    2001.7832 
      32    117.87858   -43.117024   0.10665901    5.4724036    5.4724036    5.4724036    2384.7778    786.58844    2479.1873    1883.5179 
      33     113.3099   -43.112727   0.10252518    5.4726248    5.4726248    5.4726248     2275.572    597.77467    2388.0485    1753.7984 
      34    109.20374   -43.108831   0.09880984    5.4728505    5.4728505    5.4728505    2153.3975     399.7813    2283.6177    1612.2655 
      35    105.57732   -43.105388  0.095528573    5.4730803    5.4730803    5.4730803     2022.872    196.23392    2170.0562     1463.054 
      36    102.44471   -43.102361  0.092694127    5.4733137    5.4733137    5.4733137    1884.3856   -11.506985    2047.9755    1306.9514 
      37    99.816874   -43.099799  0.090316405    5.4735506    5.4735506    5.4735506    1732.0608   -229.23299    1911.2904    1138.0394 
      38    97.701684   -43.097668  0.088402536    5.4737903    5.4737903    5.4737903    1571.6596   -450.97274    1765.7834    962.15677 
      39    96.103947   -43.096017   0.08695687    5.4740326    5.4740326    5.4740326    1402.3638    -677.5481    1610.1576    778.32444 
      40    95.025304   -43.094809  0.085980892    5.4742769    5.4742769    5.4742769    1219.8349     -912.264    1440.5937    582.72153 
      41    94.464283   -43.094071  0.085473268    5.4745229    5.4745229    5.4745229    1033.3546    -1146.408    1265.9822    384.30959 
      42    94.416394   -43.093787  0.085429937    5.4747699    5.4747699    5.4747699    834.94317   -1387.9406    1078.7676    175.25672 
      43    94.874186   -43.093923  0.085844157    5.4750176    5.4750176    5.4750176    627.39015   -1633.6876    880.55544   -41.913991 
      44    95.827329   -43.094495  0.086706581    5.4752653    5.4752653    5.4752653    411.95798   -1882.0956    673.16936    -265.6561 
      45    97.262711   -43.095487  0.088005345    5.4755126    5.4755126    5.4755126    193.46002   -2127.7486    462.23073   -490.68596 
      46     99.16429   -43.096889  0.089725933    5.4757589    5.4757589    5.4757589   -37.072754   -2380.5803    236.63705   -727.00533 
      47    101.51344   -43.098663  0.091851496    5.4760037    5.4760037    5.4760037   -270.45006   -2630.4548     8.048441   -964.28549 
      48    104.28935   -43.100782  0.094363195    5.4762463    5.4762463    5.4762463   -514.80578    -2886.449    -234.0702    -1211.775 
      49    107.46867   -43.103259  0.097239913    5.4764862    5.4764862    5.4764862   -761.29937   -3138.5209   -479.26177    -1459.694 
      50    111.02571   -43.106039   0.10045839    5.4767228    5.4767228    5.4767228   -1008.4627   -3385.5453    -726.3933   -1706.8004 
      51    114.93271    -43.10911   0.10399353    5.4769555    5.4769555    5.4769555   -1266.6895    -3638.486   -986.31439   -1963.8299 
      52    119.16019   -43.112443   0.10781864    5.4771837    5.4771837    5.4771837    -1519.348   -3880.1524   -1241.9117    -2213.804 
      53    123.67692   -43.115988   0.11190548    5.4774068    5.4774068    5.4774068   -1781.8407   -4125.5842   -1509.0843   -2472.1698 
      54    128.44988   -43.119744   0.11622415    5.4776241    5.4776241    5.4776241    -2039.103   -4361.2202   -1772.1368   -2724.1533 
      55    133.44452   -43.123641   0.12074341    5.4778351    5.4778351    5.4778351   -2304.4156   -4599.0659   -2044.5367   -2982.6727 
      56    138.62549   -43.127674   0.12543126    5.4780392    5.4780392    5.4780392    -2562.992   -4824.8293   -2312.0206   -3233.2806 
      57    143.95655   -43.131789   0.13025491    5.4782357    5.4782357    5.4782357   -2823.5122    -5047.535   -2583.0061   -3484.6844 
      58    149.40004   -43.135981    0.1351803    5.4784241    5.4784241    5.4784241    -3076.551   -5257.5724   -2847.4097   -3727.1777 
      59    154.91774   -43.140192   0.14017283    5.4786038    5.4786038    5.4786038   -3330.2758   -5463.5948   -3114.6879   -3969.5195 
      60    160.47133   -43.144383   0.14519783    5.4787741    5.4787741    5.4787741   -3580.1929   -5660.6639   -3378.4871    -4206.448 
      61    166.02199   -43.148538   0.15022019    5.4789346    5.4789346    5.4789346   -3824.5089   -5847.6933   -3638.4953   -4436.8991 
      62    171.53074   -43.152599   0.15520462    5.4790846    5.4790846    5.4790846   -4064.1941     -6024.96   -3894.7375   -4661.2972 
      63    176.95888   -43.156547   0.16011612    5.4792237    5.4792237    5.4792237   -4296.8202   -6191.9757   -4146.4829   -4878.4263 
      64    182.26877   -43.160333   0.16492061    5.4793514    5.4793514    5.4793514   -4506.9183   -6330.0703   -4376.4617   -5071.1501 
      65    187.42268   -43.163941   0.16958398    5.4794671    5.4794671    5.4794671    -4725.916     -6474.82   -4616.2511   -5272.3291 
      66    192.38251   -43.167343   0.17407174    5.4795704    5.4795704    5.4795704   -4932.9663   -6603.6889   -4844.7988   -5460.4847 
      67    197.11211   -43.170479   0.17835117    5.4796608    5.4796608    5.4796608   -5130.7482   -6720.4579   -5065.5485   -5638.9182 
      68    201.57694   -43.173346   0.18239106     5.479738     5.479738     5.479738   -5318.2881   -6823.6552   -5277.6316    -5806.525 
      69    205.74316   -43.175908   0.18616074    5.4798015    5.4798015    5.4798015   -5492.7269   -6910.9088   -5477.2625   -5960.2994 
      70    209.57855    -43.17812   0.18963107    5.4798509    5.4798509    5.4798509    -5657.922   -6985.5935   -5668.3714   -6103.9623 
      71    213.05276   -43.179974   0.19277461     5.479886     5.479886     5.479886   -5812.2678   -7047.2426   -5850.1763   -6236.5622 
      72    216.13703   -43.181446   0.19556533    5.4799063    5.4799063    5.4799063   -5951.1722     -7091.11   -6017.1307   -6353.1376 
      73     218.8047   -43.182522   0.19797909    5.4799117    5.4799117    5.4799117   -6074.4308   -7117.2295   -6169.1469   -6453.6024 
      74    221.03162   -43.183167   0.19999405    5.4799018    5.4799018    5.4799018   -6186.2129   -7130.2772   -6310.7866   -6542.4256 
      75    222.79559   -43.183371   0.20159013    5.4798765    5.4798765    5.4798765   -6286.4377   -7129.4874   -6441.3054   -6619.0768 
      76    224.07726    -43.18312   0.20274982    5.4798356    5.4798356    5.4798356    -6370.113   -7110.9416   -6555.7194   -6678.9247 
      77    224.86057   -43.182407   0.20345857    5.4797789    5.4797789    5.4797789   -6436.8732   -7074.0833   -6653.4077   -6721.4547 
      78    225.13147   -43.181212   0.20370368    5.4797064    5.4797064    5.4797064   -6491.1302   -7023.9771   -6739.8519   -6751.6531 
      79    224.87883   -43.179534   0.20347509    5.4796179    5.4796179    5.4796179   -6529.0922   -6955.7758   -6809.2211   -6764.6964 
      80    224.09483    -43.17738   0.20276572    5.4795134    5.4795134    5.4795134   -6549.1209   -6870.1575   -6861.5199   -6760.2661 
      81    222.77513   -43.174738   0.20157162     5.479393     5.479393     5.479393   -6556.2843   -6771.2582   -6901.2621   -6742.9349 
      82    220.91781   -43.171604   0.19989108    5.4792567    5.4792567    5.4792567   -6550.7417   -6659.2279   -6927.9854   -6712.6517 
      83    218.52442   -43.168005   0.19772548    5.4791046    5.4791046    5.4791046   -6522.6503   -6525.1219   -6932.1071   -6659.9598 
      84    215.60065    -43.16393      0.19508    5.4789367    5.4789367    5.4789367   -6486.3745   -6383.2216   -6928.6722   -6599.4228 
      85    212.15538   -43.159399   0.19196264    5.4787532    5.4787532    5.4787532   -6428.3734   -6220.2206   -6902.2975   -6516.9638 
      86    208.20045   -43.154423   0.18838414    5.4785544    5.4785544    5.4785544   -6358.1665   -6045.3855   -6863.2364   -6422.2628 
      87    203.75088   -43.149009   0.18435808    5.4783404    5.4783404    5.4783404   -6275.3835   -5858.8185   -6811.4753   -6315.2258 
      88    198.82587   -43.143202   0.17990182    5.4781114    5.4781114    5.4781114   -6176.7625   -5657.3336   -6742.1386   -6192.0782 
      89    193.44764    -43.13701   0.17503549    5.4778679    5.4778679    5.4778679   -6066.1504   -5445.2683   -6660.3282    -6057.249 
      90    187.64117   -43.130453   0.16978167    5.4776101    5.4776101    5.4776101   -5939.2332   -5218.7155   -6561.4089   -5906.4525 
      91    181.43526   -43.123582   0.16416644    5.4773383    5.4773383    5.4773383   -5802.2981   -4983.4372   -6450.1637   -5745.2997 
      92    174.86151   -43.116388   0.15821837     5.477053     5.477053     5.477053   -5650.5083   -4734.8612   -6322.5766   -5569.3154 
      93    167.95502   -43.108964   0.15196923    5.4767545    5.4767545    5.4767545   -5501.6768   -4490.7919   -6196.4864   -5396.3184 
      94    160.75319   -43.101291   0.14545287    5.4764433    5.4764433    5.4764433   -5330.1333   -4227.5095   -6046.6018   -5201.4148 
      95    153.29525   -43.093438   0.13870476    5.4761198    5.4761198    5.4761198   -5149.4485   -3957.6709   -5885.9161   -4997.6785 
      96    145.62345   -43.085432   0.13176316    5.4757845    5.4757845    5.4757845   -4955.8963    -3677.914   -5710.6051   -4781.4718 
      97    137.78242   -43.077319   0.12466843    5.4754379    5.4754379    5.4754379    -4759.962   -3398.4879    -5530.457    -4562.969 
      98    129.81888   -43.069152   0.11746285    5.4750806    5.4750806    5.4750806   -4551.7104   -3109.7567   -5335.3918   -4332.2863 
      99    121.78098   -43.060961   0.11018999     5.474713     5.474713     5.474713   -4337.0748   -2817.9102   -5131.7469   -4095.5773 
     100    113.71833   -43.052784   0.10289474    5.4743358    5.4743358    5.4743358   -4122.9235   -2530.3789   -4926.6977   -3860.0001 
     101      105.682   -43.044698  0.095623297    5.4739495    5.4739495    5.4739495    -3896.907   -2234.9416   -4707.6722   -3613.1736 
     102    97.723687   -43.036737  0.088422446    5.4735546    5.4735546    5.4735546    -3666.366   -1938.5978   -4480.2556   -3361.7398 
     103    89.895665   -43.028938  0.081339487    5.4731518    5.4731518    5.4731518   -3436.3034   -1647.5591   -4251.5311   -3111.7979 
     104    82.250635   -43.021373  0.074422103    5.4727417    5.4727417    5.4727417   -3202.9771   -1357.2925   -4015.8975   -2858.7223 
     105    74.840887   -43.014059  0.067717607    5.4723248    5.4723248    5.4723248   -2965.8572   -1068.4163   -3775.0572   -2603.1102 
     106      67.7181   -43.007048   0.06127276    5.4719018    5.4719018    5.4719018   -2730.7148   -786.79283    -3532.912   -2350.1399 
     107      60.9331   -43.000402   0.05513355    5.4714732    5.4714732    5.4714732   -2493.8902   -507.63483   -3285.6294   -2095.7182 
     108    54.535667   -42.994136  0.049345018    5.4710397    5.4710397    5.4710397   -2259.8914   -237.11651   -3039.9547   -1845.6542 
     109    48.574148   -42.988333   0.04395091    5.4706019    5.4706019    5.4706019   -2024.6331    28.335331   -2790.7597   -1595.6858 
     110    43.094724      -42.983  0.038993012    5.4701603    5.4701603    5.4701603   -1793.1703    284.97642   -2542.5349   -1350.2429 
     111    38.141009   -42.978177  0.034510787    5.4697155    5.4697155    5.4697155   -1566.0882     531.3178   -2295.9491   -1110.2398 
     112    33.754025   -42.973885  0.030541351    5.4692681    5.4692681    5.4692681   -1339.6669    771.40847   -2047.8265   -872.02831 
     113    29.971525   -42.970172  0.027118866    5.4688187    5.4688187    5.4688187   -1116.6623    1001.1503   -1801.8997   -639.13726 
     114    26.827882   -42.967081  0.024274432    5.4683677    5.4683677    5.4683677   -899.24234    1219.9461   -1557.8814   -412.39254 
     115    24.353812   -42.964588  0.022035841    5.4679158    5.4679158    5.4679158   -686.35262    1426.3875    -1318.448   -192.80435 
     116    22.575837    -42.96278  0.020427091    5.4674635    5.4674635    5.4674635   -474.19133    1626.6004   -1076.4493    25.319909 
     117    21.516227   -42.961601  0.019468334    5.4670113    5.4670113    5.4670113   -271.56287     1810.464   -843.54841    231.78424 
     118    21.192444   -42.961073  0.019175368    5.4665597    5.4665597    5.4665597   -73.660074    1981.7096   -614.60322    431.14878 
     119    21.616705    -42.96124  0.019559249    5.4661091    5.4661091    5.4661091    118.73746    2141.6976   -389.82959    623.53516 
     120    22.796409   -42.962074   0.02062667      5.46566      5.46566      5.46566    307.24694     2290.894   -168.25921    809.96059 
     121    24.733626   -42.963582  0.022379505    5.4652129    5.4652129    5.4652129    491.09791    2428.9799    49.231021    989.76962 
     122    27.424934   -42.965741  0.024814657    5.4647682    5.4647682    5.4647682    666.28285    2551.0217    257.33953    1158.2147 
     123    30.861533   -42.968524  0.027924163    5.4643263    5.4643263    5.4643263    837.73291    2663.8294    461.98831    1321.1835 
     124    35.028755   -42.971931  0.031694754    5.4638876    5.4638876    5.4638876    1006.4746    2767.0348    664.55353    1479.3543 
     125    39.906603   -42.975932  0.036108333    5.4634524    5.4634524    5.4634524    1172.3532    2861.6472    864.13216    1632.7109 
     126    45.469697   -42.980519  0.041141937    5.4630213    5.4630213    5.4630213    1332.2282    2943.2392    1055.3248    1776.9307 
     127    51.686915   -42.985638  0.046767407    5.4625944    5.4625944    5.4625944    1489.8496    3017.3384     1244.553     1917.247 
     128    58.522456   -42.991223  0.052952348    5.4621722    5.4621722    5.4621722    1643.0081    3081.1338    1428.2885    2050.8101 
     129    65.935768   -42.997265  0.059660068     5.461755     5.461755     5.461755    1795.2239     3139.084    1609.3617    2181.2232 
     130     73.88102   -43.003731    0.0668491    5.4613431    5.4613431    5.4613431     1943.938    3187.6058    1785.4122     2305.652 
     131    82.308105   -43.010533  0.074474104    5.4609368    5.4609368    5.4609368    2089.5219    3228.4928    1957.4776    2425.1641 
     132    91.163505   -43.017643  0.082486655    5.4605364    5.4605364    5.4605364    2261.9628     3294.521    2154.3945    2570.2928 
     133    100.38988   -43.025028  0.090834873    5.4601423    5.4601423    5.4601423    2412.9592    3332.3699     2327.193    2690.8407 
     134    109.92672   -43.032607  0.099464008    5.4597547    5.4597547    5.4597547    2561.6341    3365.3373    2497.6686    2808.2134 
     135    119.71176   -43.040314   0.10831772     5.459374     5.459374     5.459374    2710.1756     3394.526    2665.9368    2923.5461 
     136    129.68067   -43.048082   0.11733779    5.4590005    5.4590005    5.4590005    2832.7073    3393.8966    2807.5477    3011.3838 
     137    139.76713   -43.055918   0.12646423    5.4586344    5.4586344    5.4586344    2988.2575    3425.8046    2979.4157    3131.1592 
     138     149.9041   -43.063706   0.13563638    5.4582759    5.4582759    5.4582759    3165.6949    3478.1061    3169.7786    3271.1932 
     139    160.02535   -43.071392    0.1447943    5.4579255    5.4579255    5.4579255    3323.5849    3509.4945    3341.2237    3391.4344 
     140    170.06449   -43.078973   0.15387793    5.4575834    5.4575834    5.4575834    3489.2948    3548.6003     3518.819    3518.9047 
     141    179.95562   -43.086328   0.16282763    5.4572499    5.4572499    5.4572499    3653.8993    3585.3088     3693.594    3644.2674 
     142    189.63499    -43.09344   0.17158572    5.4569254    5.4569254    5.4569254    3821.7126         3626    3870.5863    3772.7663 
     143    199.04092   -43.100243   0.18009641    5.4566102    5.4566102    5.4566102    3997.9667    3675.8569    4055.0548    3909.6261 
     144     208.1144   -43.106712   0.18830628    5.4563047    5.4563047    5.4563047    4179.3764    3732.7057    4244.2468    4052.1096 
     145    216.80016   -43.112778   0.19616534    5.4560091    5.4560091    5.4560091    4360.9324    3790.9651    4432.1993    4194.6989 
     146    225.04574   -43.118437   0.20362611    5.4557238    5.4557238    5.4557238    4552.3609     3861.672     4630.033     4348.022 
     147    232.80334   -43.123618   0.21064536    5.4554493    5.4554493    5.4554493    4743.8586     3935.847    4827.5811    4502.4289 
     148    240.03013   -43.128305   0.21718431    5.4551858    5.4551858    5.4551858     4940.604    4017.8624    5030.4725    4662.9796 
     149     246.6871   -43.132472   0.22320767    5.4549338    5.4549338    5.4549338    5147.4482    4113.6676    5243.1647    4834.7602 
     150    252.74106   -43.136073   0.22868542    5.4546937    5.4546937    5.4546937    5353.8602     4214.451    5457.3234    5008.5449 
     151     258.1633   -43.139119   0.23359158     5.454466     5.454466     5.454466    5562.6887    4319.3049    5671.4613     5184.485 
     152    262.93118   -43.141588   0.23790566    5.4542509    5.4542509    5.4542509    5780.6947    4439.8513    5897.8393    5372.7951 
     153    267.02786   -43.143463   0.24161241    5.4540491    5.4540491    5.4540491    5998.5743    4564.9942    6123.9064    5562.4916 
     154    270.44136   -43.144742   0.24470103    5.4538609    5.4538609    5.4538609    6220.5342    4699.6738    6355.8465    5758.6849 
     155    273.16601   -43.145429   0.24716635    5.4536869    5.4536869    5.4536869    6442.5779    4839.0984    6588.0181    5956.5648 
     156    275.20104   -43.145524   0.24900768    5.4535274    5.4535274    5.4535274    6668.1182    4988.8084    6825.8478    6160.9248 
     157    276.55143   -43.145046   0.25022955    5.4533831    5.4533831    5.4533831    6897.1432    5147.9045    7068.4628    6371.1702 
     158    277.22752   -43.143979   0.25084128    5.4532543    5.4532543    5.4532543    7124.2715    5310.9173    7311.2823     6582.157 
     159    277.24446   -43.142372   0.25085661    5.4531416    5.4531416    5.4531416    7348.8469    5477.2649    7551.9966    6792.7028 
     160    276.62253   -43.140229   0.25029388    5.4530455    5.4530455    5.4530455    7570.9238    5647.0931     7791.739     7003.252 
     161    275.38625   -43.137589   0.24917527    5.4529665    5.4529665    5.4529665    7793.7586     5823.821    8034.5691    7217.3829 
     162    273.56515    -43.13447    0.2475275    5.4529051    5.4529051    5.4529051    7996.4735    5985.3682    8258.4163    7413.4193 
     163    271.19182   -43.130899   0.24538006    5.4528617    5.4528617    5.4528617    8216.6944    6171.3568    8500.6722    7629.5745 
     164    268.30288   -43.126927   0.24276608     5.452837     5.452837     5.452837    8425.2737    6352.1952    8733.3671    7836.9453 
     165    264.93882   -43.122566   0.23972221    5.4528312    5.4528312    5.4528312    8632.4968    6536.9931    8966.0137    8045.1679 
     166    261.14233   -43.117878   0.23628707     5.452845     5.452845     5.452845    8827.7665     6715.666    9187.5462    8243.6596 
     167    256.95856   -43.112888    0.2325015    5.4528789    5.4528789    5.4528789    9021.0801    6897.5206    9407.9933     8442.198 
     168    252.43541   -43.107661   0.22840886    5.4529332    5.4529332    5.4529332    9204.9818     7075.333    9620.2884    8633.5344 
     169    247.62267   -43.102209   0.22405419    5.4530085    5.4530085    5.4530085    9374.9676    7244.1808    9818.7398    8812.6294 
     170    242.57114     -43.0966   0.21948347    5.4531051    5.4531051    5.4531051    9535.0901    7407.2531    10007.159    8983.1674 
     171     237.3329   -43.090886    0.2147438    5.4532234    5.4532234    5.4532234     9689.391    7568.9196    10190.472    9149.5941 
     172    231.96057   -43.085091    0.2098828     5.453364     5.453364     5.453364    9826.4958    7717.6819    10356.416    9300.1978 
     173    226.50709   -43.079277   0.20494838     5.453527     5.453527     5.453527    9947.1559    7853.0792    10504.846     9435.027 
     174    221.02529   -43.073489   0.19998833    5.4537128    5.4537128    5.4537128    10059.679    7984.0638    10645.128     9562.957 
     175    215.56775   -43.067773   0.19505023    5.4539218    5.4539218    5.4539218     10154.82    8099.9262    10766.097    9673.6144 
     176    210.18611    -43.06217   0.19018081    5.4541541    5.4541541    5.4541541    10235.321    8203.5877     10871.69    9770.1996 
     177    204.93092   -43.056716    0.1854258    5.4544101    5.4544101    5.4544101      10296.3    8290.6118    10956.218    9847.7098 
     178    199.85123   -43.051472   0.18082959    5.4546899    5.4546899    5.4546899    10342.837    8364.1021    11023.824    9910.2542 
     179     194.9945   -43.046477   0.17643512    5.4549936    5.4549936    5.4549936    10373.263    8422.6849    11073.306    9956.4179 
     180    190.40615   -43.041745   0.17228349    5.4553214    5.4553214    5.4553214    10383.062    8461.5383    11099.821    9981.4736 
     181    186.12879   -43.037317   0.16841324    5.4556733    5.4556733    5.4556733    10376.082    8484.5946    11107.254    9989.3102 
     182    182.20319   -43.033283   0.16486128    5.4560494    5.4560494    5.4560494    10347.216    8486.1812    11088.714    9974.0372 
     183     178.6675   -43.029587   0.16166211    5.4564496    5.4564496    5.4564496    10301.882     8470.646    11050.982    9941.1699 
     184    175.55584    -43.02634   0.15884661    5.4568739    5.4568739    5.4568739    10239.243    8436.9034    10992.101    9889.4158 
     185    172.89991   -43.023521   0.15644347    5.4573221    5.4573221    5.4573221    10152.938    8379.6423    10906.073    9812.8842 
     186    170.72816   -43.021144   0.15447843    5.4577941    5.4577941    5.4577941    10048.978    8303.5481    10798.929    9717.1518 
     187    169.06467   -43.019237   0.15297327    5.4582896    5.4582896    5.4582896    9922.0161     8203.195     10665.42    9596.8771 
     188    167.93056   -43.017835    0.1519471    5.4588084    5.4588084    5.4588084    9776.6107    8082.7794    10508.565    9455.9849 
     189    167.34303   -43.016966   0.15141549    5.4593502    5.4593502    5.4593502    9613.3724    7944.4562    10331.342    9296.3902 
     190    167.31557   -43.016567   0.15139065    5.4599146    5.4599146    5.4599146      9432.23    7784.4343    10130.645    9115.7698 
     191    167.85778   -43.016701   0.15188125    5.4605012    5.4605012    5.4605012    9227.2381    7599.1676    9902.3058    8909.5705 
     192    168.97496   -43.017343   0.15289209    5.4611095    5.4611095    5.4611095    9004.1085    7393.9206     9651.925    8683.3181 
     193    170.66912   -43.018508   0.15442501     5.461739     5.461739     5.461739    8762.8536    7168.3638    9379.1596    8436.7923 
     194    172.93806   -43.020181     0.156478    5.4623892    5.4623892    5.4623892    8504.2123    6922.5514    9085.4096    8170.7244 
     195    175.77553   -43.022355    0.1590454    5.4630593    5.4630593    5.4630593    8227.7551    6657.5924     8769.645    7884.9975 
     196    179.17204   -43.025031   0.16211863    5.4637489    5.4637489    5.4637489    7933.6253    6372.4939    8432.6909    7579.6034 
     197    183.11454   -43.028164   0.16568589     5.464457     5.464457     5.464457    7624.8314     6069.927    8077.5257     7257.428 
     198    187.58615   -43.031762   0.16973189    5.4651831    5.4651831    5.4651831    7302.3004    5752.4641    7705.7118    6920.1588 
     199    192.56631   -43.035782   0.17423804    5.4659263    5.4659263    5.4659263    6957.4197     5411.197    7308.3911    6559.0026 
     200    198.03159   -43.040211   0.17918315    5.4666858    5.4666858    5.4666858    6602.1011    5057.4298    6898.0636    6185.8649 
     201    203.95555   -43.045033   0.18454327    5.4674608    5.4674608    5.4674608    6236.7853    4692.2421    6474.9487    5801.3254 
     202    210.30865   -43.050181   0.19029169    5.4682502    5.4682502    5.4682502    5855.4193    4310.4307    6034.4775    5400.1092 
     203    217.05915   -43.055668   0.19639968    5.4690532    5.4690532    5.4690532    5464.5003     3917.779    5582.4147    4988.2313 
     204     224.1729   -43.061453   0.20283635    5.4698689    5.4698689    5.4698689    5059.9873    3510.9341    5115.4849    4562.1354 
     205    231.61311   -43.067462   0.20956841    5.4706962    5.4706962    5.4706962    4645.4891    3094.3239    4637.8757    4125.8962 
     206    239.34132   -43.073693   0.21656106    5.4715341    5.4715341    5.4715341    4227.9577    2674.7522    4156.8563    3686.5221 
     207    247.31734   -43.080108   0.22377793    5.4723816    5.4723816    5.4723816     3798.203    2244.0943    3663.4213    3235.2395 
     208    255.49967   -43.086648   0.23118147    5.4732376    5.4732376    5.4732376    3359.4668     1804.597    3161.4875    2775.1838 
     209    263.84571   -43.093298   0.23873314     5.474101     5.474101     5.474101    2918.0531    1364.0785    2657.7285    2313.2867 
     210    272.31188   -43.100011   0.24639351    5.4749708    5.4749708    5.4749708    2471.5746    920.00339    2150.2594    1847.2791 
     211    280.85413   -43.106735   0.25412272    5.4758458    5.4758458    5.4758458    2018.4921     471.4831     1637.568    1375.8477 
     212    289.42817    -43.11345   0.26188069    5.4767249    5.4767249    5.4767249    1568.7018    28.966652     1130.204    909.29079 
     213    297.99005   -43.120094   0.26962766     5.477607     5.477607     5.477607     1108.927   -420.66193    615.42813    434.56439 
     214    306.49531   -43.126651    0.2773234    5.4784911    5.4784911    5.4784911    652.80522   -863.79301     106.9923   -34.665164 
     215    314.90014   -43.133077   0.28492826    5.4793759    5.4793759    5.4793759    192.18907   -1307.9152   -402.73253    -506.1529 
     216    323.16219   -43.139321   0.29240394    5.4802603    5.4802603    5.4802603   -262.69489   -1741.9579   -902.83562    -969.1628 
     217    331.23995   -43.145376   0.29971287    5.4811433    5.4811433    5.4811433   -716.74624   -2170.9229   -1398.4817   -1428.7169 
     218    339.09268   -43.151166   0.30681818    5.4820238    5.4820238    5.4820238   -1169.8908    -2594.487   -1888.8976   -1884.4251 
     219    346.68066   -43.156709   0.31368395    5.4829005    5.4829005    5.4829005   -1621.3699   -3011.6512    -2373.685   -2335.5687 
     220    353.96675   -43.161947   0.32027656    5.4837726    5.4837726    5.4837726   -2066.4118   -3417.1617   -2846.8847   -2776.8194 
     221    360.91565   -43.166845   0.32656407    5.4846388    5.4846388    5.4846388   -2509.7094   -3815.7444   -3313.6945   -3213.0494 
     222    367.49344   -43.171409   0.33251579    5.4854982    5.4854982    5.4854982   -2921.0079   -4177.2943    -3743.397   -3613.8997 
     223    373.66884   -43.175587   0.33810342    5.4863498    5.4863498    5.4863498   -3350.5717   -4551.5777   -4186.3271   -4029.4922 
     224    379.41282   -43.179346   0.34330069    5.4871925    5.4871925    5.4871925   -3772.4511   -4913.1381   -4616.1936   -4433.9276 
     225    384.69963   -43.182696   0.34808431    5.4880254    5.4880254    5.4880254   -4191.3836    -5265.873   -5038.2786   -4831.8451 
     226    389.50558   -43.185618   0.35243284    5.4888475    5.4888475    5.4888475   -4597.6215   -5601.3769   -5442.2141   -5213.7375 
     227    393.80943   -43.188068   0.35632705    5.4896579    5.4896579    5.4896579   -4996.5376    -5924.381   -5833.5231   -5584.8139 
     228    397.59366    -43.19007   0.35975109    5.4904557    5.4904557    5.4904557   -5387.2563   -6235.4798   -6211.9342   -5944.8901 
     229    400.84317   -43.191595   0.36269133    5.4912399    5.4912399    5.4912399   -5766.2851   -6529.4298    -6573.325     -6289.68 
     230      403.546   -43.192627    0.3651369    5.4920098    5.4920098    5.4920098   -6136.8904   -6811.3667   -6921.7318   -6623.3296 
     231    405.69352   -43.193196   0.36708002    5.4927645    5.4927645    5.4927645   -6494.3215   -7076.0951   -7252.2065   -6940.8744 
     232    407.28023   -43.193253   0.36851571    5.4935032    5.4935032    5.4935032    -6843.715   -7330.2525   -7570.6429   -7248.2035 
     233    408.30353   -43.192824   0.36944161    5.4942252    5.4942252    5.4942252   -7185.1132   -7573.5348   -7877.0202   -7545.2227 
     234    408.76364   -43.191923   0.36985793    5.4949297    5.4949297    5.4949297   -7508.8458   -7797.8666    -8162.474   -7823.0622 
     235    408.66473   -43.190535   0.36976843     5.495616     5.495616     5.495616   -7823.5471   -8012.1038   -8435.6861   -8090.4456 
     236    408.01396   -43.188677    0.3691796    5.4962835    5.4962835    5.4962835   -8120.4349   -8208.1037   -8688.0931   -8338.8772 
     237    406.82058   -43.186372   0.36809981    5.4969315    5.4969315    5.4969315   -8427.1721   -8415.1046    -8948.291   -8596.8559 
     238    405.09748   -43.183629   0.36654071    5.4975593    5.4975593    5.4975593   -8702.6934   -8591.0268     -9175.49   -8823.0701 
     239    402.86064   -43.180441   0.36451678    5.4981665    5.4981665    5.4981665    -8965.279   -8757.4187   -9388.5521   -9037.0833 
     240    400.12858   -43.176845   0.36204475    5.4987524    5.4987524    5.4987524   -9210.5457   -8909.4247   -9583.2621   -9234.4108 
     241    396.92256   -43.172861   0.35914387    5.4993165    5.4993165    5.4993165   -9447.5113   -9057.2629   -9769.5361   -9424.7701 
     242    393.26565   -43.168496   0.35583502    5.4998584    5.4998584    5.4998584   -9666.6814    -9192.314   -9938.1561   -9599.0505 
     243    389.18413   -43.163811   0.35214198    5.5003776    5.5003776    5.5003776   -9873.3531   -9321.3494   -10094.872   -9763.1917 
     244    384.70647   -43.158781    0.3480905    5.5008737    5.5008737    5.5008737   -10063.043   -9440.1648   -10235.751   -9912.9864 
     245    379.86316   -43.153473   0.34370817    5.5013463    5.5013463    5.5013463   -10241.223   -9555.3427   -10367.037   -10054.534 
     246     374.6866   -43.147911   0.33902431    5.5017949    5.5017949    5.5017949   -10402.556   -9662.4983   -10483.273   -10182.776 
     247    369.20941   -43.142091   0.33406843    5.5022194    5.5022194    5.5022194    -10557.88   -9773.4184     -10596.5   -10309.266 
     248    363.46637   -43.136092   0.32887201    5.5026192    5.5026192    5.5026192   -10696.274   -9877.5542   -10695.224   -10423.017 
     249    357.49386   -43.129905   0.32346796    5.5029942    5.5029942    5.5029942   -10818.964   -9977.0111   -10781.614   -10525.863 
     250    351.32888   -43.123579   0.31788975     5.503344     5.503344     5.503344   -10930.847   -10078.371   -10861.002   -10623.406 
     251    345.00941   -43.117152   0.31217177    5.5036684    5.5036684    5.5036684   -11032.234   -10181.386    -10933.83   -10715.817 
     252    338.57351   -43.110632   0.30634843    5.5039671    5.5039671    5.5039671   -11118.085   -10281.879   -10995.256   -10798.406 
     253    332.06017   -43.104109   0.30045502      5.50424      5.50424      5.50424   -11190.083   -10382.155   -11047.419   -10873.219 
     254    325.50889   -43.097573   0.29452728    5.5044867    5.5044867    5.5044867   -11253.093   -10487.098   -11094.541   -10944.911 
     255    318.95773    -43.09105   0.28859965     5.504707     5.504707     5.504707   -11301.935   -10592.308   -11132.904   -11009.049 
     256    312.44487   -43.084606   0.28270669    5.5049009    5.5049009    5.5049009   -11338.222   -10700.036   -11162.947   -11067.068 
     257    306.00829   -43.078256   0.27688274    5.5050682    5.5050682    5.5050682   -11366.737   -10814.736   -11190.078    -11123.85 
     258     299.6849    -43.07205    0.2711612    5.5052086    5.5052086    5.5052086   -11384.144   -10932.042   -11211.158   -11175.781 
     259    293.51033    -43.06598   0.26557431     5.505322     5.505322     5.505322    -11390.09   -11052.648   -11225.471   -11222.736 
     260    287.51929   -43.060124   0.26015349    5.5054084    5.5054084    5.5054084   -11390.586   -11181.403   -11238.708   -11270.232 
     261    281.74485   -43.054453   0.25492866    5.5054675    5.5054675    5.5054675   -11379.606   -11312.918   -11245.357   -11312.627 
     262    276.21873   -43.049067   0.24992851    5.5054992    5.5054992    5.5054992   -11360.952   -11450.145   -11248.139   -11353.079 
     263    270.97092   -43.043926   0.24518018    5.5055034    5.5055034    5.5055034   -11332.358   -11589.687    -11244.59   -11388.878 
     264    266.02862   -43.039074   0.24070828    5.5054801    5.5054801    5.5054801   -11298.309   -11736.393   -11239.936   -11424.879 
     265    261.41737   -43.034571   0.23653593     5.505429     5.505429     5.505429    -11259.12   -11888.857   -11232.732   -11460.237 
     266    257.16044   -43.030401   0.23268417    5.5053502    5.5053502    5.5053502   -11211.119   -12042.873   -11220.402   -11491.464 
     267     253.2783   -43.026582   0.22917153    5.5052435    5.5052435    5.5052435   -11156.268    -12199.36   -11203.137   -11519.588 
     268    249.78861   -43.023124   0.22601398    5.5051088    5.5051088    5.5051088   -11099.347   -12361.929    -11186.43   -11549.235 
     269    246.70587   -43.020062   0.22322465    5.5049461    5.5049461    5.5049461   -11037.181   -12526.145   -11167.343    -11576.89 
     270    244.04192   -43.017381   0.22081426    5.5047553    5.5047553    5.5047553   -10969.175   -12690.289   -11142.423   -11600.629 
     271    241.80597   -43.015117   0.21879112    5.5045363    5.5045363    5.5045363   -10896.196   -12853.832   -11114.053    -11621.36 
     272    240.00364   -43.013266   0.21716033    5.5042891    5.5042891    5.5042891   -10818.722   -13015.779   -11080.526   -11638.342 
     273    238.63682   -43.011819   0.21592361    5.5040135    5.5040135    5.5040135   -10737.276   -13175.654   -11043.549    -11652.16 
     274    237.70396   -43.010753   0.21507954    5.5037097    5.5037097    5.5037097   -10655.708   -13335.332   -11006.509    -11665.85 
     275    237.20051   -43.010123   0.21462401    5.5033775    5.5033775    5.5033775    -10570.86   -13489.532   -10964.501   -11674.964 
     276    237.11856   -43.009842   0.21454985     5.503017     5.503017     5.503017   -10480.993   -13636.604   -10916.798   -11678.132 
     277    237.44643   -43.009973   0.21484652    5.5026281    5.5026281    5.5026281   -10364.496   -13748.712   -10839.896   -11651.034 
     278     238.1696   -43.010454   0.21550086    5.5022109    5.5022109    5.5022109   -10267.817   -13877.681   -10781.385   -11642.294 
     279    239.27049   -43.011297   0.21649697    5.5017654    5.5017654    5.5017654   -10171.853   -14000.482   -10721.607   -11631.314 
     280    240.72831   -43.012452   0.21781603    5.5012917    5.5012917    5.5012917   -10067.494   -14104.865   -10649.725   -11607.361 
     281    242.51902   -43.013935   0.21943631    5.5007898    5.5007898    5.5007898    -9968.014   -14204.823   -10580.951   -11584.596 
     282    244.61562   -43.015679   0.22133335    5.5002598    5.5002598    5.5002598   -9859.7528   -14283.599   -10500.227    -11547.86 
     283    246.98857   -43.017691   0.22348045    5.4997018    5.4997018    5.4997018   -9747.5093   -14345.671   -10411.992   -11501.724 
     284    249.60606   -43.019899   0.22584881     5.499116     5.499116     5.499116   -9633.5513   -14392.512   -10319.959   -11448.674 
     285    252.43498   -43.022354   0.22840848    5.4985024    5.4985024    5.4985024   -9509.8458   -14413.874   -10214.734   -11379.484 
     286     255.4401   -43.024935   0.23112757    5.4978613    5.4978613    5.4978613   -9384.1369   -14417.005   -10103.766   -11301.636 
     287    258.58448   -43.027646   0.23397267    5.4971929    5.4971929    5.4971929   -9252.5236   -14398.613   -9984.3637   -11211.834 
     288    261.83042   -43.030441   0.23690966    5.4964974    5.4964974    5.4964974   -9116.5586   -14356.725   -9857.9493   -11110.411 
     289    265.13941   -43.033293   0.23990371     5.495775     5.495775     5.495775   -8973.0716   -14288.545    -9720.576   -10994.064 
     290    268.47233   -43.036174    0.2429194    5.4950262    5.4950262    5.4950262   -8822.0039   -14193.018   -9572.6756   -10862.566 
     291    271.78978   -43.039046    0.2459211    5.4942511    5.4942511    5.4942511   -8659.3525   -14066.475   -9411.5444   -10712.457 
     292    275.05255   -43.041853   0.24887333    5.4934503    5.4934503    5.4934503   -8490.4082   -13913.244   -9241.8597   -10548.504 
     293    278.22276   -43.044578    0.2517418    5.4926241    5.4926241    5.4926241   -8310.0976   -13727.775    -9058.713   -10365.528 
     294    281.26315   -43.047161    0.2544928    5.4917731    5.4917731    5.4917731   -8122.9503   -13514.759   -8867.0939   -10168.268 
     295    284.13731     -43.0496   0.25709341    5.4908976    5.4908976    5.4908976   -7926.3422     -13271.1   -8665.1364   -9954.1928 
     296    286.81143   -43.051833   0.25951301    5.4899983    5.4899983    5.4899983   -7715.2916   -12993.287   -8447.9789   -9718.8524 
     297    289.25298   -43.053853   0.26172217    5.4890757    5.4890757    5.4890757   -7495.3495   -12683.608   -8221.5506   -9466.8361 
     298    291.43076   -43.055644   0.26369268    5.4881305    5.4881305    5.4881305   -7261.1513   -12339.433   -7979.2603   -9193.2817 
     299    293.31702   -43.057141    0.2653994    5.4871634    5.4871634    5.4871634   -7013.5869    -11964.31   -7724.1565   -8900.6845 
     300    294.88652   -43.058331   0.26681952    5.4861751    5.4861751    5.4861751   -6758.0478   -11559.075   -7461.7565   -8592.9599 
     301    296.11555   -43.059215   0.26793157    5.4851664    5.4851664    5.4851664   -6484.2019   -11115.679   -7181.4537   -8260.4449 
     302    296.98383   -43.059749   0.26871721     5.484138     5.484138     5.484138   -6200.5145   -10642.324   -6893.3754   -7912.0712 
     303     297.4745   -43.059939   0.26916118    5.4830909    5.4830909    5.4830909    -5900.533   -10134.295   -6588.0594   -7540.9624 
     304    297.57318   -43.059737   0.26925047     5.482026     5.482026     5.482026   -5588.1427   -9597.2745   -6272.8799   -7152.7657 
     305    297.26849   -43.059177   0.26897477    5.4809443    5.4809443    5.4809443   -5256.6534   -9022.9057   -5939.3311   -6739.6301 
     306    296.55262   -43.058203   0.26832704    5.4798467    5.4798467    5.4798467   -4918.6356   -8426.5794   -5601.9044   -6315.7065 
     307    295.42124    -43.05685   0.26730334    5.4787342    5.4787342    5.4787342   -4559.0807   -7792.8146   -5245.0214   -5865.6389 
     308    293.87205   -43.055074   0.26590161    5.4776081    5.4776081    5.4776081   -4191.4991   -7137.3449   -4882.2913   -5403.7118 
     309    291.90546   -43.052882    0.2641222    5.4764694    5.4764694    5.4764694   -3807.7979   -6452.5098   -4505.4526   -4921.9201 
     310    289.52573   -43.050305   0.26196896    5.4753193    5.4753193    5.4753193   -3410.4893   -5741.9937   -4117.5475   -4423.3435 
     311     286.7401   -43.047339   0.25944847     5.474159     5.474159     5.474159   -3001.9094   -5007.9899   -3718.9196   -3909.6063 
     312    283.55868   -43.043983   0.25656986    5.4729897    5.4729897    5.4729897   -2577.8718   -4249.9993   -3308.9903   -3378.9538 
     313    279.99432   -43.040265   0.25334474    5.4718127    5.4718127    5.4718127    -2140.705   -3471.0385   -2888.0335    -2833.259 
     314     276.0623   -43.036169   0.24978697    5.4706294    5.4706294    5.4706294   -1697.6752    -2678.099   -2462.5788    -2279.451 
     315     271.7806   -43.031706    0.2459128    5.4694411    5.4694411    5.4694411   -1239.8269   -1864.0133   -2025.2626   -1709.7009 
     316    267.16956   -43.026944   0.24174063    5.4682491    5.4682491    5.4682491   -773.88454   -1037.4175   -1580.3931    -1130.565 
     317    262.25225   -43.021876   0.23729135    5.4670548    5.4670548    5.4670548   -294.77599    -194.8336   -1123.9436   -537.85106 
     318    257.05385   -43.016505   0.23258773    5.4658597    5.4658597    5.4658597    187.69651     651.7267   -666.46398    57.653075 
     319    251.60161   -43.010855   0.22765443    5.4646651    5.4646651    5.4646651    679.05849    1506.6696   -201.84683    661.29375 
     320    245.92484   -43.004999   0.22251796    5.4634725    5.4634725    5.4634725    1182.0034    2372.2848    274.38879    1276.2256 
     321    240.05482   -42.998916   0.21720665    5.4622833    5.4622833    5.4622833    1688.5355    3237.9636     753.4372    1893.3121 
     322    234.02423   -42.992656   0.21175004     5.461099     5.461099     5.461099    2197.5538    4100.6334    1234.2676    2510.8183 
     323    227.86713   -42.986246   0.20617897    5.4599211    5.4599211    5.4599211    2692.0111    4942.7522    1699.9976    3111.5869 
     324     221.6196   -42.979717   0.20052607     5.458751     5.458751     5.458751    3208.1712     5798.553    2188.3205    3731.6816 
     325    215.31843   -42.973092   0.19482464    5.4575902    5.4575902    5.4575902    3727.5781    6648.5103    2680.1968    4352.0951 
     326    209.00153   -42.966446   0.18910898      5.45644      5.45644      5.45644    4248.1901    7487.5705    3173.4137    4969.7248 
     327    202.70752   -42.959781   0.18341402    5.4553019    5.4553019    5.4553019    4768.6946    8315.1996    3669.6086    5584.5009 
     328    196.47621   -42.953155   0.17777581    5.4541775    5.4541775    5.4541775    5284.6446    9122.0454    4159.8941    6188.8614 
     329    190.34777   -42.946604   0.17223066     5.453068     5.453068     5.453068    5800.4215    9913.9354    4653.5452    6789.3007 
     330    184.36165   -42.940162    0.1668143    5.4519749    5.4519749    5.4519749    6316.5911    10688.458    5148.6743    7384.5745 
     331    178.55757   -42.933825   0.16156264    5.4508996    5.4508996    5.4508996    6821.4227    11433.464     5634.569    7963.1518 
     332    172.97469   -42.927699   0.15651113    5.4498434    5.4498434    5.4498434    7326.0247     12157.91    6121.4951    8535.1432 
     333    167.65174   -42.921765   0.15169482    5.4488077    5.4488077    5.4488077    7817.8446     12847.79    6597.9587    9087.8644 
     334    162.62609   -42.916098   0.14714751    5.4477936    5.4477936    5.4477936    8307.3251    13514.146    7075.3379    9632.2696 
     335    157.93399   -42.910714     0.142902    5.4468026    5.4468026    5.4468026    8785.3523    14145.944    7543.4935    10158.263 
     336     153.6106   -42.905656   0.13899009    5.4458357    5.4458357    5.4458357    9267.0656    14753.323    8018.6093    10679.666 
     337    149.68858   -42.900949   0.13544137    5.4448942    5.4448942    5.4448942    9709.9998    15304.831    8456.8539    11157.228 
     338    146.19876   -42.896631   0.13228371    5.4439793    5.4439793    5.4439793    10152.616    15825.971    8897.8941    11625.494 
     339    143.16892   -42.892712   0.12954224    5.4430919    5.4430919    5.4430919    10587.527    16313.952     9334.439    12078.639 
     340     140.6238    -42.88923   0.12723937    5.4422331    5.4422331    5.4422331    11009.318    16762.295    9760.4722    12510.695 
     341     138.5859   -42.886225   0.12539543    5.4414039    5.4414039    5.4414039    11416.878    17169.027    10175.092    12920.332 
     342    137.07423   -42.883667   0.12402764    5.4406053    5.4406053    5.4406053    11805.757    17530.281    10573.156    13303.065 
     343    136.10364   -42.881604   0.12314943    5.4398381    5.4398381    5.4398381    12174.725    17844.804    10954.715    13658.081 
     344    135.68542   -42.880036   0.12277102    5.4391031    5.4391031    5.4391031    12540.854     18129.18    11335.236    14001.757 
     345    135.82648   -42.878967   0.12289866    5.4384012    5.4384012    5.4384012     12906.21    18383.942    11718.409    14336.187 
     346    136.52978   -42.878401   0.12353501     5.437733     5.437733     5.437733    13237.686    18581.863    12069.538    14629.696 
     347    137.79466   -42.878365   0.12467951    5.4370993    5.4370993    5.4370993    13549.427    18735.287     12403.97    14896.228 
     348     139.6158   -42.878824   0.12632731    5.4365007    5.4365007    5.4365007    13843.114    18845.137    12721.282    15136.511 
     349    141.98328   -42.879765   0.12846946    5.4359377    5.4359377    5.4359377    14121.647     18916.19    13025.793    15354.543 
     350    144.88313   -42.881197    0.1310933    5.4354109    5.4354109    5.4354109    14386.969    18951.763    13319.153    15552.628 
     351    148.29744   -42.883075   0.13418264    5.4349206    5.4349206    5.4349206    14633.332    18947.951    13595.698     15725.66 
     352    152.20406   -42.885406   0.13771743    5.4344673    5.4344673    5.4344673    14860.973     18904.63    13854.087     15873.23 
     353     156.5765    -42.88816    0.1416737    5.4340514    5.4340514    5.4340514     15074.67    18829.107    14100.766    16001.514 
     354    161.38477   -42.891289   0.14602433    5.4336731    5.4336731    5.4336731    15268.061    18718.125    14329.701    16105.296 
     355     166.5961   -42.894764   0.15073965    5.4333326    5.4333326    5.4333326    15445.222    18574.546    14542.226    16187.331 
     356    172.17437   -42.898576   0.15578698    5.4330303    5.4330303    5.4330303    15604.341    18399.602    14738.051    16247.331 
     357    178.08033   -42.902662   0.16113082    5.4327661    5.4327661    5.4327661    15746.073    18195.465    14917.145    16286.228 
     358    184.27273    -42.90697   0.16673384    5.4325403    5.4325403    5.4325403    15875.628    17969.895    15085.499    16310.341 
     359    190.70786   -42.911509   0.17255648    5.4323528    5.4323528    5.4323528    15987.835     17718.81    15237.741    16314.795 
     360    197.34026   -42.916222   0.17855762    5.4322038    5.4322038    5.4322038    16083.312    17445.976    15374.046    16301.111 
     361    204.12429    -42.92104   0.18469595    5.4320931    5.4320931    5.4320931    16162.166    17153.404    15494.735    16270.102 
     362    211.01263   -42.925927   0.19092866    5.4320208    5.4320208    5.4320208    16224.352    16841.724    15599.445     16221.84 
     363    217.95787   -42.930846   0.19721286    5.4319868    5.4319868    5.4319868     16271.41    16515.891     15689.42    16158.907 
     364    224.91252   -42.935758   0.20350558    5.4319908    5.4319908    5.4319908    16307.097    16180.903     15769.31     16085.77 
     365    231.82956   -42.940611   0.20976426    5.4320329    5.4320329    5.4320329    16327.382    15835.678    15834.604    15999.221 
     366    238.66319   -42.945392   0.21594747    5.4321127    5.4321127    5.4321127    16333.719    15482.259    15886.419    15900.799 
     367      245.368   -42.950013   0.22201412    5.4322301    5.4322301    5.4322301    16323.542     15120.86    15923.008    15789.137 
     368    251.90079   -42.954479   0.22792513    5.4323849    5.4323849    5.4323849    16304.005    14760.722    15950.673      15671.8 
     369    258.22034   -42.958724   0.23364319    5.4325767    5.4325767    5.4325767    16264.302    14391.763    15959.044     15538.37 
     370    264.28745   -42.962749   0.23913283    5.4328054    5.4328054    5.4328054    16216.379    14028.035    15959.854    15401.423 
     371    270.06581   -42.966461   0.24436122    5.4330707    5.4330707    5.4330707    16158.805    13670.023     15952.25    15260.359 
     372    275.52164   -42.969898   0.24929777    5.4333722    5.4333722    5.4333722    16088.005    13314.324     15932.01    15111.447 
     373      280.624   -42.972993   0.25391449    5.4337096    5.4337096    5.4337096    16002.916    12962.473    15897.863    14954.417 
     374     285.3454   -42.975754   0.25818652    5.4340826    5.4340826    5.4340826    15908.465     12618.87    15855.772    14794.369 
     375    289.66173   -42.978142   0.26209202    5.4344908    5.4344908    5.4344908     15800.18    12282.772    15800.037    14627.663 
     376    293.55234   -42.980136   0.26561233     5.434934     5.434934     5.434934     15683.51    11958.967    15736.965    14459.814 
     377    296.99973   -42.981754   0.26873159    5.4354116    5.4354116    5.4354116    15551.731     11642.78    15660.235    14284.915 
     378    299.99179   -42.982942   0.27143888    5.4359234    5.4359234    5.4359234     15412.16    11340.668    15575.145    14109.324 
     379    302.51896   -42.983749   0.27372551    5.4364691    5.4364691    5.4364691    15258.226    11047.893    15477.303    13927.807 
     380     304.5751   -42.984092   0.27558595     5.437048     5.437048     5.437048    15100.347    10772.746    15375.192    13749.428 
     381    306.15899   -42.984066   0.27701908    5.4376601    5.4376601    5.4376601    14927.836    10507.237     15258.75    13564.608 
     382    307.27231     -42.9836   0.27802644    5.4383047    5.4383047    5.4383047    14747.804    10256.311     15134.63    13379.582 
     383    307.92166   -42.982766   0.27861399    5.4389815    5.4389815    5.4389815     14552.83    10014.618    14995.443    13187.631 
     384    308.11684   -42.981511   0.27879059    5.4396901    5.4396901    5.4396901    14347.974    9785.2047    14846.106    12993.095 
     385    307.87104   -42.979898   0.27856819    5.4404301    5.4404301    5.4404301    14143.823     9578.855    14696.831    12806.503 
     386    307.20184   -42.977924   0.27796268     5.441201     5.441201     5.441201    13918.878    9374.2641    14526.083    12606.408 
     387    306.13002   -42.975587   0.27699287    5.4420025    5.4420025    5.4420025    13684.118    9180.3374    14344.298    12402.918 
     388    304.67989   -42.972961   0.27568077     5.442834     5.442834     5.442834    13439.077    8996.5789    14150.961    12195.539 
     389    302.87882   -42.970049   0.27405112    5.4436952    5.4436952    5.4436952    13178.268     8816.067     13940.01    11978.115 
     390    300.75718   -42.966865   0.27213142    5.4445856    5.4445856    5.4445856    12912.834    8650.0894    13721.839    11761.587 
     391    298.34865   -42.963447   0.26995213    5.4455046    5.4455046    5.4455046    12640.307    8492.9815    13495.586    11542.958 
     392    295.68992   -42.959841   0.26754645    5.4464518    5.4464518    5.4464518    12350.378    8333.8228    13249.421    11311.207 
     393    292.81983   -42.956084   0.26494953    5.4474267    5.4474267    5.4474267    12050.452    8179.1857    12991.469    11073.702 
     394    289.77891   -42.952167   0.26219805    5.4484287    5.4484287    5.4484287    11743.507    8029.2533    12722.805    10831.855 
     395       286.61   -42.948191   0.25933075    5.4494573    5.4494573    5.4494573    11422.417    7877.7184     12437.43    10579.188 
     396    283.35815    -42.94416   0.25638841     5.450512     5.450512     5.450512    11093.626    7727.3523    12140.898    10320.625 
     397    280.06973   -42.940095   0.25341298    5.4515921    5.4515921    5.4515921     10751.69    7571.3631    11827.612    10050.222 
     398    276.79222   -42.936103   0.25044742    5.4526971    5.4526971    5.4526971    10397.832    7409.8391    11498.394    9768.6884 
     399     273.5741   -42.932172   0.24753559    5.4538263    5.4538263    5.4538263    10033.689    7241.8445    11154.203    9476.5788 
     400    270.46375   -42.928325   0.24472129    5.4549791    5.4549791    5.4549791    9659.7878    7067.5413    10797.793    9175.0405 
     401    267.51058   -42.924659   0.24204919    5.4561547    5.4561547    5.4561547    9274.8199    6883.3791    10425.987    8861.3954 
     402    264.76352   -42.921184   0.23956359    5.4573524    5.4573524    5.4573524    8877.4764    6686.3597    10037.233    8533.6899 
     403    262.27049   -42.917961   0.23730785    5.4585716    5.4585716    5.4585716    8466.2545    6473.2553    9630.3113    8189.9403 
     404    260.07873    -42.91501    0.2353247    5.4598114    5.4598114    5.4598114    8045.1247    6247.1118    9209.2108    7833.8157 
     405    258.23467   -42.912355   0.23365616    5.4610709    5.4610709    5.4610709    7611.5647    6002.9381    8772.0449    7462.1826 
     406    256.78254    -42.91003   0.23234223    5.4623494    5.4623494    5.4623494     7166.998    5741.0738    8319.1525    7075.7414 
     407    255.76425    -42.90811   0.23142087     5.463646     5.463646     5.463646    6709.4103    5458.7534    7848.5927    6672.2521 
     408     255.2205   -42.906607   0.23092887    5.4649596    5.4649596    5.4649596    6246.5129     5161.443    7369.5905    6259.1821 
     409    255.18845   -42.905527   0.23089987    5.4662894    5.4662894    5.4662894    5767.1432    4838.4331    6870.5429    5825.3731 
     410    255.70209   -42.904927   0.23136463    5.4676343    5.4676343    5.4676343     5277.711    4495.0827    6358.4105    5377.0681 
     411    256.79236   -42.904821   0.23235112    5.4689932    5.4689932    5.4689932    4774.8956    4126.3779    5829.4814    4910.2517 
     412    258.48645   -42.905204   0.23388397    5.4703652    5.4703652    5.4703652    4258.6871    3730.2095     5283.654    4424.1836 
     413    260.80807   -42.906142   0.23598462     5.471749     5.471749     5.471749    3735.8627    3315.7458    4729.4094     3927.006 
     414    263.77587   -42.907593   0.23866995    5.4731434    5.4731434    5.4731434    3205.2067    2878.7214    4164.0041    3415.9774 
     415    267.40476   -42.909589   0.24195344    5.4745473    5.4745473    5.4745473    2656.8113    2411.7232    3579.5818    2882.7054 
     416    271.70478   -42.912133    0.2458442    5.4759594    5.4759594    5.4759594    2105.0892    1926.5867    2989.5396    2340.4052 
     417    276.68034   -42.915252   0.25034618    5.4773784    5.4773784    5.4773784    1537.6343    1412.6419    2383.4922    1777.9228 
     418    282.33192   -42.918857   0.25545985    5.4788029    5.4788029    5.4788029    966.18925    880.44274    1772.3725    1206.3348 
     419    288.65502   -42.923034   0.26118113    5.4802317    5.4802317    5.4802317    385.13331    325.26142    1151.3937    620.59616 
     420     295.6395   -42.927741   0.26750083    5.4816633    5.4816633    5.4816633   -223.75427   -268.78423    502.97265    3.4780499 
     421     303.2697   -42.932938    0.2744048    5.4830961    5.4830961    5.4830961   -826.19567   -870.84239    -139.2553   -612.09778 
     422    311.52476   -42.938607   0.28187415    5.4845288    5.4845288    5.4845288   -1430.0259   -1487.2549   -782.72789   -1233.3362 
     423     320.3784   -42.944733   0.28988511    5.4859599    5.4859599    5.4859599    -2015.538   -2099.8372   -1407.9243   -1841.0998 
     424    329.79869   -42.951286   0.29840878    5.4873878    5.4873878    5.4873878   -2632.2562   -2750.1382   -2062.8676    -2481.754 
     425    339.74993   -42.958261   0.30741288    5.4888111    5.4888111    5.4888111   -3273.1385   -3436.6961   -2739.7918   -3149.8755 
     426    350.19084   -42.965568   0.31686003     5.490228     5.490228     5.490228   -3894.5089   -4115.2306   -3398.1703   -3802.6366 
     427    361.07513   -42.973202   0.32670837    5.4916371    5.4916371    5.4916371   -4519.4723    -4805.235   -4058.3171   -4461.0081 
     428    372.35199   -42.981118    0.3369119    5.4930367    5.4930367    5.4930367   -5144.0879   -5502.3222   -4717.2147   -5121.2083 
     429    383.96609   -42.989235   0.34742059    5.4944252    5.4944252    5.4944252   -5769.0038   -6207.9966   -5375.2689   -5784.0898 
     430    395.85907   -42.997565   0.35818161    5.4958009    5.4958009    5.4958009   -6388.4326   -6914.8829    -6027.041   -6443.4521 
     431     407.9688   -43.005995   0.36913875    5.4971624    5.4971624    5.4971624   -7005.5749   -7624.5303   -6675.9536   -7102.0196 
     432     420.2295   -43.014487   0.38023248    5.4985078    5.4985078    5.4985078   -7620.7522   -8336.7684   -7322.4801   -7760.0002 
     433    432.57285   -43.023009     0.391401    5.4998357    5.4998357    5.4998357   -8228.6118   -9046.1524   -7961.1575   -8411.9739 
     434    444.92849   -43.031534   0.40258065    5.5011444    5.5011444    5.5011444   -8819.9818   -9741.5792   -8582.7849   -9048.1153 
     435    457.22426   -43.039912   0.41370612    5.5024323    5.5024323    5.5024323   -9411.8476   -10440.274   -9205.3284   -9685.8167 
     436    469.38759   -43.048144   0.42471175    5.5036979    5.5036979    5.5036979   -9994.8132   -11130.576    -9818.969   -10314.786 
     437    481.34491   -43.056176   0.43553099    5.5049396    5.5049396    5.5049396   -10562.303   -11806.816   -10418.231   -10929.117 
     438    493.02255   -43.063937   0.44609716    5.5061558    5.5061558    5.5061558   -11117.844   -12470.625   -11005.762    -11531.41 
     439    504.34869   -43.071377   0.45634529     5.507345     5.507345     5.507345   -11657.643   -13117.399   -11579.395   -12118.146 
     440    515.25195   -43.078456   0.46621079    5.5085058    5.5085058    5.5085058   -12180.208   -13745.295   -12137.644   -12687.716 
     441    525.66226   -43.085127   0.47563026    5.5096368    5.5096368    5.5096368   -12687.133    -14354.83   -12681.946   -13241.303 
     442    535.51281     -43.0913   0.48454325    5.5107365    5.5107365    5.5107365   -13174.791   -14942.467   -13208.853    -13775.37 
     443    544.74022   -43.096981    0.4928924    5.5118036    5.5118036    5.5118036   -13639.236   -15502.942   -13714.831    -14285.67 
     444    553.28395   -43.102107   0.50062295    5.5128367    5.5128367    5.5128367   -14062.011   -16014.843   -14182.949   -14753.268 
     445    561.08796   -43.106643   0.50768417    5.5138348    5.5138348    5.5138348   -14484.238   -16524.119   -14651.827   -15220.061 
     446    568.10173   -43.110486   0.51403039    5.5147966    5.5147966    5.5147966    -14888.25   -17011.297   -15105.809   -15668.452 
     447     574.2786   -43.113722   0.51961934     5.515721     5.515721     5.515721   -15262.697    -17463.48   -15532.878   -16086.352 
     448    579.57821   -43.116224   0.52441455    5.5166068    5.5166068    5.5166068   -15616.333   -17888.626   -15941.901   -16482.286 
     449    583.96692   -43.118051   0.52838554    5.5174531    5.5174531    5.5174531    -15940.29   -18277.533   -16324.181   -16847.335 
     450    587.41544   -43.119133   0.53150584    5.5182589    5.5182589    5.5182589   -16243.119   -18638.021   -16688.348   -17189.829 
     451    589.90048   -43.119466   0.53375435    5.5190233    5.5190233    5.5190233   -16513.928   -18960.893   -17022.953   -17499.258 
     452    591.40632   -43.119035   0.53511687    5.5197456    5.5197456    5.5197456   -16763.366   -19255.282   -17339.159   -17785.936 
     453    591.92398   -43.117906   0.53558525    5.5204249    5.5204249    5.5204249   -16978.314   -19507.802   -17621.924   -18036.013 
     454    591.45057   -43.115963    0.5351569    5.5210606    5.5210606    5.5210606   -17172.136   -19732.009   -17886.705   -18263.617 
     455    589.98994   -43.113295   0.53383529     5.521652     5.521652     5.521652   -17336.009   -19919.059   -18123.267   -18459.445 
     456    587.55207   -43.109883   0.53162946    5.5221987    5.5221987    5.5221987   -17474.714   -20073.107   -18336.033   -18627.951 
     457    584.15378   -43.105758   0.52855462    5.5227002    5.5227002    5.5227002   -17584.996   -20191.403   -18521.356   -18765.918 
     458    579.81814   -43.100921   0.52463163    5.5231561    5.5231561    5.5231561   -17670.128   -20276.814   -18682.213   -18876.385 
     459    574.57438    -43.09544   0.51988697    5.5235661    5.5235661    5.5235661   -17727.393   -20326.923   -18815.075   -18956.464 
     460    568.45822   -43.089303   0.51435295    5.5239298    5.5239298    5.5239298   -17756.731   -20342.079   -18919.746   -19006.185 
     461    561.51072   -43.082543    0.5080667    5.5242473    5.5242473    5.5242473    -17763.46   -20327.456   -19000.235   -19030.384 
     462    553.77867   -43.075226   0.50107058    5.5245183    5.5245183    5.5245183   -17744.471   -20280.733   -19053.394   -19026.199 
     463     545.3139   -43.067396   0.49341148    5.5247428    5.5247428    5.5247428   -17700.019    -20201.48   -19079.236   -18993.578 
     464    536.17277   -43.059064   0.48514039     5.524921     5.524921     5.524921   -17634.945    -20095.24   -19081.155   -18937.113 
     465    526.41614   -43.050297   0.47631239    5.5250527    5.5250527    5.5250527   -17546.972   -19960.191   -19055.877   -18854.347 
     466    516.10981   -43.041127     0.466987    5.5251384    5.5251384    5.5251384   -17441.292   -19802.493   -19008.962   -18750.916 
     467    505.32329   -43.031667   0.45722714    5.5251781    5.5251781    5.5251781   -17313.971   -19617.919   -18935.762    -18622.55 
     468    494.12863   -43.021936   0.44709797    5.5251721    5.5251721    5.5251721   -17165.182   -19407.464    -18835.18   -18469.275 
     469    482.60135   -43.011967   0.43666784    5.5251209    5.5251209    5.5251209   -16999.207   -19175.469   -18711.082   -18295.253 
     470    470.82075   -43.001899   0.42600851    5.5250248    5.5250248    5.5250248   -16817.345   -18924.496   -18564.387   -18102.076 
     471    458.86746   -42.991722   0.41519292    5.5248842    5.5248842    5.5248842   -16621.938   -18656.998   -18396.882   -17891.939 
     472    446.82314   -42.981501   0.40429497    5.5246997    5.5246997    5.5246997   -16413.719   -18374.057     -18208.2   -17665.325 
     473    434.77223   -42.971402   0.39339105    5.5244718    5.5244718    5.5244718   -16191.242   -18074.791     -17996.7   -17420.911 
     474    422.79931   -42.961383    0.3825577     5.524201     5.524201     5.524201   -15958.374   -17764.582   -17766.823    -17163.26 
     475     410.9883   -42.951578   0.37187086    5.5238881    5.5238881    5.5238881   -15716.528   -17443.966   -17518.673   -16893.056 
     476      399.424   -42.942065   0.36140723    5.5235337    5.5235337    5.5235337   -15462.014   -17110.966   -17248.576   -16607.185 
     477    388.19034   -42.932831   0.35124278    5.5231384    5.5231384    5.5231384   -15204.244   -16775.555   -16965.862    -16315.22 
     478    377.36899   -42.924048   0.34145139    5.5227029    5.5227029    5.5227029   -14936.466   -16431.059   -16663.915    -16010.48 
     479    367.04007   -42.915721   0.33210557    5.5222281    5.5222281    5.5222281   -14667.999   -16086.921   -16351.308   -15702.076 
     480    357.28061   -42.907951   0.32327501    5.5217147    5.5217147    5.5217147   -14390.332   -15736.633   -16021.124   -15382.697 
     481    348.16396    -42.90076   0.31502607    5.5211634    5.5211634    5.5211634   -14113.255   -15389.626    -15681.85   -15061.577 
     482    339.76012   -42.894208    0.3074221    5.5205751    5.5205751    5.5205751   -13836.619   -15046.899   -15335.217   -14739.579 
     483    332.13379   -42.888396   0.30052163    5.5199505    5.5199505    5.5199505   -13554.354   -14702.008   -14975.889    -14410.75 
     484    325.34487   -42.883377   0.29437888    5.5192906    5.5192906    5.5192906   -13274.822   -14364.588   -14610.116   -14083.175 
     485    319.44735   -42.879109   0.28904268     5.518596     5.518596     5.518596   -12996.531   -14032.882   -14238.427   -13755.947 
     486    314.48706   -42.875752    0.2845545    5.5178676    5.5178676    5.5178676    -12717.63   -13705.679   -13860.131   -13427.813 
     487    310.50305   -42.873251   0.28094968    5.5171063    5.5171063    5.5171063   -12442.716   -13388.603    -13479.58   -13103.633 
     488    307.52709   -42.871679   0.27825698    5.5163128    5.5163128    5.5163128    -12165.59   -13075.384   -13092.837   -12777.937 
     489    305.58229   -42.871045   0.27649728     5.515488     5.515488     5.515488   -11895.844    -12776.27   -12710.046    -12460.72 
     490    304.68276   -42.871383   0.27568336    5.5146327    5.5146327    5.5146327   -11624.982   -12482.221     -12323.6   -12143.601 
     491    304.83349   -42.872651   0.27581975    5.5137476    5.5137476    5.5137476   -11360.817   -12202.884   -11942.013   -11835.238 
     492    306.03007   -42.874873   0.27690243    5.5128337    5.5128337    5.5128337   -11093.894   -11928.085    -11558.17   -11526.716 
     493    308.25846   -42.878018   0.27891873    5.5118915    5.5118915    5.5118915   -10838.043   -11671.971   -11183.938   -11231.317 
     494    311.49446   -42.882114   0.28184673     5.510922     5.510922     5.510922   -10579.308   -11420.734   -10809.659   -10936.567 
     495    315.70443   -42.887063   0.28565601    5.5099258    5.5099258    5.5099258   -10323.725   -11180.182   -10441.556   -10648.488 
     496    320.84494   -42.892905   0.29030725    5.5089037    5.5089037    5.5089037   -10063.839   -10943.838   -10073.223     -10360.3 
     497    326.86322    -42.89951   0.29575271    5.5078565    5.5078565    5.5078565   -9811.1189   -10722.762   -9717.0388    -10083.64 
     498    333.69819   -42.906886   0.30193714    5.5067848    5.5067848    5.5067848   -9551.6542   -10504.995   -9361.2737   -9805.9743 
     499    341.27981   -42.914946   0.30879714    5.5056894    5.5056894    5.5056894   -9296.9088   -10298.421   -9015.9615   -9537.0971 
     500    349.52992   -42.923648   0.31626202     5.504571     5.504571     5.504571   -9038.4808   -10095.376   -8674.4021   -9269.4198 
     501    358.36359   -42.932878   0.32425491    5.5034302    5.5034302    5.5034302   -8776.1097   -9897.3318   -8337.7684   -9003.7366 
     502    367.69046   -42.942593   0.33269406    5.5022678    5.5022678    5.5022678   -8532.5619   -9724.8202   -8029.5769   -8762.3197 
     503    377.41401   -42.952711   0.34149213    5.5010844    5.5010844    5.5010844   -8258.1497    -9529.646   -7700.4594    -8496.085 
     504    387.43264   -42.963073   0.35055719    5.4998806    5.4998806    5.4998806   -7986.0701   -9344.4671   -7383.6529   -8238.0633 
     505     397.6419   -42.973639   0.35979474    5.4986572    5.4986572    5.4986572   -7702.3577    -9153.378   -7066.3598   -7974.0318 
     506    407.93524   -42.984331   0.36910838    5.4974149    5.4974149    5.4974149   -7406.8913   -8957.0874   -6748.3051   -7704.0946 
     507    418.20469   -42.995061   0.37840039    5.4961543    5.4961543    5.4961543   -7105.0352   -8760.1778   -6435.1663   -7433.4598 
     508    428.34223   -43.005693   0.38757305    5.4948761    5.4948761    5.4948761   -6796.9161   -8561.9566   -6126.8785    -7161.917 
     509    438.24081   -43.016144   0.39652949    5.4935811    5.4935811    5.4935811    -6470.182   -8349.3571   -5809.9314   -6876.4902 
     510    447.79558   -43.026314   0.40517485    5.4922699    5.4922699    5.4922699   -6132.8263   -8130.4658   -5494.4873   -6585.9265 
     511    456.90522   -43.036149   0.41341745    5.4909433    5.4909433    5.4909433   -5782.1856   -7900.5988   -5175.0141   -6285.9328 
     512    465.47187   -43.045531   0.42116873    5.4896022    5.4896022    5.4896022   -5420.8475   -7661.9654   -4855.5565   -5979.4565 
     513    473.40284   -43.054386   0.42834483    5.4882472    5.4882472    5.4882472   -5047.3253     -7413.19   -4533.2258   -5664.5804 
     514    480.61233   -43.062627   0.43486814    5.4868792    5.4868792    5.4868792   -4655.8479   -7146.4124   -4200.9454   -5334.4019 
     515    487.02029    -43.07022   0.44066619    5.4854989    5.4854989    5.4854989   -4248.9807    -6863.856   -3861.7683    -4991.535 
     516    492.55435    -43.07703   0.44567353    5.4841073    5.4841073    5.4841073   -3830.5382   -6568.0273   -3519.0874   -4639.2176 
     517     497.1503   -43.083064   0.44983204    5.4827053    5.4827053    5.4827053   -3393.3587   -6251.6257   -3162.9037    -4269.296 
     518    500.75245   -43.088248   0.45309134    5.4812937    5.4812937    5.4812937   -2934.9865    -5910.926    -2791.525   -3879.1458 
     519    503.31466    -43.09252   0.45540968    5.4798735    5.4798735    5.4798735   -2466.3977    -5555.253   -2413.5584    -3478.403 
     520     504.7991   -43.095832   0.45675284    5.4784458    5.4784458    5.4784458   -1984.3094   -5180.8792   -2025.8081   -3063.6656 
     521    505.17625   -43.098202   0.45709408    5.4770114    5.4770114    5.4770114   -1482.0647   -4779.9576   -1619.9954   -2627.3392 
     522    504.42661   -43.099569    0.4564158    5.4755716    5.4755716    5.4755716   -965.66357   -4357.6782   -1201.1056   -2174.8158 
     523    502.54107   -43.099919   0.45470972    5.4741273    5.4741273    5.4741273   -437.84152   -3915.4357   -772.29433   -1708.5238 
     524    499.51766   -43.099273   0.45197407    5.4726797    5.4726797    5.4726797    126.58193    -3424.406   -305.43248   -1201.0855 
     525     495.3642   -43.097594   0.44821594    5.4712301    5.4712301    5.4712301    684.84028   -2932.9787    157.08616   -697.01741 
     526    490.09711   -43.094922   0.44345017    5.4697796    5.4697796    5.4697796    1255.4144   -2416.8844    634.76527   -175.56826 
     527    483.74033   -43.091223   0.43769842    5.4683295    5.4683295    5.4683295    1836.7699   -1877.6594    1126.8731    361.99453 
     528    476.32714   -43.086567   0.43099081     5.466881     5.466881     5.466881    2429.8654   -1314.7335    1635.5747    916.90218 
     529    467.89688   -43.080964   0.42336293    5.4654356    5.4654356    5.4654356    3030.2342   -730.75501    2155.6748    1485.0513 
     530    458.49507   -43.074441   0.41485598    5.4639944    5.4639944    5.4639944    3644.4694   -117.59184    2697.2837    2074.7204 
     531    448.17455   -43.067043   0.40551775     5.462559     5.462559     5.462559    4259.7442    511.46015    3245.7003    2672.3016 
     532    436.99362   -43.058807   0.39540102    5.4611307    5.4611307    5.4611307    4883.9592    1164.8417    3810.5316    3286.4442 
     533    425.01525   -43.049779   0.38456273    5.4597109    5.4597109    5.4597109    5513.2201    1839.1913    4386.9324    3913.1146 
     534    412.30742   -43.039996   0.37306442    5.4583012    5.4583012    5.4583012    6122.2978    2504.5283    4950.9463    4525.9241 
     535    398.94132   -43.029557   0.36097049    5.4569029    5.4569029    5.4569029    6756.3898    3217.7923    5550.7123    5174.9648 
     536    384.99073   -43.018474    0.3483477    5.4555176    5.4555176    5.4555176    7388.6429    3945.8794    6156.0988     5830.207 
     537    370.53282   -43.006845   0.33526588    5.4541467    5.4541467    5.4541467    8021.1551    4691.6574    6771.3858    6494.7328 
     538    355.64749   -42.994735   0.32179732    5.4527918    5.4527918    5.4527918    8655.6329    5456.1958    7397.4291    7169.7526 
     539    340.41618   -42.982188   0.30801572    5.4514545    5.4514545    5.4514545    9285.2795     6233.646    8027.1692    7848.6982 
     540     324.9209   -42.969295   0.29399526    5.4501364    5.4501364    5.4501364    9904.6025    7017.1151    8655.7005    8525.8061 
     541    309.24446   -42.956117   0.27981089    5.4488388    5.4488388    5.4488388    10520.413    7813.1308    9289.5376     9207.694 
     542    293.46989   -42.942725   0.26553772    5.4475636    5.4475636    5.4475636    11130.641    8620.3699    9926.9208     9892.644 
     543    277.67993   -42.929215   0.25125063    5.4463121    5.4463121    5.4463121    11726.808    9429.2506    10557.628    10571.229 
     544    261.95722   -42.915642    0.2370244     5.445086     5.445086     5.445086    12312.767    10241.809    11185.034    11246.537 
     545    246.38331   -42.902088    0.2229328    5.4438868    5.4438868    5.4438868     12887.84    11057.761    11810.243    11918.614 
     546    231.03786   -42.888618   0.20904791     5.442716     5.442716     5.442716    13450.001    11873.955    12428.589    12584.182 
     547    215.99909    -42.87534   0.19544052    5.4415751    5.4415751    5.4415751    13996.234    12687.357    13038.133    13240.575 
     548    201.34323   -42.862288   0.18217959    5.4404657    5.4404657    5.4404657    14527.386    13495.614    13637.196    13886.732 
     549    187.14398   -42.849543   0.16933181    5.4393892    5.4393892    5.4393892    15030.813    14285.733    14213.879    14510.142 
     550    173.47329   -42.837198   0.15696228    5.4383469    5.4383469    5.4383469    15547.814    15099.193    14806.059    15151.022 
     551    160.39961   -42.825317   0.14513294    5.4373404    5.4373404    5.4373404    16022.893    15875.464    15360.847    15753.068 
     552    147.98783   -42.813946    0.1339025     5.436371     5.436371     5.436371    16471.038    16629.828    15890.539    16330.468 
     553    136.29969    -42.80316   0.12332682      5.43544      5.43544      5.43544    16899.051    17368.759    16402.489      16890.1 
     554    125.39293   -42.793022   0.11345816    5.4345487    5.4345487    5.4345487    17305.983    18088.267    16893.316    17429.188 
     555    115.32201   -42.783631   0.10434577    5.4336982    5.4336982    5.4336982    17685.925    18782.488    17359.401    17942.605 
     556    106.13701   -42.774963     0.096035    5.4328898    5.4328898    5.4328898    18042.868    19452.265    17801.404    18432.179 
     557    97.883311   -42.767136  0.088566877    5.4321245    5.4321245    5.4321245    18376.142    20095.802    18217.867    18896.604 
[...]
    5867    326.41559   -42.987545   0.29534769    5.4556687    5.4556687    5.4556687    14040.406    10678.962    12020.656    12246.675 
    5868    317.80421   -42.978643   0.28755593    5.4559342    5.4559342    5.4559342    13998.033    10626.626    12217.084    12280.581 
    5869    309.36455    -42.96993   0.27991954    5.4562295    5.4562295    5.4562295    13924.139    10551.365     12387.58    12287.695 
    5870    301.17112   -42.961497   0.27250596    5.4565546    5.4565546    5.4565546    13827.204    10461.745     12541.34    12276.763 
    5871    293.29771   -42.953436   0.26538194    5.4569095    5.4569095    5.4569095    13697.115    10346.564     12666.21     12236.63 
    5872    285.81648   -42.945742   0.25861276    5.4572941    5.4572941    5.4572941     13542.86    10216.362    12770.794    12176.672 
    5873    278.79709   -42.938559   0.25226147    5.4577083    5.4577083    5.4577083    13376.753    10084.015    12864.791     12108.52 
    5874    272.30565   -42.931853   0.24638787    5.4581519    5.4581519    5.4581519     13163.87    9910.5057    12914.306    11996.227 
    5875    266.40443   -42.925758   0.24104833    5.4586247    5.4586247    5.4586247    12918.526    9713.0697    12932.158    11854.584 
    5876    261.15176   -42.920255    0.2362956    5.4591263    5.4591263    5.4591263    12639.351    9488.3191    12914.399     11680.69 
    5877    256.60116   -42.915435   0.23217812    5.4596563    5.4596563    5.4596563    12334.741    9245.4244        12870    11483.388 
    5878    252.80149   -42.911308    0.2287401    5.4602142    5.4602142    5.4602142    12005.451    8983.8816    12796.946    11262.093 
    5879    249.79686   -42.907883   0.22602145    5.4607997    5.4607997    5.4607997    11641.845    8693.8551    12685.354    11007.018 
    5880    247.62477    -42.90528    0.2240561    5.4614119    5.4614119    5.4614119    11252.375     8384.084    12542.789    10726.416 
    5881    246.31614   -42.903443   0.22287202    5.4620504    5.4620504    5.4620504    10834.415    8050.3072     12364.95    10416.557 
    5882    245.89495   -42.902408   0.22249092    5.4627144    5.4627144    5.4627144    10392.669    7697.8867    12155.504     10082.02 
    5883    246.37861   -42.902179   0.22292855    5.4634031    5.4634031    5.4634031    9922.9418    7320.6913    11909.479     9717.704 
    5884    247.77779   -42.902753   0.22419456    5.4641157    5.4641157    5.4641157    9426.5696    6920.1997    11626.766    9324.5117 
    5885    250.09517   -42.904184   0.22629137    5.4648512    5.4648512    5.4648512    8910.6927    6504.0591    11314.355    8909.7024 
    5886    253.32618   -42.906376   0.22921485    5.4656087    5.4656087    5.4656087     8371.949    6066.6397    10966.685    8468.4245 
    5887    257.45845    -42.90937   0.23295381    5.4663871    5.4663871    5.4663871    7812.6383    5610.4212    10586.502    8003.1872 
    5888    262.47177    -42.91313   0.23748997    5.4671854    5.4671854    5.4671854    7235.0964    5137.6909    10174.359    7515.7154 
    5889     268.3384   -42.917641   0.24279823    5.4680025    5.4680025    5.4680025    6644.2407    4652.0382    9734.8537    7010.3776 
    5890    275.02339   -42.922814   0.24884694    5.4688371    5.4688371    5.4688371    6032.9742    4146.2415    9259.8243      6479.68 
    5891    282.48543   -42.928632   0.25559875     5.469688     5.469688     5.469688    5413.8658    3630.3051     8761.317    5935.1626 
    5892    290.67534   -42.935089   0.26300915    5.4705539    5.4705539    5.4705539    4783.6337    3104.1766    8235.8255    5374.5452 
    5893    299.53672    -42.94205   0.27102712    5.4714335    5.4714335    5.4714335    4142.6069    2565.1846    7682.2384    4796.6766 
    5894    309.00824   -42.949543   0.27959715    5.4723255    5.4723255    5.4723255     3492.086    2014.3445    7100.9567    4202.4624 
    5895    319.02236   -42.957427   0.28865814    5.4732285    5.4732285    5.4732285    2840.9669    1460.1375    6501.6622    3600.9222 
    5896    329.50659   -42.965681   0.29814448     5.474141     5.474141     5.474141    2186.5803    899.62311    5881.4834    2989.2289 
    5897    340.38437   -42.974232   0.30798693    5.4750616    5.4750616    5.4750616    1532.0642    334.16024    5241.3212    2369.1819 
    5898     351.5744   -42.982963    0.3181119    5.4759888    5.4759888    5.4759888    877.40635   -234.15969    4583.6766    1742.3078 
    5899    362.99215    -42.99187   0.32844292    5.4769212    5.4769212    5.4769212    228.90457   -800.66114     3913.766    1114.0032 
    5900    374.55104   -43.000842   0.33890166    5.4778572    5.4778572    5.4778572    -416.3439   -1369.1776    3228.4988    480.99243 
    5901    386.16339    -43.00978   0.34940875    5.4787953    5.4787953    5.4787953   -1074.3675   -1955.3562    2511.4976   -172.74206 
    5902    397.74026   -43.018659   0.35988374    5.4797341    5.4797341    5.4797341   -1695.6852   -2510.3625    1813.1893   -797.61947 
    5903    409.19191   -43.027326   0.37024544    5.4806719    5.4806719    5.4806719   -2308.2259   -3061.8606    1106.5557   -1421.1769 
    5904    420.42999   -43.035758   0.38041389    5.4816074    5.4816074    5.4816074    -2909.426   -3607.5068    393.87093   -2041.0206 
    5905    431.36734   -43.043903   0.39031023     5.482539     5.482539     5.482539   -3492.9383   -4140.4821   -317.59892   -2650.3398 
    5906    441.91912   -43.051634   0.39985771    5.4834652    5.4834652    5.4834652   -4059.6637   -4663.6786   -1029.3456    -3250.896 
    5907    452.00441   -43.058932   0.40898309    5.4843847    5.4843847    5.4843847   -4602.7779   -5168.3193   -1731.6897   -3834.2623 
    5908    461.54452   -43.065726   0.41761518    5.4852959    5.4852959    5.4852959   -5105.6503   -5639.5247   -2408.2171    -4384.464 
    5909    470.46598   -43.071934    0.4256875    5.4861977    5.4861977    5.4861977   -5612.3928   -6118.7946   -3103.3128   -4944.8334 
    5910    478.70122   -43.077512   0.43313892    5.4870885    5.4870885    5.4870885   -6096.5731   -6581.3598   -3789.0067   -5488.9799 
    5911    486.18773   -43.082423   0.43991288    5.4879672    5.4879672    5.4879672   -6559.6685   -7027.2812   -4465.9408   -6017.6302 
    5912    492.86822   -43.086627   0.44595753    5.4888324    5.4888324    5.4888324   -6994.6703   -7450.9589   -5125.3145   -6523.6479 
    5913    498.69188   -43.090055   0.45122689    5.4896828    5.4896828    5.4896828   -7407.4799    -7856.706   -5772.0643   -7012.0834 
    5914    503.61599   -43.092712   0.45568233    5.4905174    5.4905174    5.4905174   -7797.5061   -8245.4497   -6404.8823   -7482.6127 
    5915    507.60431   -43.094565   0.45929104    5.4913348    5.4913348    5.4913348   -8158.5457   -8607.9764   -7015.6878   -7927.4033 
    5916    510.62791    -43.09558   0.46202687    5.4921341    5.4921341    5.4921341   -8497.2954   -8952.3799   -7611.0317    -8353.569 
    5917    512.66487   -43.095766   0.46386995    5.4929142    5.4929142    5.4929142   -8810.7648   -9274.5379    -8185.919   -8757.0739 
    5918    513.70097   -43.095077   0.46480744     5.493674     5.493674     5.493674   -9099.6359    -9574.746   -8739.7108   -9138.0309 
    5919    513.73022   -43.093545    0.4648339    5.4944127    5.4944127    5.4944127    -9365.016   -9853.4994   -9271.3741   -9496.6298 
    5920    512.75346    -43.09116   0.46395011    5.4951293    5.4951293    5.4951293   -9606.6732   -10110.688   -9781.0603   -9832.8072 
    5921    510.77909   -43.087956   0.46216365    5.4958229    5.4958229    5.4958229   -9821.0426    -10341.17   -10262.267   -10141.493 
    5922    507.82241   -43.083928   0.45948839    5.4964929    5.4964929    5.4964929   -10013.762   -10550.894   -10720.091   -10428.249 
    5923    503.90647   -43.079096   0.45594516    5.4971384    5.4971384    5.4971384   -10186.942   -10741.456   -11155.214   -10694.537 
    5924    499.06115   -43.073531   0.45156101    5.4977588    5.4977588    5.4977588    -10335.51   -10906.877   -11561.943   -10934.777 
    5925    493.32107   -43.067226   0.44636727    5.4983535    5.4983535    5.4983535   -10480.806   -11067.769    -11960.28   -11169.618 
    5926    486.72769   -43.060202   0.44040144    5.4989219    5.4989219    5.4989219   -10590.687   -11191.885   -12314.672   -11365.748 
    5927    479.32898   -43.052537   0.43370694    5.4994634    5.4994634    5.4994634   -10681.179   -11295.773   -12641.728    -11539.56 
    5928    471.17696    -43.04425   0.42633082    5.4999775    5.4999775    5.4999775    -10756.78    -11382.55   -12945.751   -11695.027 
    5929    462.32788   -43.035433   0.41832398     5.500464     5.500464     5.500464   -10809.982   -11444.148   -13216.933   -11823.688 
    5930    452.84279   -43.026098   0.40974167    5.5009224    5.5009224    5.5009224   -10852.852   -11492.437       -13467    -11937.43 
    5931    442.78577   -43.016295   0.40064187    5.5013524    5.5013524    5.5013524   -10876.084   -11518.344   -13686.999   -12027.142 
    5932    432.22478   -43.006111   0.39108607    5.5017537    5.5017537    5.5017537   -10889.421    -11531.02   -13884.473   -12101.638 
    5933    421.23118   -42.995587   0.38113883    5.5021261    5.5021261    5.5021261   -10895.385   -11532.544       -14062    -12163.31 
    5934    409.87724   -42.984806   0.37086554    5.5024695    5.5024695    5.5024695   -10886.098   -11515.383   -14211.528   -12204.336 
    5935    398.23621   -42.973825   0.36033249    5.5027837    5.5027837    5.5027837   -10867.236   -11484.363   -14337.641   -12229.747 
    5936    386.38344    -42.96268   0.34960786    5.5030686    5.5030686    5.5030686   -10842.711   -11444.095    -14445.22   -12244.009 
    5937    374.39464   -42.951468   0.33876014    5.5033242    5.5033242    5.5033242   -10806.956    -11388.41   -14527.861   -12241.075 
    5938     362.3452   -42.940235   0.32785755    5.5035503    5.5035503    5.5035503   -10768.207   -11326.047   -14593.612   -12229.289 
    5939    350.31071   -42.929076   0.31696849     5.503747     5.503747     5.503747   -10725.692   -11256.129   -14642.085   -12207.969 
    5940    338.36489   -42.918024   0.30615966    5.5039144    5.5039144    5.5039144   -10673.273    -11172.18   -14667.661   -12171.038 
    5941    326.58033   -42.907134   0.29549675    5.5040524    5.5040524    5.5040524   -10622.444     -11085.5   -14681.016   -12129.653 
    5942    315.02878   -42.896495   0.28504466    5.5041612    5.5041612    5.5041612   -10548.156   -10973.431   -14656.534   -12059.374 
    5943    303.77839   -42.886147   0.27486507    5.5042409    5.5042409    5.5042409   -10492.477   -10875.508   -14640.675   -12002.887 
    5944     292.8941   -42.876163   0.26501674    5.5042915    5.5042915    5.5042915   -10435.742   -10772.544   -14611.459   -11939.915 
    5945    282.43864   -42.866601   0.25555641    5.5043133    5.5043133    5.5043133   -10378.421   -10666.223    -14570.41   -11871.685 
    5946    272.47111   -42.857469   0.24653759    5.5043064    5.5043064    5.5043064   -10325.277    -10560.97    -14522.77   -11803.006 
    5947    263.04625    -42.84886   0.23800977    5.5042709    5.5042709    5.5042709   -10267.094    -10448.47    -14460.43   -11725.332 
    5948    254.21513   -42.840804   0.23001919     5.504207     5.504207     5.504207   -10214.472   -10338.605   -14394.483   -11649.187 
    5949     246.0246   -42.833363   0.22260823    5.5041148    5.5041148    5.5041148   -10158.048   -10223.268   -14316.476   -11565.931 
    5950    238.51603   -42.826523   0.21581432    5.5039946    5.5039946    5.5039946   -10106.407   -10110.677   -14235.757    -11484.28 
    5951    231.72668   -42.820343   0.20967117    5.5038465    5.5038465    5.5038465   -10060.335   -10002.318   -14153.726    -11405.46 
    5952    225.68892   -42.814879   0.20420808    5.5036707    5.5036707    5.5036707   -10010.621   -9889.0085    -14062.39   -11320.673 
    5953    220.42934   -42.810117    0.1994491    5.5034674    5.5034674    5.5034674   -9965.6458    -9779.865   -13970.914   -11238.808 
    5954    215.96962   -42.806093   0.19541385    5.5032368    5.5032368    5.5032368   -9921.1373   -9671.2399   -13876.049   -11156.142 
    5955    212.32633   -42.802815   0.19211732    5.5029791    5.5029791    5.5029791   -9876.3587   -9562.4217   -13777.204   -11071.995 
    5956    209.51059   -42.800313   0.18956959    5.5026945    5.5026945    5.5026945   -9831.6878   -9454.4755   -13676.771   -10987.645 
    5957    207.52804   -42.798503   0.18777573    5.5023832    5.5023832    5.5023832   -9789.2652    -9348.758   -13576.583   -10904.869 
    5958    206.37946   -42.797502   0.18673647    5.5020454    5.5020454    5.5020454   -9751.2303   -9249.3599    -13479.46   -10826.683 
    5959    206.06017   -42.797277   0.18644757    5.5016813    5.5016813    5.5016813   -9707.1184   -9145.4318    -13375.23   -10742.593 
    5960    206.56025    -42.79776   0.18690005    5.5012911    5.5012911    5.5012911   -9663.5823   -9044.3966   -13272.457   -10660.145 
    5961    207.86598   -42.798968   0.18808151    5.5008751    5.5008751    5.5008751   -9625.7503   -8951.2907   -13175.619    -10584.22 
    5962    209.95822   -42.800915   0.18997461    5.5004333    5.5004333    5.5004333   -9574.8847   -8848.6456   -13068.002   -10497.177 
    5963     212.8134   -42.803518   0.19255804    5.4999661    5.4999661    5.4999661    -9529.286   -8754.3557   -12965.726   -10416.456 
    5964    216.40399   -42.806824   0.19580687    5.4994736    5.4994736    5.4994736   -9472.4206   -8653.2016   -12855.988   -10327.204 
    5965    220.69827    -42.81071   0.19969243     5.498956     5.498956     5.498956    -9417.722   -8557.0057   -12749.316   -10241.348 
    5966    225.66136   -42.815256   0.20418314    5.4984137    5.4984137    5.4984137   -9350.6443   -8454.0554   -12633.198   -10145.966 
    5967    231.25516   -42.820312   0.20924453    5.4978469    5.4978469    5.4978469   -9283.2369   -8354.9745   -12519.664   -10052.625 
    5968    237.43832   -42.825907   0.21483918    5.4972557    5.4972557    5.4972557   -9206.8022   -8252.3879   -12398.723   -9952.6377 
    5969    244.16669   -42.831985   0.22092715    5.4966405    5.4966405    5.4966405   -9118.3596   -8144.1778   -12270.099   -9844.2122 
    5970     251.3938   -42.838545    0.2274664    5.4960016    5.4960016    5.4960016   -9024.0025   -8035.8828   -12136.623   -9732.1696 
    5971    259.07113   -42.845459     0.234413    5.4953392    5.4953392    5.4953392   -8922.6983   -7927.1955   -11999.691   -9616.5283 
    5972    267.14875   -42.852732    0.2417218    5.4946537    5.4946537    5.4946537   -8806.5295   -7810.0285   -11849.515   -9488.6908 
    5973    275.57486    -42.86029   0.24934592    5.4939454    5.4939454    5.4939454   -8685.3686   -7694.4846   -11695.367   -9358.4067 
    5974    284.29706   -42.868113   0.25723795    5.4932146    5.4932146    5.4932146   -8543.4589   -7565.5974   -11522.933   -9210.6633 
    5975    293.26174   -42.876157   0.26534938    5.4924618    5.4924618    5.4924618    -8395.721   -7437.8707    -11343.18    -9058.924 
    5976    302.41468   -42.884344   0.27363116    5.4916873    5.4916873    5.4916873   -8236.7768   -7308.0056    -11154.36   -8899.7143 
    5977    311.70158   -42.892619   0.28203414    5.4908915    5.4908915    5.4908915   -8057.5961   -7164.4758   -10944.033   -8722.0351 
    5978    321.06784   -42.901004   0.29050892     5.490075     5.490075     5.490075   -7864.7323   -7015.1149   -10717.839   -8532.5622 
    5979     330.4595   -42.909336    0.2990067    5.4892381    5.4892381    5.4892381   -7660.3964    -6862.015   -10479.633   -8334.0149 
    5980    339.82305   -42.917659   0.30747903    5.4883815    5.4883815    5.4883815   -7437.4477   -6698.0503   -10218.987   -8118.1616 
    5981     349.1044   -42.925907     0.315877    5.4875056    5.4875056    5.4875056   -7202.7863   -6530.2571    -9941.775   -7891.6061 
    5982    358.25125   -42.933995   0.32415326    5.4866111    5.4866111    5.4866111   -6948.9591   -6350.5664   -9640.0186   -7646.5147 
    5983    367.21287   -42.941928   0.33226192    5.4856986    5.4856986    5.4856986    -6680.143   -6163.8308   -9318.8665   -7387.6134 
    5984    375.93829   -42.949619   0.34015686    5.4847687    5.4847687    5.4847687   -6419.5537   -5989.2346   -9002.0098   -7136.9327 
    5985     384.3785   -42.957056   0.34779374    5.4838221    5.4838221    5.4838221   -6119.1394   -5784.1419   -8634.7755   -6846.0189 
    5986    392.48562   -42.964186   0.35512923    5.4828596    5.4828596    5.4828596   -5801.5385   -5568.6033   -8241.4812   -6537.2077 
    5987    400.21278   -42.970969   0.36212094    5.4818817    5.4818817    5.4818817   -5464.4033   -5339.9284   -7820.6713   -6208.3343 
    5988    407.51557   -42.977361   0.36872865    5.4808895    5.4808895    5.4808895   -5112.4719   -5101.9277    -7374.398   -5862.9325 
    5989    414.34995   -42.983333   0.37491255    5.4798838    5.4798838    5.4798838   -4741.9235     -4850.86   -6899.4898   -5497.4244 
    5990      420.675   -42.988807   0.38063558    5.4788655    5.4788655    5.4788655   -4358.8615   -4590.5556   -6399.8314   -5116.4162 
    5991    426.45166   -42.993825   0.38586242    5.4778354    5.4778354    5.4778354   -3956.9317   -4316.5106    -5869.835   -4714.4258 
    5992    431.64246   -42.998305   0.39055917    5.4767947    5.4767947    5.4767947   -3535.4724   -4025.9004   -5307.9289   -4289.7673 
    5993    436.21259   -43.002227   0.39469431    5.4757444    5.4757444    5.4757444   -3103.0165   -3727.0696   -4722.3217   -3850.8026 
    5994    440.12856   -43.005562   0.39823757    5.4746854    5.4746854    5.4746854   -2660.8509   -3420.0668   -4113.5838   -3398.1671 
    5995    443.36099   -43.008255   0.40116235     5.473619     5.473619     5.473619    -2178.678   -3072.9008   -3449.2226   -2900.2671 
    5996    445.88348    -43.01035   0.40344475    5.4725464    5.4725464    5.4725464   -1704.9594   -2735.6738   -2783.6652   -2408.0995 
    5997    447.67193   -43.011757   0.40506297    5.4714687    5.4714687    5.4714687   -1215.6206    -2383.996   -2089.4975   -1896.3714 
    5998    448.70552   -43.012497   0.40599818    5.4703872    5.4703872    5.4703872    -716.3881   -2018.0852   -1371.1912   -1368.5548 
    5999    448.96718   -43.012538   0.40623494    5.4693031    5.4693031    5.4693031   -202.40755   -1634.9783   -626.89876   -821.42822 
    6000    448.44438   -43.011891    0.4057619    5.4682178    5.4682178    5.4682178    317.64551   -1243.1312    135.66172   -263.27464 
Loop time of 53209 on 1 procs for 6000 steps with 8 atoms

Performance: 0.005 ns/day, 4926.760 hours/ns, 0.113 timesteps/s
0.0% CPU use with 1 MPI tasks x no OpenMP threads

MPI task timing breakdown:
Section |  min time  |  avg time  |  max time  |%varavg| %total
---------------------------------------------------------------
Pair    | 0          | 0          | 0          |   0.0 |  0.00
Neigh   | 0          | 0          | 0          |   0.0 |  0.00
Comm    | 0.046167   | 0.046167   | 0.046167   |   0.0 |  0.00
Output  | 0.72275    | 0.72275    | 0.72275    |   0.0 |  0.00
Modify  | 53208      | 53208      | 53208      |   0.0 |100.00
Other   |            | 0.08322    |            |       |  0.00

Nlocal:        8.00000 ave           8 max           8 min
Histogram: 1 0 0 0 0 0 0 0 0 0
Nghost:        10.0000 ave          10 max          10 min
Histogram: 1 0 0 0 0 0 0 0 0 0
Neighs:         0.00000 ave           0 max           0 min
Histogram: 1 0 0 0 0 0 0 0 0 0

Total # of neighbors = 0
Ave neighs/atom = 0.0000000
Neighbor list builds = 0
Dangerous builds = 0
    dump dmpHeat all atom 1 trj-heat.lammpstrj
ERROR: Reuse of dump ID (../output.cpp:538)
Last command:     dump dmpHeat all atom 1 trj-heat.lammpstrj
