LAMMPS Si data file
 
8 atoms
 
1  atom types

0.0  5.4687275887  xlo xhi
0.0  5.4687275887  ylo yhi
0.0  5.4687275887  zlo zhi
 
Atoms
 
1  1   2.734363794         2.734363794         0.000000000
2  1   2.734363794         0.000000000         2.734363794
3  1   0.000000000         2.734363794         2.734363794
4  1   0.000000000         0.000000000         0.000000000
5  1   1.367181897         1.367181897         4.101545691
6  1   1.367181897         4.101545691         1.367181897
7  1   4.101545691         1.367181897         1.367181897
8  1   4.101545691         4.101545691         4.101545691
