LAMMPS (29 Sep 2021 - Update 3)
# small W unit cell for use with VASP

variable        mode index file

if "${mode} == file" then   "message client md file tmp.couple" elif "${mode} == zmq"   "message client md zmq localhost:5555"
message client md file tmp.couple
variable	x index 1
variable	y index 1
variable	z index 1

units		metal
atom_style	atomic
atom_modify     sort 0 0.0 map yes

read_data       data.W
Reading data file ...
  orthogonal box = (0.0000000 0.0000000 0.0000000) to (5.4687276 5.4687276 5.4687276)
  1 by 1 by 1 MPI processor grid
  reading atoms ...
  8 atoms
  read_data CPU = 0.001 seconds
mass		1 183.85

replicate       $x $y $z
replicate       1 $y $z
replicate       1 1 $z
replicate       1 1 1
Replicating atoms ...
  orthogonal box = (0.0000000 0.0000000 0.0000000) to (5.4687276 5.4687276 5.4687276)
  1 by 1 by 1 MPI processor grid
  8 atoms
  replicate CPU = 0.001 seconds

velocity	all create 300.0 87287 loop geom

neighbor	0.3 bin
neigh_modify	delay 0 every 10 check no

fix		1 all nve
fix             2 all client/md
fix_modify      2 energy yes

thermo          1
dump dheating all atom 1 trj-heating.lammpstrj
run		1
WARNING: Communication cutoff is 0.0. No ghost atoms will be generated. Atoms may get lost. (../comm_brick.cpp:209)
Per MPI rank memory allocation (min/avg/max) = 2.801 | 2.801 | 2.801 Mbytes
Step Temp E_pair E_mol TotEng Press 
       0          300            0            0   -43.128653      1774.47 
       1    299.83154            0            0   -43.128653    1786.0348 
Loop time of 86.3884 on 1 procs for 1 steps with 8 atoms

Performance: 0.001 ns/day, 23996.777 hours/ns, 0.012 timesteps/s
0.0% CPU use with 1 MPI tasks x no OpenMP threads

MPI task timing breakdown:
Section |  min time  |  avg time  |  max time  |%varavg| %total
---------------------------------------------------------------
Pair    | 0          | 0          | 0          |   0.0 |  0.00
Neigh   | 0          | 0          | 0          |   0.0 |  0.00
Comm    | 5.4836e-06 | 5.4836e-06 | 5.4836e-06 |   0.0 |  0.00
Output  | 0.00011683 | 0.00011683 | 0.00011683 |   0.0 |  0.00
Modify  | 86.388     | 86.388     | 86.388     |   0.0 |100.00
Other   |            | 1.884e-05  |            |       |  0.00

Nlocal:        8.00000 ave           8 max           8 min
Histogram: 1 0 0 0 0 0 0 0 0 0
Nghost:        10.0000 ave          10 max          10 min
Histogram: 1 0 0 0 0 0 0 0 0 0
Neighs:         0.00000 ave           0 max           0 min
Histogram: 1 0 0 0 0 0 0 0 0 0

Total # of neighbors = 0
Ave neighs/atom = 0.0000000
Neighbor list builds = 0
Dangerous builds not checked
undump dheating
message         quit
Total wall time: 0:01:44
