ITEM: TIMESTEP
0
ITEM: NUMBER OF ATOMS
8
ITEM: BOX BOUNDS pp pp pp
0.0000000000000000e+00 5.4687275887000002e+00
0.0000000000000000e+00 5.4687275887000002e+00
0.0000000000000000e+00 5.4687275887000002e+00
ITEM: ATOMS id type xs ys zs
1 1 0.5 0.5 0
2 1 0.5 0 0.5
3 1 0 0.5 0.5
4 1 0 0 0
5 1 0.25 0.25 0.75
6 1 0.25 0.75 0.25
7 1 0.75 0.25 0.25
8 1 0.75 0.75 0.75
ITEM: TIMESTEP
1
ITEM: NUMBER OF ATOMS
8
ITEM: BOX BOUNDS pp pp pp
0.0000000000000000e+00 5.4687275887000002e+00
0.0000000000000000e+00 5.4687275887000002e+00
0.0000000000000000e+00 5.4687275887000002e+00
ITEM: ATOMS id type xs ys zs
1 1 0.500534 0.499909 0.000435472
2 1 0.49957 -0.000584191 0.500762
3 1 0.000669585 0.500185 0.499485
4 1 -0.000139854 -0.000510726 -0.00119476
5 1 0.249568 0.250826 0.750822
6 1 0.249386 0.750298 0.249731
7 1 0.750208 0.249861 0.249943
8 1 0.750204 0.750016 0.750016
ITEM: TIMESTEP
2
ITEM: NUMBER OF ATOMS
8
ITEM: BOX BOUNDS pp pp pp
0.0000000000000000e+00 5.4687275887000002e+00
0.0000000000000000e+00 5.4687275887000002e+00
0.0000000000000000e+00 5.4687275887000002e+00
ITEM: ATOMS id type xs ys zs
1 1 0.501066 0.499819 0.000871468
2 1 0.49914 -0.00116397 0.501523
3 1 0.00133581 0.500369 0.498971
4 1 -0.000280387 -0.00101795 -0.00238486
5 1 0.249139 0.251649 0.751641
6 1 0.248777 0.750596 0.249461
7 1 0.750416 0.249719 0.249888
8 1 0.750407 0.75003 0.75003
ITEM: TIMESTEP
3
ITEM: NUMBER OF ATOMS
8
ITEM: BOX BOUNDS pp pp pp
0.0000000000000000e+00 5.4687275887000002e+00
0.0000000000000000e+00 5.4687275887000002e+00
0.0000000000000000e+00 5.4687275887000002e+00
ITEM: ATOMS id type xs ys zs
1 1 0.501596 0.499733 0.00130849
2 1 0.49871 -0.00173503 0.50228
3 1 0.00199535 0.500552 0.498459
4 1 -0.000422195 -0.00151818 -0.00356566
5 1 0.248716 0.252468 0.752453
6 1 0.248174 0.750894 0.249189
7 1 0.750624 0.24957 0.249837
8 1 0.750607 0.750036 0.750039
ITEM: TIMESTEP
4
ITEM: NUMBER OF ATOMS
8
ITEM: BOX BOUNDS pp pp pp
0.0000000000000000e+00 5.4687275887000002e+00
0.0000000000000000e+00 5.4687275887000002e+00
0.0000000000000000e+00 5.4687275887000002e+00
ITEM: ATOMS id type xs ys zs
1 1 0.502121 0.499652 0.00174699
2 1 0.498278 -0.00229318 0.50303
3 1 0.00264491 0.500733 0.497952
4 1 -0.000565779 -0.00200796 -0.00473256
5 1 0.248304 0.253281 0.753256
6 1 0.247583 0.751192 0.248915
7 1 0.750831 0.249411 0.24979
8 1 0.750804 0.750032 0.750041
ITEM: TIMESTEP
5
ITEM: NUMBER OF ATOMS
8
ITEM: BOX BOUNDS pp pp pp
0.0000000000000000e+00 5.4687275887000002e+00
0.0000000000000000e+00 5.4687275887000002e+00
0.0000000000000000e+00 5.4687275887000002e+00
ITEM: ATOMS id type xs ys zs
1 1 0.502642 0.499578 0.00218739
2 1 0.497845 -0.00283436 0.503774
3 1 0.00328129 0.500911 0.497451
4 1 -0.000711542 -0.00248386 -0.00588102
5 1 0.247903 0.254085 0.754047
6 1 0.247007 0.75149 0.248638
7 1 0.751037 0.24924 0.24975
8 1 0.750997 0.750014 0.750034
ITEM: TIMESTEP
6
ITEM: NUMBER OF ATOMS
8
ITEM: BOX BOUNDS pp pp pp
0.0000000000000000e+00 5.4687275887000002e+00
0.0000000000000000e+00 5.4687275887000002e+00
0.0000000000000000e+00 5.4687275887000002e+00
ITEM: ATOMS id type xs ys zs
1 1 0.503155 0.499513 0.00263009
2 1 0.497411 -0.00335472 0.504508
3 1 0.0039014 0.501086 0.496956
4 1 -0.000859797 -0.00294256 -0.00700663
5 1 0.247518 0.254878 0.754822
6 1 0.246449 0.751788 0.248357
7 1 0.751242 0.249053 0.249719
8 1 0.751183 0.74998 0.750014
ITEM: TIMESTEP
7
ITEM: NUMBER OF ATOMS
8
ITEM: BOX BOUNDS pp pp pp
0.0000000000000000e+00 5.4687275887000002e+00
0.0000000000000000e+00 5.4687275887000002e+00
0.0000000000000000e+00 5.4687275887000002e+00
ITEM: ATOMS id type xs ys zs
1 1 0.503661 0.499457 0.0030754
2 1 0.496975 -0.00385058 0.505231
3 1 0.00450224 0.501256 0.49647
4 1 -0.00101075 -0.00338083 -0.00810509
5 1 0.247151 0.255659 0.755579
6 1 0.245913 0.752086 0.248072
7 1 0.751447 0.248848 0.249698
8 1 0.751363 0.749926 0.74998
ITEM: TIMESTEP
8
ITEM: NUMBER OF ATOMS
8
ITEM: BOX BOUNDS pp pp pp
0.0000000000000000e+00 5.4687275887000002e+00
0.0000000000000000e+00 5.4687275887000002e+00
0.0000000000000000e+00 5.4687275887000002e+00
ITEM: ATOMS id type xs ys zs
1 1 0.504157 0.499412 0.00352362
2 1 0.496536 -0.0043185 0.50594
3 1 0.00508098 0.501421 0.495993
4 1 -0.00116453 -0.0037956 -0.0091723
5 1 0.246805 0.256426 0.756315
6 1 0.245402 0.752384 0.247782
7 1 0.75165 0.248622 0.249687
8 1 0.751533 0.749849 0.74993
ITEM: TIMESTEP
9
ITEM: NUMBER OF ATOMS
8
ITEM: BOX BOUNDS pp pp pp
0.0000000000000000e+00 5.4687275887000002e+00
0.0000000000000000e+00 5.4687275887000002e+00
0.0000000000000000e+00 5.4687275887000002e+00
ITEM: ATOMS id type xs ys zs
1 1 0.504644 0.499379 0.00397497
2 1 0.496096 -0.00475527 0.506636
3 1 0.00563496 0.50158 0.495526
4 1 -0.00132117 -0.00418393 -0.0102044
5 1 0.246481 0.257177 0.757028
6 1 0.244919 0.752682 0.247487
7 1 0.751852 0.248373 0.24969
8 1 0.751695 0.749747 0.749862
ITEM: TIMESTEP
10
ITEM: NUMBER OF ATOMS
8
ITEM: BOX BOUNDS pp pp pp
0.0000000000000000e+00 5.4687275887000002e+00
0.0000000000000000e+00 5.4687275887000002e+00
0.0000000000000000e+00 5.4687275887000002e+00
ITEM: ATOMS id type xs ys zs
1 1 0.505119 0.49936 0.00442965
2 1 0.495653 0.994842 0.507315
3 1 0.00616168 0.501733 0.495071
4 1 0.998519 0.995457 0.988802
5 1 0.246183 0.257911 0.757716
6 1 0.244467 0.752981 0.247186
7 1 0.752053 0.2481 0.249706
8 1 0.751845 0.749616 0.749773
ITEM: TIMESTEP
11
ITEM: NUMBER OF ATOMS
8
ITEM: BOX BOUNDS pp pp pp
0.0000000000000000e+00 5.4687275887000002e+00
0.0000000000000000e+00 5.4687275887000002e+00
0.0000000000000000e+00 5.4687275887000002e+00
ITEM: ATOMS id type xs ys zs
1 1 0.505582 0.499356 0.00488779
2 1 0.495207 0.994476 0.507976
3 1 0.00665886 0.501877 0.494629
4 1 0.998357 0.995129 0.987851
5 1 0.245911 0.258626 0.758377
6 1 0.244049 0.753281 0.246879
7 1 0.752252 0.247799 0.249737
8 1 0.751983 0.749456 0.749663
ITEM: TIMESTEP
12
ITEM: NUMBER OF ATOMS
8
ITEM: BOX BOUNDS pp pp pp
0.0000000000000000e+00 5.4687275887000002e+00
0.0000000000000000e+00 5.4687275887000002e+00
0.0000000000000000e+00 5.4687275887000002e+00
ITEM: ATOMS id type xs ys zs
1 1 0.506033 0.499367 0.00534947
2 1 0.494759 0.994149 0.508619
3 1 0.00712446 0.502013 0.4942
4 1 0.998192 0.994836 0.986946
5 1 0.245669 0.259322 0.759008
6 1 0.243667 0.753582 0.246565
7 1 0.752448 0.24747 0.249785
8 1 0.752107 0.749262 0.749528
ITEM: TIMESTEP
13
ITEM: NUMBER OF ATOMS
8
ITEM: BOX BOUNDS pp pp pp
0.0000000000000000e+00 5.4687275887000002e+00
0.0000000000000000e+00 5.4687275887000002e+00
0.0000000000000000e+00 5.4687275887000002e+00
ITEM: ATOMS id type xs ys zs
1 1 0.50647 0.499394 0.00581474
2 1 0.494308 0.993864 0.509241
3 1 0.00755663 0.502138 0.493785
4 1 0.998025 0.994578 0.986088
5 1 0.245457 0.259996 0.759608
6 1 0.243324 0.753884 0.246245
7 1 0.752643 0.247111 0.249849
8 1 0.752217 0.749035 0.749369
ITEM: TIMESTEP
14
ITEM: NUMBER OF ATOMS
8
ITEM: BOX BOUNDS pp pp pp
0.0000000000000000e+00 5.4687275887000002e+00
0.0000000000000000e+00 5.4687275887000002e+00
0.0000000000000000e+00 5.4687275887000002e+00
ITEM: ATOMS id type xs ys zs
1 1 0.506892 0.499437 0.00628358
2 1 0.493855 0.993621 0.509841
3 1 0.0079538 0.502253 0.493386
4 1 0.997855 0.994358 0.985282
5 1 0.245277 0.260649 0.760175
6 1 0.243021 0.754188 0.245918
7 1 0.752834 0.246722 0.249932
8 1 0.752312 0.748772 0.749183
ITEM: TIMESTEP
15
ITEM: NUMBER OF ATOMS
8
ITEM: BOX BOUNDS pp pp pp
0.0000000000000000e+00 5.4687275887000002e+00
0.0000000000000000e+00 5.4687275887000002e+00
0.0000000000000000e+00 5.4687275887000002e+00
ITEM: ATOMS id type xs ys zs
1 1 0.5073 0.499497 0.00675593
2 1 0.4934 0.993424 0.510418
3 1 0.00831465 0.502357 0.493001
4 1 0.997684 0.994178 0.984528
5 1 0.245129 0.261279 0.760709
6 1 0.24276 0.754493 0.245585
7 1 0.753023 0.246301 0.250033
8 1 0.75239 0.748472 0.74897
ITEM: TIMESTEP
16
ITEM: NUMBER OF ATOMS
8
ITEM: BOX BOUNDS pp pp pp
0.0000000000000000e+00 5.4687275887000002e+00
0.0000000000000000e+00 5.4687275887000002e+00
0.0000000000000000e+00 5.4687275887000002e+00
ITEM: ATOMS id type xs ys zs
1 1 0.507693 0.499574 0.00723169
2 1 0.492943 0.993271 0.510971
3 1 0.0086381 0.502448 0.492632
4 1 0.99751 0.994037 0.983829
5 1 0.245015 0.261886 0.761208
6 1 0.242542 0.754801 0.245245
7 1 0.753207 0.245848 0.250154
8 1 0.752451 0.748135 0.74873
ITEM: TIMESTEP
17
ITEM: NUMBER OF ATOMS
8
ITEM: BOX BOUNDS pp pp pp
0.0000000000000000e+00 5.4687275887000002e+00
0.0000000000000000e+00 5.4687275887000002e+00
0.0000000000000000e+00 5.4687275887000002e+00
ITEM: ATOMS id type xs ys zs
1 1 0.508071 0.499667 0.0077107
2 1 0.492485 0.993166 0.511499
3 1 0.00892337 0.502526 0.492279
4 1 0.997335 0.993938 0.983185
5 1 0.244936 0.262469 0.761671
6 1 0.242369 0.75511 0.2449
7 1 0.753388 0.245364 0.250294
8 1 0.752494 0.747761 0.74846
ITEM: TIMESTEP
18
ITEM: NUMBER OF ATOMS
8
ITEM: BOX BOUNDS pp pp pp
0.0000000000000000e+00 5.4687275887000002e+00
0.0000000000000000e+00 5.4687275887000002e+00
0.0000000000000000e+00 5.4687275887000002e+00
ITEM: ATOMS id type xs ys zs
1 1 0.508432 0.499777 0.00819278
2 1 0.492026 0.993107 0.512001
3 1 0.00916993 0.50259 0.491942
4 1 0.997158 0.99388 0.982599
5 1 0.244892 0.263028 0.762097
6 1 0.242241 0.755422 0.24455
7 1 0.753563 0.244847 0.250455
8 1 0.752518 0.747349 0.748162
ITEM: TIMESTEP
19
ITEM: NUMBER OF ATOMS
8
ITEM: BOX BOUNDS pp pp pp
0.0000000000000000e+00 5.4687275887000002e+00
0.0000000000000000e+00 5.4687275887000002e+00
0.0000000000000000e+00 5.4687275887000002e+00
ITEM: ATOMS id type xs ys zs
1 1 0.508779 0.499903 0.00867769
2 1 0.491566 0.993096 0.512476
3 1 0.00937754 0.502639 0.491621
4 1 0.996979 0.993864 0.982071
5 1 0.244883 0.263562 0.762486
6 1 0.242159 0.755736 0.244195
7 1 0.753734 0.2443 0.250637
8 1 0.752523 0.7469 0.747836
ITEM: TIMESTEP
20
ITEM: NUMBER OF ATOMS
8
ITEM: BOX BOUNDS pp pp pp
0.0000000000000000e+00 5.4687275887000002e+00
0.0000000000000000e+00 5.4687275887000002e+00
0.0000000000000000e+00 5.4687275887000002e+00
ITEM: ATOMS id type xs ys zs
1 1 0.50911 0.500044 0.00916516
2 1 0.491107 0.993133 0.512924
3 1 0.00954622 0.502674 0.491316
4 1 0.996799 0.99389 0.9816
5 1 0.24491 0.264071 0.762838
6 1 0.242123 0.756052 0.243836
7 1 0.753898 0.243721 0.25084
8 1 0.752509 0.746416 0.747481
ITEM: TIMESTEP
21
ITEM: NUMBER OF ATOMS
8
ITEM: BOX BOUNDS pp pp pp
0.0000000000000000e+00 5.4687275887000002e+00
0.0000000000000000e+00 5.4687275887000002e+00
0.0000000000000000e+00 5.4687275887000002e+00
ITEM: ATOMS id type xs ys zs
1 1 0.509425 0.5002 0.00965484
2 1 0.490649 0.993216 0.513343
3 1 0.00967627 0.502692 0.491026
4 1 0.996617 0.993957 0.981188
5 1 0.244971 0.264556 0.763152
6 1 0.242132 0.756371 0.243474
7 1 0.754055 0.243112 0.251063
8 1 0.752475 0.745896 0.747098
ITEM: TIMESTEP
22
ITEM: NUMBER OF ATOMS
8
ITEM: BOX BOUNDS pp pp pp
0.0000000000000000e+00 5.4687275887000002e+00
0.0000000000000000e+00 5.4687275887000002e+00
0.0000000000000000e+00 5.4687275887000002e+00
ITEM: ATOMS id type xs ys zs
1 1 0.509725 0.500369 0.0101464
2 1 0.490192 0.993346 0.513734
3 1 0.00976825 0.502694 0.490751
4 1 0.996434 0.994064 0.980832
5 1 0.245068 0.265016 0.763429
6 1 0.242187 0.756692 0.24311
7 1 0.754205 0.242475 0.251308
8 1 0.752421 0.745344 0.746689
ITEM: TIMESTEP
23
ITEM: NUMBER OF ATOMS
8
ITEM: BOX BOUNDS pp pp pp
0.0000000000000000e+00 5.4687275887000002e+00
0.0000000000000000e+00 5.4687275887000002e+00
0.0000000000000000e+00 5.4687275887000002e+00
ITEM: ATOMS id type xs ys zs
1 1 0.510011 0.500551 0.0106394
2 1 0.489739 0.993521 0.514096
3 1 0.00982299 0.50268 0.490491
4 1 0.996249 0.994211 0.980533
5 1 0.245198 0.265451 0.763668
6 1 0.242286 0.757015 0.242745
7 1 0.754347 0.241811 0.251573
8 1 0.752347 0.74476 0.746253
ITEM: TIMESTEP
24
ITEM: NUMBER OF ATOMS
8
ITEM: BOX BOUNDS pp pp pp
0.0000000000000000e+00 5.4687275887000002e+00
0.0000000000000000e+00 5.4687275887000002e+00
0.0000000000000000e+00 5.4687275887000002e+00
ITEM: ATOMS id type xs ys zs
1 1 0.510282 0.500744 0.0111333
2 1 0.48929 0.993741 0.514429
3 1 0.00984157 0.502649 0.490244
4 1 0.996062 0.994395 0.98029
5 1 0.245363 0.265862 0.763869
6 1 0.242429 0.757341 0.242381
7 1 0.754479 0.241121 0.251859
8 1 0.752254 0.744148 0.745793
ITEM: TIMESTEP
25
ITEM: NUMBER OF ATOMS
8
ITEM: BOX BOUNDS pp pp pp
0.0000000000000000e+00 5.4687275887000002e+00
0.0000000000000000e+00 5.4687275887000002e+00
0.0000000000000000e+00 5.4687275887000002e+00
ITEM: ATOMS id type xs ys zs
1 1 0.510539 0.500947 0.0116277
2 1 0.488845 0.994004 0.514733
3 1 0.0098253 0.502601 0.490011
4 1 0.995873 0.994615 0.9801
5 1 0.24556 0.26625 0.764035
6 1 0.242614 0.757669 0.242018
7 1 0.754601 0.240407 0.252166
8 1 0.752142 0.743509 0.74531
ITEM: TIMESTEP
26
ITEM: NUMBER OF ATOMS
8
ITEM: BOX BOUNDS pp pp pp
0.0000000000000000e+00 5.4687275887000002e+00
0.0000000000000000e+00 5.4687275887000002e+00
0.0000000000000000e+00 5.4687275887000002e+00
ITEM: ATOMS id type xs ys zs
1 1 0.510784 0.501158 0.0121219
2 1 0.488407 0.994307 0.515006
3 1 0.00977575 0.502535 0.489789
4 1 0.995683 0.994869 0.979962
5 1 0.245789 0.266613 0.764164
6 1 0.242839 0.757998 0.241658
7 1 0.754712 0.239672 0.252492
8 1 0.75201 0.742847 0.744806
ITEM: TIMESTEP
27
ITEM: NUMBER OF ATOMS
8
ITEM: BOX BOUNDS pp pp pp
0.0000000000000000e+00 5.4687275887000002e+00
0.0000000000000000e+00 5.4687275887000002e+00
0.0000000000000000e+00 5.4687275887000002e+00
ITEM: ATOMS id type xs ys zs
1 1 0.511016 0.501375 0.0126154
2 1 0.487976 0.99465 0.515251
3 1 0.00969467 0.502452 0.489578
4 1 0.99549 0.995155 0.979874
5 1 0.246048 0.266954 0.764258
6 1 0.243103 0.75833 0.241303
7 1 0.754812 0.238917 0.252838
8 1 0.75186 0.742166 0.744282
ITEM: TIMESTEP
28
ITEM: NUMBER OF ATOMS
8
ITEM: BOX BOUNDS pp pp pp
0.0000000000000000e+00 5.4687275887000002e+00
0.0000000000000000e+00 5.4687275887000002e+00
0.0000000000000000e+00 5.4687275887000002e+00
ITEM: ATOMS id type xs ys zs
1 1 0.511237 0.501598 0.0131075
2 1 0.487554 0.995029 0.515466
3 1 0.00958404 0.502352 0.489378
4 1 0.995296 0.99547 0.979833
5 1 0.246336 0.267273 0.764318
6 1 0.243403 0.758663 0.240953
7 1 0.754898 0.238146 0.253203
8 1 0.751692 0.741468 0.743741
ITEM: TIMESTEP
29
ITEM: NUMBER OF ATOMS
8
ITEM: BOX BOUNDS pp pp pp
0.0000000000000000e+00 5.4687275887000002e+00
0.0000000000000000e+00 5.4687275887000002e+00
0.0000000000000000e+00 5.4687275887000002e+00
ITEM: ATOMS id type xs ys zs
1 1 0.511447 0.501823 0.0135974
2 1 0.487142 0.995443 0.515651
3 1 0.00944601 0.502234 0.489186
4 1 0.995099 0.995813 0.979837
5 1 0.246651 0.267571 0.764346
6 1 0.243737 0.758997 0.240611
7 1 0.754972 0.237361 0.253586
8 1 0.751506 0.740758 0.743185
ITEM: TIMESTEP
30
ITEM: NUMBER OF ATOMS
8
ITEM: BOX BOUNDS pp pp pp
0.0000000000000000e+00 5.4687275887000002e+00
0.0000000000000000e+00 5.4687275887000002e+00
0.0000000000000000e+00 5.4687275887000002e+00
ITEM: ATOMS id type xs ys zs
1 1 0.511647 0.50205 0.0140843
2 1 0.486741 0.995889 0.515808
3 1 0.0092829 0.5021 0.489001
4 1 0.9949 0.996178 0.979883
5 1 0.246992 0.267848 0.764342
6 1 0.244103 0.759333 0.240278
7 1 0.75503 0.236565 0.253987
8 1 0.751303 0.740038 0.742617
ITEM: TIMESTEP
31
ITEM: NUMBER OF ATOMS
8
ITEM: BOX BOUNDS pp pp pp
0.0000000000000000e+00 5.4687275887000002e+00
0.0000000000000000e+00 5.4687275887000002e+00
0.0000000000000000e+00 5.4687275887000002e+00
ITEM: ATOMS id type xs ys zs
1 1 0.511839 0.502275 0.0145675
2 1 0.486353 0.996363 0.515936
3 1 0.00909716 0.501949 0.488823
4 1 0.9947 0.996565 0.979967
5 1 0.247357 0.268105 0.764308
6 1 0.244498 0.759669 0.239956
7 1 0.755074 0.235761 0.254404
8 1 0.751083 0.739314 0.742038
ITEM: TIMESTEP
32
ITEM: NUMBER OF ATOMS
8
ITEM: BOX BOUNDS pp pp pp
0.0000000000000000e+00 5.4687275887000002e+00
0.0000000000000000e+00 5.4687275887000002e+00
0.0000000000000000e+00 5.4687275887000002e+00
ITEM: ATOMS id type xs ys zs
1 1 0.512023 0.502498 0.0150459
2 1 0.485979 0.996862 0.516036
3 1 0.00889138 0.501781 0.48865
4 1 0.994497 0.99697 0.980087
5 1 0.247742 0.268343 0.764246
6 1 0.244918 0.760006 0.239645
7 1 0.755101 0.234951 0.254837
8 1 0.750848 0.738589 0.741453
ITEM: TIMESTEP
33
ITEM: NUMBER OF ATOMS
8
ITEM: BOX BOUNDS pp pp pp
0.0000000000000000e+00 5.4687275887000002e+00
0.0000000000000000e+00 5.4687275887000002e+00
0.0000000000000000e+00 5.4687275887000002e+00
ITEM: ATOMS id type xs ys zs
1 1 0.512201 0.502716 0.0155188
2 1 0.48562 0.997384 0.516108
3 1 0.00866825 0.501596 0.488481
4 1 0.994293 0.997389 0.980239
5 1 0.248148 0.268564 0.764158
6 1 0.245361 0.760343 0.239348
7 1 0.755112 0.23414 0.255285
8 1 0.750598 0.737867 0.740863
ITEM: TIMESTEP
34
ITEM: NUMBER OF ATOMS
8
ITEM: BOX BOUNDS pp pp pp
0.0000000000000000e+00 5.4687275887000002e+00
0.0000000000000000e+00 5.4687275887000002e+00
0.0000000000000000e+00 5.4687275887000002e+00
ITEM: ATOMS id type xs ys zs
1 1 0.512373 0.502927 0.0159852
2 1 0.485278 0.997925 0.516153
3 1 0.00843053 0.501396 0.488314
4 1 0.994088 0.997819 0.98042
5 1 0.248569 0.268769 0.764044
6 1 0.245823 0.76068 0.239067
7 1 0.755106 0.233331 0.255746
8 1 0.750333 0.737153 0.740271
ITEM: TIMESTEP
35
ITEM: NUMBER OF ATOMS
8
ITEM: BOX BOUNDS pp pp pp
0.0000000000000000e+00 5.4687275887000002e+00
0.0000000000000000e+00 5.4687275887000002e+00
0.0000000000000000e+00 5.4687275887000002e+00
ITEM: ATOMS id type xs ys zs
1 1 0.51254 0.503129 0.0164439
2 1 0.484954 0.998481 0.516171
3 1 0.00818103 0.501181 0.488148
4 1 0.993882 0.998258 0.980626
5 1 0.249006 0.268958 0.763909
6 1 0.246302 0.761017 0.238801
7 1 0.755082 0.232526 0.25622
8 1 0.750054 0.73645 0.739681
ITEM: TIMESTEP
36
ITEM: NUMBER OF ATOMS
8
ITEM: BOX BOUNDS pp pp pp
0.0000000000000000e+00 5.4687275887000002e+00
0.0000000000000000e+00 5.4687275887000002e+00
0.0000000000000000e+00 5.4687275887000002e+00
ITEM: ATOMS id type xs ys zs
1 1 0.512705 0.50332 0.0168941
2 1 0.484649 0.999049 0.516165
3 1 0.00792259 0.500951 0.487983
4 1 0.993675 0.998701 0.980853
5 1 0.249454 0.269133 0.763752
6 1 0.246793 0.761353 0.238554
7 1 0.75504 0.231729 0.256705
8 1 0.749763 0.735764 0.739094
ITEM: TIMESTEP
37
ITEM: NUMBER OF ATOMS
8
ITEM: BOX BOUNDS pp pp pp
0.0000000000000000e+00 5.4687275887000002e+00
0.0000000000000000e+00 5.4687275887000002e+00
0.0000000000000000e+00 5.4687275887000002e+00
ITEM: ATOMS id type xs ys zs
1 1 0.512866 0.503499 0.0173346
2 1 0.484364 0.999625 0.516133
3 1 0.00765806 0.500707 0.487817
4 1 0.993469 0.999145 0.981098
5 1 0.249911 0.269295 0.763578
6 1 0.247293 0.761689 0.238325
7 1 0.754979 0.230944 0.257199
8 1 0.749459 0.735097 0.738515
ITEM: TIMESTEP
38
ITEM: NUMBER OF ATOMS
8
ITEM: BOX BOUNDS pp pp pp
0.0000000000000000e+00 5.4687275887000002e+00
0.0000000000000000e+00 5.4687275887000002e+00
0.0000000000000000e+00 5.4687275887000002e+00
ITEM: ATOMS id type xs ys zs
1 1 0.513027 0.503663 0.0177645
2 1 0.484101 1.0002 0.516078
3 1 0.00739026 0.50045 0.487649
4 1 0.993264 0.999588 0.981358
5 1 0.250375 0.269445 0.763387
6 1 0.247799 0.762022 0.238116
7 1 0.7549 0.230174 0.257703
8 1 0.749144 0.734453 0.737944
ITEM: TIMESTEP
39
ITEM: NUMBER OF ATOMS
8
ITEM: BOX BOUNDS pp pp pp
0.0000000000000000e+00 5.4687275887000002e+00
0.0000000000000000e+00 5.4687275887000002e+00
0.0000000000000000e+00 5.4687275887000002e+00
ITEM: ATOMS id type xs ys zs
1 1 0.513187 0.503811 0.0181826
2 1 0.48386 1.00078 0.516
3 1 0.00712198 0.50018 0.487478
4 1 0.99306 1.00003 0.981629
5 1 0.250843 0.269585 0.763183
6 1 0.248307 0.762355 0.237928
7 1 0.754802 0.229423 0.258212
8 1 0.748819 0.733837 0.737387
ITEM: TIMESTEP
40
ITEM: NUMBER OF ATOMS
8
ITEM: BOX BOUNDS pp pp pp
0.0000000000000000e+00 5.4687275887000002e+00
0.0000000000000000e+00 5.4687275887000002e+00
0.0000000000000000e+00 5.4687275887000002e+00
ITEM: ATOMS id type xs ys zs
1 1 0.513347 0.503941 0.0185879
2 1 0.483642 0.0013618 0.515901
3 1 0.00685593 0.499899 0.487303
4 1 0.992859 0.000454551 0.981907
5 1 0.251312 0.269716 0.762967
6 1 0.248814 0.762685 0.237763
7 1 0.754687 0.228693 0.258728
8 1 0.748484 0.733251 0.736843
ITEM: TIMESTEP
41
ITEM: NUMBER OF ATOMS
8
ITEM: BOX BOUNDS pp pp pp
0.0000000000000000e+00 5.4687275887000002e+00
0.0000000000000000e+00 5.4687275887000002e+00
0.0000000000000000e+00 5.4687275887000002e+00
ITEM: ATOMS id type xs ys zs
1 1 0.513509 0.504051 0.0189793
2 1 0.483448 0.00193143 0.515782
3 1 0.00659474 0.499606 0.487124
4 1 0.992661 0.000872986 0.982189
5 1 0.251779 0.269839 0.762742
6 1 0.249316 0.763012 0.23762
7 1 0.754553 0.227988 0.259246
8 1 0.74814 0.732699 0.736318
ITEM: TIMESTEP
42
ITEM: NUMBER OF ATOMS
8
ITEM: BOX BOUNDS pp pp pp
0.0000000000000000e+00 5.4687275887000002e+00
0.0000000000000000e+00 5.4687275887000002e+00
0.0000000000000000e+00 5.4687275887000002e+00
ITEM: ATOMS id type xs ys zs
1 1 0.513672 0.504142 0.0193559
2 1 0.483279 0.00249007 0.515643
3 1 0.00634092 0.499305 0.48694
4 1 0.992468 0.00127759 0.982473
5 1 0.252241 0.269954 0.762511
6 1 0.24981 0.763337 0.2375
7 1 0.754401 0.227311 0.259766
8 1 0.747788 0.732184 0.735812
ITEM: TIMESTEP
43
ITEM: NUMBER OF ATOMS
8
ITEM: BOX BOUNDS pp pp pp
0.0000000000000000e+00 5.4687275887000002e+00
0.0000000000000000e+00 5.4687275887000002e+00
0.0000000000000000e+00 5.4687275887000002e+00
ITEM: ATOMS id type xs ys zs
1 1 0.513838 0.50421 0.0197167
2 1 0.483135 0.00303406 0.515487
3 1 0.00609686 0.498994 0.48675
4 1 0.992279 0.0016657 0.982753
5 1 0.252697 0.270064 0.762275
6 1 0.250293 0.763657 0.237403
7 1 0.754232 0.226665 0.260286
8 1 0.747429 0.73171 0.735328
ITEM: TIMESTEP
44
ITEM: NUMBER OF ATOMS
8
ITEM: BOX BOUNDS pp pp pp
0.0000000000000000e+00 5.4687275887000002e+00
0.0000000000000000e+00 5.4687275887000002e+00
0.0000000000000000e+00 5.4687275887000002e+00
ITEM: ATOMS id type xs ys zs
1 1 0.514007 0.504256 0.0200607
2 1 0.483016 0.00355984 0.515315
3 1 0.00586479 0.498677 0.486555
4 1 0.992097 0.00203485 0.983029
5 1 0.253142 0.270169 0.762037
6 1 0.250761 0.763974 0.237331
7 1 0.754047 0.226053 0.260804
8 1 0.747064 0.731277 0.734868
ITEM: TIMESTEP
45
ITEM: NUMBER OF ATOMS
8
ITEM: BOX BOUNDS pp pp pp
0.0000000000000000e+00 5.4687275887000002e+00
0.0000000000000000e+00 5.4687275887000002e+00
0.0000000000000000e+00 5.4687275887000002e+00
ITEM: ATOMS id type xs ys zs
1 1 0.51418 0.504278 0.020387
2 1 0.482922 0.00406397 0.515129
3 1 0.00564679 0.498353 0.486354
4 1 0.991921 0.00238274 0.983297
5 1 0.253576 0.27027 0.761799
6 1 0.251212 0.764285 0.237283
7 1 0.753847 0.225477 0.261317
8 1 0.746695 0.730889 0.734434
ITEM: TIMESTEP
46
ITEM: NUMBER OF ATOMS
8
ITEM: BOX BOUNDS pp pp pp
0.0000000000000000e+00 5.4687275887000002e+00
0.0000000000000000e+00 5.4687275887000002e+00
0.0000000000000000e+00 5.4687275887000002e+00
ITEM: ATOMS id type xs ys zs
1 1 0.514356 0.504276 0.0206949
2 1 0.482854 0.00454318 0.51493
3 1 0.00544475 0.498025 0.486148
4 1 0.991754 0.00270727 0.983554
5 1 0.253994 0.270369 0.761563
6 1 0.251643 0.764591 0.237259
7 1 0.753633 0.224941 0.261824
8 1 0.746322 0.730548 0.734028
ITEM: TIMESTEP
47
ITEM: NUMBER OF ATOMS
8
ITEM: BOX BOUNDS pp pp pp
0.0000000000000000e+00 5.4687275887000002e+00
0.0000000000000000e+00 5.4687275887000002e+00
0.0000000000000000e+00 5.4687275887000002e+00
ITEM: ATOMS id type xs ys zs
1 1 0.514535 0.504249 0.0209835
2 1 0.48281 0.00499437 0.51472
3 1 0.00526037 0.497694 0.485936
4 1 0.991594 0.00300656 0.983798
5 1 0.254396 0.270465 0.761331
6 1 0.252051 0.76489 0.237258
7 1 0.753406 0.224446 0.262322
8 1 0.745947 0.730254 0.733651
ITEM: TIMESTEP
48
ITEM: NUMBER OF ATOMS
8
ITEM: BOX BOUNDS pp pp pp
0.0000000000000000e+00 5.4687275887000002e+00
0.0000000000000000e+00 5.4687275887000002e+00
0.0000000000000000e+00 5.4687275887000002e+00
ITEM: ATOMS id type xs ys zs
1 1 0.514718 0.504198 0.0212522
2 1 0.482792 0.00541463 0.514502
3 1 0.00509515 0.497362 0.485719
4 1 0.991445 0.00327894 0.984028
5 1 0.254777 0.27056 0.761106
6 1 0.252433 0.765182 0.237281
7 1 0.753168 0.223995 0.262808
8 1 0.745572 0.73001 0.733305
ITEM: TIMESTEP
49
ITEM: NUMBER OF ATOMS
8
ITEM: BOX BOUNDS pp pp pp
0.0000000000000000e+00 5.4687275887000002e+00
0.0000000000000000e+00 5.4687275887000002e+00
0.0000000000000000e+00 5.4687275887000002e+00
ITEM: ATOMS id type xs ys zs
1 1 0.514905 0.504122 0.0215003
2 1 0.482797 0.00580129 0.514276
3 1 0.00495041 0.497029 0.485498
4 1 0.991305 0.00352297 0.98424
5 1 0.255138 0.270653 0.760888
6 1 0.252789 0.765465 0.237327
7 1 0.75292 0.22359 0.263281
8 1 0.745197 0.729817 0.73299
ITEM: TIMESTEP
50
ITEM: NUMBER OF ATOMS
8
ITEM: BOX BOUNDS pp pp pp
0.0000000000000000e+00 5.4687275887000002e+00
0.0000000000000000e+00 5.4687275887000002e+00
0.0000000000000000e+00 5.4687275887000002e+00
ITEM: ATOMS id type xs ys zs
1 1 0.515095 0.504021 0.0217274
2 1 0.482826 0.00615193 0.514045
3 1 0.0048272 0.496699 0.485272
4 1 0.991175 0.00373743 0.984433
5 1 0.255474 0.270746 0.76068
6 1 0.253114 0.765738 0.237395
7 1 0.752663 0.223232 0.263738
8 1 0.744825 0.729674 0.732709
ITEM: TIMESTEP
51
ITEM: NUMBER OF ATOMS
8
ITEM: BOX BOUNDS pp pp pp
0.0000000000000000e+00 5.4687275887000002e+00
0.0000000000000000e+00 5.4687275887000002e+00
0.0000000000000000e+00 5.4687275887000002e+00
ITEM: ATOMS id type xs ys zs
1 1 0.515287 0.503896 0.0219329
2 1 0.482877 0.00646438 0.51381
3 1 0.00472641 0.496372 0.485044
4 1 0.991057 0.00392132 0.984606
5 1 0.255786 0.270839 0.760484
6 1 0.253409 0.766001 0.237485
7 1 0.752401 0.222923 0.264176
8 1 0.744457 0.729582 0.732461
ITEM: TIMESTEP
52
ITEM: NUMBER OF ATOMS
8
ITEM: BOX BOUNDS pp pp pp
0.0000000000000000e+00 5.4687275887000002e+00
0.0000000000000000e+00 5.4687275887000002e+00
0.0000000000000000e+00 5.4687275887000002e+00
ITEM: ATOMS id type xs ys zs
1 1 0.515482 0.503747 0.0221165
2 1 0.482949 0.00673673 0.513575
3 1 0.00464867 0.496051 0.484814
4 1 0.990951 0.00407389 0.984758
5 1 0.256071 0.270932 0.7603
6 1 0.25367 0.766252 0.237595
7 1 0.752135 0.222664 0.264593
8 1 0.744094 0.729542 0.732248
ITEM: TIMESTEP
53
ITEM: NUMBER OF ATOMS
8
ITEM: BOX BOUNDS pp pp pp
0.0000000000000000e+00 5.4687275887000002e+00
0.0000000000000000e+00 5.4687275887000002e+00
0.0000000000000000e+00 5.4687275887000002e+00
ITEM: ATOMS id type xs ys zs
1 1 0.515678 0.503576 0.022278
2 1 0.483041 0.00696741 0.513341
3 1 0.00459444 0.495738 0.484582
4 1 0.990857 0.0041946 0.984888
5 1 0.256327 0.271024 0.76013
6 1 0.253898 0.76649 0.237724
7 1 0.751866 0.222457 0.264987
8 1 0.743739 0.729553 0.73207
ITEM: TIMESTEP
54
ITEM: NUMBER OF ATOMS
8
ITEM: BOX BOUNDS pp pp pp
0.0000000000000000e+00 5.4687275887000002e+00
0.0000000000000000e+00 5.4687275887000002e+00
0.0000000000000000e+00 5.4687275887000002e+00
ITEM: ATOMS id type xs ys zs
1 1 0.515874 0.503383 0.0224169
2 1 0.483153 0.0071551 0.513111
3 1 0.00456392 0.495434 0.484352
4 1 0.990775 0.00428315 0.984994
5 1 0.256554 0.271116 0.759974
6 1 0.25409 0.766713 0.237872
7 1 0.751597 0.222301 0.265354
8 1 0.743393 0.729614 0.731926
ITEM: TIMESTEP
55
ITEM: NUMBER OF ATOMS
8
ITEM: BOX BOUNDS pp pp pp
0.0000000000000000e+00 5.4687275887000002e+00
0.0000000000000000e+00 5.4687275887000002e+00
0.0000000000000000e+00 5.4687275887000002e+00
ITEM: ATOMS id type xs ys zs
1 1 0.51607 0.50317 0.0225333
2 1 0.483281 0.00729884 0.512885
3 1 0.00455713 0.495142 0.484122
4 1 0.990706 0.00433946 0.985077
5 1 0.256751 0.271207 0.759835
6 1 0.254245 0.766921 0.238037
7 1 0.75133 0.222198 0.265693
8 1 0.743059 0.729724 0.731818
ITEM: TIMESTEP
56
ITEM: NUMBER OF ATOMS
8
ITEM: BOX BOUNDS pp pp pp
0.0000000000000000e+00 5.4687275887000002e+00
0.0000000000000000e+00 5.4687275887000002e+00
0.0000000000000000e+00 5.4687275887000002e+00
ITEM: ATOMS id type xs ys zs
1 1 0.516265 0.502937 0.0226271
2 1 0.483426 0.00739796 0.512667
3 1 0.00457388 0.494863 0.483896
4 1 0.990649 0.00436364 0.985136
5 1 0.256916 0.271297 0.759711
6 1 0.254365 0.767111 0.238216
7 1 0.751068 0.222147 0.266
8 1 0.742738 0.729883 0.731746
ITEM: TIMESTEP
57
ITEM: NUMBER OF ATOMS
8
ITEM: BOX BOUNDS pp pp pp
0.0000000000000000e+00 5.4687275887000002e+00
0.0000000000000000e+00 5.4687275887000002e+00
0.0000000000000000e+00 5.4687275887000002e+00
ITEM: ATOMS id type xs ys zs
1 1 0.516456 0.502687 0.0226981
2 1 0.483585 0.00745213 0.512458
3 1 0.00461379 0.494599 0.483675
4 1 0.990605 0.00435603 0.985171
5 1 0.25705 0.271385 0.759605
6 1 0.254447 0.767282 0.23841
7 1 0.750812 0.222149 0.266275
8 1 0.742431 0.730089 0.731708
ITEM: TIMESTEP
58
ITEM: NUMBER OF ATOMS
8
ITEM: BOX BOUNDS pp pp pp
0.0000000000000000e+00 5.4687275887000002e+00
0.0000000000000000e+00 5.4687275887000002e+00
0.0000000000000000e+00 5.4687275887000002e+00
ITEM: ATOMS id type xs ys zs
1 1 0.516644 0.502421 0.0227465
2 1 0.483756 0.00746137 0.51226
3 1 0.00467628 0.494354 0.483459
4 1 0.990573 0.00431719 0.985182
5 1 0.257152 0.271471 0.759516
6 1 0.254492 0.767433 0.238616
7 1 0.750564 0.222203 0.266515
8 1 0.742142 0.730339 0.731705
ITEM: TIMESTEP
59
ITEM: NUMBER OF ATOMS
8
ITEM: BOX BOUNDS pp pp pp
0.0000000000000000e+00 5.4687275887000002e+00
0.0000000000000000e+00 5.4687275887000002e+00
0.0000000000000000e+00 5.4687275887000002e+00
ITEM: ATOMS id type xs ys zs
1 1 0.516826 0.502142 0.0227724
2 1 0.483939 0.00742601 0.512076
3 1 0.00476062 0.494127 0.483252
4 1 0.990554 0.00424783 0.985169
5 1 0.257221 0.271553 0.759443
6 1 0.254499 0.767563 0.238833
7 1 0.750327 0.222309 0.266717
8 1 0.741872 0.730633 0.731737
ITEM: TIMESTEP
60
ITEM: NUMBER OF ATOMS
8
ITEM: BOX BOUNDS pp pp pp
0.0000000000000000e+00 5.4687275887000002e+00
0.0000000000000000e+00 5.4687275887000002e+00
0.0000000000000000e+00 5.4687275887000002e+00
ITEM: ATOMS id type xs ys zs
1 1 0.517002 0.50185 0.0227758
2 1 0.484131 0.0073467 0.511905
3 1 0.00486588 0.493922 0.483053
4 1 0.990547 0.00414888 0.985134
5 1 0.257257 0.27163 0.759389
6 1 0.25447 0.767669 0.23906
7 1 0.750103 0.222465 0.26688
8 1 0.741624 0.730968 0.731803
ITEM: TIMESTEP
61
ITEM: NUMBER OF ATOMS
8
ITEM: BOX BOUNDS pp pp pp
0.0000000000000000e+00 5.4687275887000002e+00
0.0000000000000000e+00 5.4687275887000002e+00
0.0000000000000000e+00 5.4687275887000002e+00
ITEM: ATOMS id type xs ys zs
1 1 0.517169 0.501549 0.022757
2 1 0.48433 0.00722445 0.511751
3 1 0.004991 0.493739 0.482866
4 1 0.990552 0.00402143 0.985077
5 1 0.257262 0.271702 0.759351
6 1 0.254405 0.767751 0.239293