ITEM: TIMESTEP
0
ITEM: NUMBER OF ATOMS
8
ITEM: BOX BOUNDS pp pp pp
0.0000000000000000e+00 5.4687275887000002e+00
0.0000000000000000e+00 5.4687275887000002e+00
0.0000000000000000e+00 5.4687275887000002e+00
ITEM: ATOMS id type xs ys zs
1 1 0.5 0.5 0
2 1 0.5 0 0.5
3 1 0 0.5 0.5
4 1 0 0 0
5 1 0.25 0.25 0.75
6 1 0.25 0.75 0.25
7 1 0.75 0.25 0.25
8 1 0.75 0.75 0.75
ITEM: TIMESTEP
1
ITEM: NUMBER OF ATOMS
8
ITEM: BOX BOUNDS pp pp pp
0.0000000000000000e+00 5.4687275887000002e+00
0.0000000000000000e+00 5.4687275887000002e+00
0.0000000000000000e+00 5.4687275887000002e+00
ITEM: ATOMS id type xs ys zs
1 1 0.500209 0.499964 0.000170204
2 1 0.499832 -0.000228331 0.500298
3 1 0.000261707 0.500072 0.499799
4 1 -5.46617e-05 -0.000199617 -0.000466971
5 1 0.249831 0.250323 0.750321
6 1 0.24976 0.750117 0.249895
7 1 0.750081 0.249946 0.249978
8 1 0.75008 0.750006 0.750006
