LAMMPS data file via write_data, version 29 Sep 2021, timestep = 881

8280 atoms
2 atom types

0.1691384350876492 254.01714562891252 xlo xhi
0.06405681080199846 95.64542204319797 ylo yhi
0 20 zlo zhi

Masses

1 95.95
2 32.06

Atoms # charge

5 2 -0.20766339236387377 1.0829378422379 1.6416449401505862 8.406621058390606 0 0 0
281 2 -0.20755785511317815 1.0685242930463028 4.8306271436306085 8.411335731253438 0 0 0
557 2 -0.2075131252528508 1.065473513031165 8.018989997748124 8.420399640511999 0 0 0
11 2 -0.20751461226876372 6.621879657022484 1.6456290095122852 8.4092268088773 0 0 0
287 2 -0.20773237586665405 6.613960206653497 4.822922330642952 8.406444833993332 0 0 0
563 2 -0.20751918470613545 6.596159102366816 8.006989591599833 8.398046116144393 0 0 0
1393 1 0.41522066560009624 11.19909773901731 15.966554783972612 10.015789499966333 0 0 0
3 2 -0.20750406390322362 1.087617979924412 1.6377115801215592 11.59045505365887 0 0 0
1396 2 -0.20772504189591037 14.88002791506942 15.965832030158703 11.58489791104197 0 0 0
279 2 -0.2076525721713948 1.0804985527356386 4.821642755050671 11.594854300958858 0 0 0
555 2 -0.20782379459240782 1.0761197586272602 8.01440319331089 11.603164367355298 0 0 0
9 2 -0.2075896393042241 6.614013759904874 1.64710978665275 11.59354121717248 0 0 0
283 1 0.4149083068621193 5.684935017000782 3.233079129519249 9.998034074082133 0 0 0
285 2 -0.2074644612863163 6.598753532408869 4.8295790716194515 11.590493506048476 0 0 0
559 1 0.41490172560910854 5.674042168877026 6.413465819636306 9.989354891295473 0 0 0
561 2 -0.20773026304343717 6.594445270936465 8.005540704361179 11.581838500429697 0 0 0
1387 1 0.41515921979829873 5.6821312816161225 15.971513610109554 10.009950303963997 0 0 0
282 2 -0.20782601298132186 3.8450856312929833 3.234771485503669 8.404288591890259 0 0 0
558 2 -0.20772869469514227 3.827427047528858 6.422132948430535 8.404706516674286 0 0 0
2 1 0.4149620421304012 2.9260813933525425 1.6386974164792638 9.995153375119033 0 0 0
278 1 0.41493308373551363 2.9151737740309565 4.822982029468484 9.99553205291117 0 0 0
280 2 -0.2074471025430891 3.841741345493322 3.2329720587805086 11.588012121093033 0 0 0
556 2 -0.20764479499643235 3.8374717376288134 6.413679111977612 11.587985883020064 0 0 0
17 2 -0.20736418188631525 12.149919454377702 1.6617460307194387 8.41330642710648 0 0 0
293 2 -0.2073874954154257 12.148037450800032 4.838648092783257 8.423943581361879 0 0 0
15 2 -0.2074500781497547 12.152603022819513 1.6501197718895269 11.598076946511867 0 0 0
289 1 0.41507863518135374 11.22326295751363 3.245407872766364 10.013748645941202 0 0 0
291 2 -0.2074894160773907 12.143462045095736 4.837956026876442 11.608622021144727 0 0 0
565 1 0.41508284695278325 11.212305930683241 6.42455155525373 10.015909367482694 0 0 0
18 2 -0.2075467918612441 14.912883870237145 0.07442380175271372 8.407232483735608 0 0 0
288 2 -0.20739124376334006 9.38621712605086 3.2409298774385236 8.417124632698378 0 0 0
564 2 -0.20773638049738646 9.379666875980151 6.412225608948245 8.413063689085606 0 0 0
568 2 -0.2077652454003137 14.901194913677823 6.446668038858774 11.605557672870864 0 0 0
294 2 -0.20717866179495792 14.907696013802571 3.262065276371683 8.416937926259344 0 0 0
570 2 -0.20725469547761471 14.909897266528029 6.43330806376425 8.42195151697897 0 0 0
8 1 0.4149949279626634 8.459209500932245 1.648466018440804 10.006222575749405 0 0 0
292 2 -0.2077631912631387 14.913276002437232 3.24987875982689 11.60091115975591 0 0 0
284 1 0.41496445932912346 8.44807211010264 4.826893553360615 10.0080564123728 0 0 0
286 2 -0.20753960009521075 9.37882977354012 3.2406052134864547 11.601981222068705 0 0 0
560 1 0.41499249176337427 8.436942360791207 8.00500425979673 9.991254149176635 0 0 0
562 2 -0.20724427859855435 9.363146291030894 6.425997376697565 11.597614506486877 0 0 0
14 1 0.4151797886265758 13.990667201110774 1.6620553110931322 10.003892789664647 0 0 0
290 1 0.41513815763769474 13.985367692622841 4.8461641113647005 10.018006737110175 0 0 0
833 2 -0.20763141386917283 1.0718827284566188 11.20389048981846 8.41638815998653 0 0 0
1109 2 -0.20790127360935184 1.0828313206281523 14.397514814798459 8.401153873417321 0 0 0
839 2 -0.20747659062435855 6.588793860178231 11.194141725581096 8.403341659476375 0 0 0
1115 2 -0.20756627920304596 6.600897696497303 14.37834963053716 8.418032438171894 0 0 0
831 2 -0.20782234409295802 1.07848332803751 11.22037716209372 11.598377996418062 0 0 0
1390 2 -0.2076159004964663 9.364559597298955 15.954135580561744 11.612829127132509 0 0 0
1107 2 -0.20751959859102 1.0809668993928365 14.414792361705043 11.58299877561466 0 0 0
835 1 0.4149599148560008 5.669662506586534 9.597087774763557 9.990236216770398 0 0 0
837 2 -0.20780606427026369 6.59336618263772 11.184562800905216 11.586615148619906 0 0 0
1111 1 0.41505096899012267 5.673628418939478 12.784379474789827 10.002250889874448 0 0 0
1113 2 -0.2076888594468057 6.5925110785296335 14.372138545922505 11.6009624163332 0 0 0
834 2 -0.2075544175563426 3.822164831759584 9.604171460685878 8.407680923825735 0 0 0
1110 2 -0.20770761593779247 3.8356131911801548 12.791588883620985 8.408087313989439 0 0 0
554 1 0.4149656358485855 2.9111887509148464 8.01075583438398 10.004546255630107 0 0 0
830 1 0.41502360465071103 2.914991082844161 11.202491537883764 10.00248505005089 0 0 0
832 2 -0.2078933210073335 3.8349161747274603 9.60683350841453 11.590400901498404 0 0 0
1106 1 0.41511430105555847 2.9211863157652886 14.393646616506157 9.993351272489146 0 0 0
1108 2 -0.20771770667794992 3.831208874421454 12.80129547498145 11.590516896674327 0 0 0
1386 2 -0.2077347313976079 3.850694878712522 15.985999966878762 8.408235401132677 0 0 0
1398 2 -0.2076136632547223 14.877577660919123 15.98382086321249 8.403296783446335 0 0 0
569 2 -0.20762249944633399 12.136409057233356 8.004376620614334 8.409755633229823 0 0 0
845 2 -0.20779454530276906 12.124434668473182 11.19466860392353 8.393618247605437 0 0 0
1121 2 -0.2075847293446728 12.11119225178865 14.38877706632459 8.403656931987287 0 0 0
1120 2 -0.20737536775151943 14.88133497513944 12.796261778657929 11.57984034004003 0 0 0
1118 1 0.4152717374051558 13.957189844600629 14.383906115892664 9.985890083908476 0 0 0
844 2 -0.20736461742331275 14.887924805465998 9.626396178576812 11.592249186463809 0 0 0
842 1 0.4152536167368268 13.962532237698658 11.204166652258193 9.988205275313824 0 0 0
567 2 -0.20732643448615456 12.132340722884951 8.030337373732499 11.593787904700859 0 0 0
841 1 0.4151345695886817 11.200558015217418 9.602730311746994 9.985382139125264 0 0 0
843 2 -0.20726168556198427 12.121749057745806 11.194551316905843 11.577062432498066 0 0 0
1117 1 0.41519236934402576 11.195625243523978 12.783003371808526 9.98368038729878 0 0 0
1119 2 -0.2076338364649514 12.125456024366523 14.35950117853591 11.585982328175405 0 0 0
840 2 -0.20766577992870505 9.356210307038843 9.598412647600504 8.397503771565201 0 0 0
1116 2 -0.20758710757046533 9.345054145769874 12.787207939711632 8.405764178657464 0 0 0
846 2 -0.2076672224125201 14.90082897877924 9.611833828172776 8.409077866515979 0 0 0
1122 2 -0.20777869704788077 14.885250964245778 12.796053906735121 8.397371526361011 0 0 0
566 1 0.41518375576073263 13.974105509005966 8.02604808833805 10.003978083857238 0 0 0
836 1 0.4150627911115821 8.432042987255329 11.186121693957535 9.992863458271247 0 0 0
838 2 -0.20739253102537653 9.363477858014345 9.595326762591837 11.581613248118943 0 0 0
1112 1 0.41514804662957316 8.43649173608769 14.370556245362733 10.015816564949896 0 0 0
1114 2 -0.20756293045492058 9.36637368451987 12.766744930328068 11.588918465239724 0 0 0
1384 2 -0.20754764080845706 3.8350503203181026 15.984397219054653 11.590772282625936 0 0 0
1392 2 -0.20761958223768628 9.355778757016598 15.967828280061262 8.430200609606187 0 0 0
1385 2 -0.20774661911507158 1.0920784422938241 17.59686487562111 8.398976256382028 0 0 0
1661 2 -0.20762098039718868 1.1032865393904898 20.77497920943619 8.410488355416646 0 0 0
1391 2 -0.2074874385968487 6.614415040192589 17.565739324848547 8.428806840398737 0 0 0
1667 2 -0.2072040282765074 6.6153223646852215 20.748491662952986 8.429545864457742 0 0 0
1943 2 -0.20737077431762285 6.613814932040612 23.93113923545706 8.424894006824097 0 0 0
1383 2 -0.20753726454502172 1.0827193063649074 17.589341269902153 11.581124938169511 0 0 0
2485 1 0.4151566447294217 0.18556665061282487 28.7313178838355 10.001066576716129 0 0 0
1659 2 -0.20753189762620322 1.0794287707733858 20.772305267651138 11.593035482782316 0 0 0
2767 1 0.4149499939883723 5.698316271099183 31.913991251302768 9.987315727687779 0 0 0
1389 2 -0.2076608408502467 6.597518730489565 17.557194092536246 11.61173170848475 0 0 0
1663 1 0.4152407708915224 5.68952297323552 19.15657985986488 10.018611113138645 0 0 0
1665 2 -0.2077894961784242 6.610178665151321 20.744791166089758 11.613018453711824 0 0 0
1939 1 0.41525335760247634 5.695179018841827 22.34130512811587 10.021088753870952 0 0 0
1941 2 -0.20759199491765837 6.619133675470711 23.934624612526303 11.608718115612447 0 0 0
1662 2 -0.2074845692442424 3.85770232583542 19.178265740385957 8.418831249137611 0 0 0
1938 2 -0.2073729974028861 3.859322579212137 22.35042141464209 8.4259199010452 0 0 0
1382 1 0.41521306512824935 2.926479456839664 17.5797236955722 9.995709457752826 0 0 0
1658 1 0.41526873656800734 2.930672318342639 20.761853148911175 10.016340020061174 0 0 0
1660 2 -0.20759041395622205 3.8434141305449723 19.160250296012926 11.601801800423567 0 0 0
1934 1 0.41521985107585335 2.9367880087140112 23.944058678920356 10.014878407971256 0 0 0
1936 2 -0.20757395485348068 3.852751171967073 22.350864210109123 11.609521547462796 0 0 0
1397 2 -0.20762333929258311 12.11265476186749 17.563540340530874 8.425686904812498 0 0 0
1673 2 -0.20756415175761622 12.11710296712765 20.740781432130035 8.428845863117727 0 0 0
2778 2 -0.20765506263301386 14.885495441998167 31.89365548626114 8.414529020817207 0 0 0
1395 2 -0.20773983088275097 12.129962976201215 17.551744402367856 11.607445287637145 0 0 0
1669 1 0.415212364032011 11.20546822595748 19.152167427090493 10.028594977993187 0 0 0
1671 2 -0.20782932209407257 12.133939008703791 20.747888644551868 11.61063678406661 0 0 0
1945 1 0.41516537792828156 11.20974825486947 22.33930103777209 10.02075716642618 0 0 0
1947 2 -0.2078275997505795 12.13243197322499 23.931803424916453 11.61190808770618 0 0 0
1948 2 -0.20777130776077762 14.896944108114958 22.339892352956998 11.595128465295213 0 0 0
1668 2 -0.2073891803736752 9.367037626717615 19.144592655166576 8.437147481305342 0 0 0
1944 2 -0.207195406542584 9.371997133601344 22.33057256811683 8.427498121074331 0 0 0
1946 1 0.4151664736642101 13.967159625919551 23.937104455084945 10.016247371958016 0 0 0
1674 2 -0.20775753384397894 14.875194942032321 19.160432522835617 8.412741523897735 0 0 0
1950 2 -0.20762204580259197 14.870708592443362 22.346071955670663 8.413523173924478 0 0 0
1672 2 -0.20765764510069157 14.885187222399543 19.154815282323447 11.594135753999971 0 0 0
1388 1 0.41519986362929984 8.4448085797903 17.556611040596277 10.031575514965757 0 0 0
1670 1 0.41523687099446 13.963789494318755 20.751191956702915 10.00930623901353 0 0 0
1664 1 0.41522730694701804 8.451377977281494 20.743223679919076 10.023928038508672 0 0 0
1666 2 -0.20784956948271127 9.367025608861228 19.150718813040328 11.619631948257933 0 0 0
1942 2 -0.20798953475170856 9.370293809784146 22.340842823915718 11.610351638512766 0 0 0
1394 1 0.41526463337604946 13.959533392214553 17.566360334133176 10.004554056953207 0 0 0
1937 2 -0.20742679311940027 1.1075841066378604 23.953171299700287 8.410200433246063 0 0 0
2213 2 -0.2075264894519594 1.1098094564696008 27.140227762226278 8.41049761137161 0 0 0
2489 2 -0.20752383924984957 1.1069179769244613 30.326660123583007 8.411127400178588 0 0 0
2219 2 -0.20745056224545377 6.614821068651261 27.119311358985467 8.419636204192365 0 0 0
2495 2 -0.20737079881403592 6.619066135486816 30.305549837506582 8.40905319490992 0 0 0
1935 2 -0.20764782384086755 1.0871066854793872 23.95350161562822 11.593338214802849 0 0 0
1933 1 0.4152418984392438 0.17077647333320434 22.36507769391727 9.995801336332118 0 0 0
2211 2 -0.20747254406868915 1.0962644347639703 27.133377458221737 11.594274883966897 0 0 0
2487 2 -0.20738931354739265 1.1016047336890997 30.323699361843573 11.595481098190863 0 0 0
2215 1 0.41515166029528505 5.69939219894307 25.528400730919735 10.01688410625827 0 0 0
2217 2 -0.20756581745070235 6.61863459218476 27.126629619716265 11.603782756982339 0 0 0
2491 1 0.4150319481912558 5.700336764989006 28.71956116421474 10.010120016404858 0 0 0
2493 2 -0.20764925563680708 6.609807241786227 30.327929848749147 11.593601516480385 0 0 0
2214 2 -0.20739304759532787 3.861782869780364 25.533146150317222 8.42255183997428 0 0 0
2490 2 -0.20747212530345424 3.8615387543039486 28.721527460802495 8.41729775709349 0 0 0
2210 1 0.41513662801531587 2.9425759503941546 27.129721603969568 10.011401457767336 0 0 0
2212 2 -0.20754343840291584 3.8581493492810295 25.53585170650262 11.606597744639828 0 0 0
2486 1 0.4150850948587012 2.9440982772711415 30.320375542164086 10.006317938649962 0 0 0
2488 2 -0.20745801341145537 3.859264844315187 28.726313280263096 11.601775668228289 0 0 0
2761 1 0.4151388586576089 0.18437204390740677 31.918647004692904 10.001907191768096 0 0 0
1949 2 -0.20756286913148866 12.12414089548354 23.933477389873854 8.429694554015994 0 0 0
2225 2 -0.20758774276819486 12.135957957292721 27.117398698460004 8.432452810749687 0 0 0
2501 2 -0.20740938840199763 12.135282743207824 30.307783234208408 8.419906098811653 0 0 0
2500 2 -0.20778597144154065 14.887094818514026 28.72311787156831 11.618735551521807 0 0 0
2498 1 0.4149951400889799 13.968023870781016 30.311928493965336 10.020859388672775 0 0 0
2224 2 -0.20775337277063016 14.892672930237852 25.523436283938672 11.611987377776902 0 0 0
2221 1 0.41507250094207265 11.2120767994549 25.528126282629625 10.024959924941161 0 0 0
2223 2 -0.2077594312092059 12.123684545466437 27.127835272976768 11.615306529097923 0 0 0
2497 1 0.4149773615172112 11.211909950193235 28.718051904368483 10.014052205624061 0 0 0
2499 2 -0.2078055851658554 12.12086571166903 30.320332904462347 11.603670206122567 0 0 0
2222 1 0.41505883295048035 13.96930284383051 27.12383157685374 10.031811741174895 0 0 0
2220 2 -0.2074833158494831 9.380245931634734 25.523840142293288 8.423450576291366 0 0 0
2496 2 -0.20739486679555402 9.37626080458268 28.717187584864323 8.4174945671565 0 0 0
2226 2 -0.20761149652303845 14.88175749368498 25.535240167959103 8.429728079144105 0 0 0
2502 2 -0.20752451871755417 14.88877457268954 28.711964252602968 8.43574681653115 0 0 0
1940 1 0.415165150649103 8.45545111685176 23.93160523437631 10.012415882433606 0 0 0
2216 1 0.41503914732694613 8.456409455832475 27.122314920455704 10.008062322171952 0 0 0
2218 2 -0.20772086870886552 9.365432549272827 25.5284653895589 11.606655433226448 0 0 0
2492 1 0.4149322700931542 8.454847081468635 30.31519656828783 10.006481414736768 0 0 0
2494 2 -0.20778029238986495 9.367554376201605 28.720115156704143 11.601395050780036 0 0 0
2773 1 0.4149253737769551 11.20939777537837 31.909852589619675 10.000274626491294 0 0 0
2209 1 0.41518774545695714 0.17900026001507371 25.54666317020666 9.994596148172983 0 0 0
2772 2 -0.20749473144678493 9.36998354538838 31.905506638357554 8.407342270847117 0 0 0
2766 2 -0.2074931205641619 3.8575827808407985 31.9030334426196 8.396186882770637 0 0 0
2770 2 -0.20757244824070314 9.367742933646468 31.920501726820735 11.592021876393995 0 0 0
2776 2 -0.20751553917362214 14.880617929158069 31.922594694515066 11.598140421344478 0 0 0
2765 2 -0.20738262221658083 1.0865857610032228 33.51190470600672 8.396707935109525 0 0 0
3041 2 -0.20756273308501771 1.0714961468539348 36.70017051955371 8.384090086479778 0 0 0
3317 2 -0.20771438663698458 1.070614811002686 39.899829019092905 8.389667621137427 0 0 0
2771 2 -0.20762834884365514 6.619656781954445 33.49994645477191 8.387081558275627 0 0 0
3047 2 -0.20766357266831142 6.610605631212126 36.704286250341546 8.366352577221413 0 0 0
3320 1 0.41486229194435414 8.439714202529288 39.898303866861276 9.982274576861942 0 0 0
2763 2 -0.20743509206661742 1.1115131465932442 33.51827512362041 11.581474406443187 0 0 0
3039 2 -0.20724069337017278 1.107012458646887 36.709469527272 11.569010024306078 0 0 0
3315 2 -0.20719395755417985 1.088388913297433 39.893918191516185 11.574513744913352 0 0 0
3874 2 -0.20779790376454715 9.353802236670477 44.67589977254232 11.622037283838132 0 0 0
2769 2 -0.2072811795667326 6.60184991952606 33.5256311094269 11.572328186745361 0 0 0
3043 1 0.41490787215414143 5.692182204533656 35.10891214946521 9.960307187402734 0 0 0
3045 2 -0.2071455346739075 6.597035720879942 36.71308566932902 11.552279167498073 0 0 0
3319 1 0.4148753717917301 5.682784270053042 38.30345911859062 9.94943873236915 0 0 0
3321 2 -0.20732564335695525 6.590361959993712 39.88528473234313 11.564890338120275 0 0 0
3042 2 -0.20771097230969957 3.849818770273263 35.10363905636842 8.368964258629097 0 0 0
3318 2 -0.20776422501927 3.834290991359762 38.31273170033408 8.364889639693775 0 0 0
2762 1 0.4150439898532256 2.9392455935074744 33.51295535417372 9.9724664798952 0 0 0
3037 1 0.41511975910221743 0.176572415576597 35.107138561636546 9.99310695037855 0 0 0
3038 1 0.4149873346271453 2.929920932176661 36.70570844915111 9.954046844253067 0 0 0
3040 2 -0.20709920358411837 3.852718409544746 35.11986322414398 11.55447884984905 0 0 0
3314 1 0.41494344429839547 2.920598305527734 39.89957943886939 9.971275037444762 0 0 0
3316 2 -0.20707516199708687 3.8478766900597474 38.29825066213127 11.550422525383288 0 0 0
2777 2 -0.20753655350095981 12.120234779023846 33.50174608228367 8.399465869798133 0 0 0
3053 2 -0.2076636576174069 12.109501439484049 36.70061237873584 8.386447259785472 0 0 0
3329 2 -0.2076132620139538 12.116978599798118 39.90850594958793 8.405543473653138 0 0 0
2775 2 -0.20750331419182141 12.125748691486201 33.51396153844479 11.58412780909991 0 0 0
3049 1 0.41491652850923105 11.204795087432736 35.10423080780097 9.986936956951912 0 0 0
3051 2 -0.20719477604797426 12.130021058153028 36.7029753565541 11.571926558845572 0 0 0
3325 1 0.4149060844354718 11.201558679025348 38.29815433908966 9.983825436776709 0 0 0
3327 2 -0.2070641100460826 12.124001482279535 39.87883854416151 11.591795595011346 0 0 0
3328 2 -0.2071370465659706 14.88446447173746 38.27886310582456 11.568948928010748 0 0 0
3872 1 0.4148449972091222 8.435727128981188 46.27654024848125 10.033008753352274 0 0 0
3048 2 -0.20765419100310983 9.36607989727435 35.09910134574104 8.39019408388107 0 0 0
3324 2 -0.20750067340726377 9.362842191731618 38.309097700437015 8.385307711457013 0 0 0
3326 1 0.414949741819684 13.960908243802422 39.887539683887006 9.994607099319463 0 0 0
3054 2 -0.2077296067247199 14.873169862386574 35.09069965915886 8.38214417567721 0 0 0
3330 2 -0.20782414425977683 14.871498168222711 38.30287007238524 8.384151299533785 0 0 0
2768 1 0.4148849392021762 8.451502151096754 33.50996462380218 9.991859742779976 0 0 0
3596 1 0.41482391257128043 8.438077443003372 43.08790472521963 10.018436925355337 0 0 0
3044 1 0.4148776870158007 8.445152478914398 36.705364900241456 9.969842646796776 0 0 0
3046 2 -0.20723019427304887 9.361718689307516 35.11925299377467 11.575744503621936 0 0 0
3322 2 -0.207234310971472 9.35791989629387 38.29751948548408 11.571642484518936 0 0 0
2774 1 0.4149946681836333 13.963352858195568 33.50296718452882 9.988243455617004 0 0 0
3052 2 -0.20734061356585434 14.883378690476613 35.10849115910543 11.566359546886053 0 0 0
3050 1 0.41496148630279905 13.960158896956257 36.69556041605077 9.967280794407587 0 0 0
3593 2 -0.2076429681928355 1.0762729751691569 43.09142396375083 8.404818427101757 0 0 0
3869 2 -0.20772060649377388 1.0784565461744153 46.28175919379845 8.41569057160709 0 0 0
3323 2 -0.20746542645515315 6.605289596969548 39.9176169175307 8.37893162951363 0 0 0
3599 2 -0.2071875335806569 6.605964633848396 43.10556595207859 8.41414992212778 0 0 0
3875 2 -0.20717583060825134 6.603473723599638 46.27966522126315 8.429431619435558 0 0 0
3598 2 -0.20747166818340007 9.35144010659715 41.476678602534214 11.599333973451374 0 0 0
3591 2 -0.20741136760697787 1.0710378581157403 43.086423951503136 11.589136339377648 0 0 0
3867 2 -0.20747760141952987 1.063770409519488 46.274766522418915 11.599170676443553 0 0 0
3595 1 0.414852578825443 5.676587139484472 41.49570868825533 9.985357250887166 0 0 0
3597 2 -0.20766378930893736 6.5864237039827875 43.07641336052249 11.599966170151921 0 0 0
3871 1 0.41485449294597765 5.674490095699609 44.68476003527828 10.017068289493714 0 0 0
3873 2 -0.20777975207001603 6.584438349411545 46.28038384785783 11.614750324933196 0 0 0
3594 2 -0.20774482599007912 3.8352293744394648 41.510275066721164 8.392907633404803 0 0 0
3870 2 -0.2075971890914733 3.838704892680079 44.69463932514895 8.419115999921292 0 0 0
3590 1 0.414932578144215 2.9147957628519974 43.091761834968 10.000208824181772 0 0 0
3592 2 -0.20717499573428905 3.8341996664053406 41.48530422546326 11.578207652564492 0 0 0
3866 1 0.41497269271778275 2.9117317240113176 46.28047949192824 10.01623445617472 0 0 0
3868 2 -0.2074422680809121 3.827254276177629 44.68056262646211 11.603852003658137 0 0 0
3605 2 -0.2070509706737262 12.119608429015964 43.09281867940676 8.43075018129408 0 0 0
3881 2 -0.20692143042881572 12.118209862630959 46.26727754669792 8.428818991871688 0 0 0
3880 2 -0.20764841440077764 14.882440059225047 44.67759763618874 11.610657015588828 0 0 0
3878 1 0.4149327484599084 13.961639281258075 46.27366658841672 10.018742566923398 0 0 0
3604 2 -0.2073002671136845 14.879445031659694 41.47069019574773 11.600125330228323 0 0 0
3602 1 0.41493561190964 13.962127696573319 43.0800746443102 10.020789696573793 0 0 0
3601 1 0.4148842903349482 11.201179896347105 41.489425194750574 10.016971454711001 0 0 0
3603 2 -0.20753316429810587 12.122710390865794 43.076726926459024 11.617624265930132 0 0 0
3877 1 0.41485832123373334 11.200482516311668 44.68000361761315 10.033440873675072 0 0 0
3879 2 -0.20762601927834984 12.12190438433222 46.284344081159794 11.615866092912302 0 0 0
3600 2 -0.20720408694439385 9.368000966471731 41.51033450010745 8.412864247244709 0 0 0
3876 2 -0.20694074444691885 9.363440898673433 44.69013185475615 8.435583568189818 0 0 0
3606 2 -0.2074744864721361 14.879195973613193 41.49498307791372 8.4144090819171 0 0 0
3882 2 -0.2069405861612623 14.876707697366266 44.67591215525634 8.423999084449031 0 0 0
2764 2 -0.20738084201349216 3.8582061362038793 31.932168242603886 11.58101355148208 0 0 0
4145 2 -0.20758805916128692 1.06574202860262 49.4615384092518 8.408867514253032 0 0 0
4421 2 -0.2076608693984895 1.064504799592035 52.64993070838215 8.398492283255852 0 0 0
4151 2 -0.20728069745848055 6.587345767081834 49.45840829973546 8.411765559608625 0 0 0
4427 2 -0.2076143621632546 6.584888445643921 52.64880915604233 8.401706848670194 0 0 0
4703 2 -0.2076608065985896 6.5944310061138385 55.838026588903055 8.410018534641607 0 0 0
4152 2 -0.207164083115625 9.354022953761511 47.85879825146063 8.42359995557835 0 0 0
4143 2 -0.2076569841974728 1.0678278892197615 49.4704303213391 11.591827778293359 0 0 0
4419 2 -0.20763031779117974 1.0691869004393235 52.65796679536249 11.580849264890196 0 0 0
4147 1 0.41493450208136967 5.670438083886591 47.87215628640997 10.015089703487895 0 0 0
4149 2 -0.20768867567510374 6.591253124532989 49.47533482508901 11.59654834143398 0 0 0
4423 1 0.41505346830561934 5.665168203067976 51.057645612453754 9.995447145156614 0 0 0
4425 2 -0.20739226261274646 6.5905298367324106 52.64968960848245 11.585892069302055 0 0 0
4699 1 0.415126911760356 5.668992486117513 54.24253734018649 9.994783892198392 0 0 0
4146 2 -0.20740739753002496 3.834181204025572 47.868570689782906 8.41795708391596 0 0 0
4422 2 -0.20746183344704916 3.8254565746213114 51.05660918069059 8.401524023964727 0 0 0
4698 2 -0.20772508394503647 3.829788012087206 54.250362713095605 8.401215623730735 0 0 0
4142 1 0.41506317838025936 2.906870500410159 49.467274444303776 9.998246918324433 0 0 0
4144 2 -0.20771140006054234 3.8246875630815453 47.88347501582306 11.601996923231146 0 0 0
4418 1 0.41515263585891665 2.906594523522082 52.654820881947025 9.986872537719071 0 0 0
4420 2 -0.20767683670342918 3.8234484523811387 51.06686724915486 11.58502106443266 0 0 0
4696 2 -0.20748767020195658 3.8280751367393093 54.24149453108841 11.584113768406755 0 0 0
4157 2 -0.20730391512560037 12.114628091201789 49.44990292648659 8.402384626454225 0 0 0
4433 2 -0.20745504002718296 12.114079703569672 52.65065856741911 8.391293551171985 0 0 0
4709 2 -0.20748158984139195 12.11458971671075 55.8372604330926 8.403978324775192 0 0 0
4158 2 -0.20725743331834642 14.87774073634301 47.85680987170545 8.408995630523835 0 0 0
4155 2 -0.20730817348429487 12.12426428295085 49.47765781775791 11.588876347961513 0 0 0
4429 1 0.41495699709300843 11.194820511626657 51.05553517142317 9.982954450577276 0 0 0
4431 2 -0.20733816357273727 12.123547542184664 52.645357244275125 11.576850753321553 0 0 0
4705 1 0.4150158956083463 11.194210236001947 54.23899878015854 9.990218769416485 0 0 0
4428 2 -0.20740299438639861 9.345366284163097 51.05094850162122 8.399188790831673 0 0 0
4704 2 -0.20758485111976455 9.349391253506655 54.242054886092816 8.40250856042755 0 0 0
4708 2 -0.20724373023746176 14.89100688102011 54.23857434150744 11.574121006543997 0 0 0
4434 2 -0.20770621465108655 14.878133884359476 51.05387582920755 8.389382865118423 0 0 0
4710 2 -0.20768533037715603 14.873930156377122 54.25071100458156 8.389234970637935 0 0 0
4148 1 0.4149456350505678 8.430778656263305 49.46317936736185 10.002139362371011 0 0 0
5252 1 0.41509748075224967 8.448067420648579 62.20841836955596 9.998998879016144 0 0 0
4424 1 0.41504093233992895 8.428659303747262 52.646823993469056 9.991496270601589 0 0 0
4426 2 -0.20741121673695218 9.361278751746974 51.06103055323131 11.5846156216998 0 0 0
4702 2 -0.20737225360967337 9.35758260613104 54.23297700085416 11.587017051957933 0 0 0
4154 1 0.4149255346851909 13.961022869123477 49.46457972360798 9.99063435616042 0 0 0
4156 2 -0.20729789400212928 14.884791572964675 47.88250782191756 11.59576150304628 0 0 0
4430 1 0.4149464977283698 13.959850414365823 52.6510518626999 9.979911368750985 0 0 0
4432 2 -0.20702037495898862 14.88896730067303 51.06407268790727 11.575497593749388 0 0 0
4706 1 0.41501887490263734 13.957491214268703 55.83504506418736 9.99380833593386 0 0 0
4697 2 -0.20784178179234503 1.0792958581104224 55.849107033527154 8.404653649235593 0 0 0
4973 2 -0.20775517664298504 1.0942587059144084 59.03784857535822 8.420840248580765 0 0 0
5249 2 -0.20738565540374138 1.0940862196529162 62.22260874049684 8.429657811918169 0 0 0
4979 2 -0.20752386945121953 6.602522546408305 59.02116307129321 8.415123988704595 0 0 0
5255 2 -0.20735344567194974 6.605815956409212 62.211053899351676 8.410781275219053 0 0 0
4695 2 -0.2075860014016938 1.0777925529842738 55.83557749088739 11.586353123142203 0 0 0
5254 2 -0.20778229957445643 9.364535672594075 60.61481348251244 11.59293363524694 0 0 0
4971 2 -0.20772953617039658 1.0898287424108068 59.024881187546704 11.602383627020714 0 0 0
5247 2 -0.20793076519556036 1.0948707749884952 62.21486522611094 11.61184862925595 0 0 0
4701 2 -0.20749427196401432 6.593557612968189 55.82656282810051 11.593334098998943 0 0 0
4975 1 0.41513602736178634 5.68120802827071 57.42917384664142 10.007394873272755 0 0 0
4977 2 -0.20774494270430272 6.602750580883512 59.02107920264991 11.597929027981401 0 0 0
5251 1 0.4151474872152881 5.6900467471217775 60.61844524975127 10.005752743340224 0 0 0
5253 2 -0.20786993931375122 6.611818043108793 62.213098890693004 11.593744820171382 0 0 0
4974 2 -0.20774916933679233 3.8428489635433256 57.4410259642789 8.415208672960539 0 0 0
5250 2 -0.20753956437611149 3.8453762921889747 60.625835537678206 8.422354454179382 0 0 0
4694 1 0.41517320650619094 2.9176835060052553 55.84259748572758 9.996843322673843 0 0 0
4970 1 0.4151729538796674 2.930815413786277 59.030064660011796 10.014483526168044 0 0 0
4972 2 -0.20758143004922797 3.840990348782289 57.42424530214134 11.597508282583794 0 0 0
5246 1 0.4151992439217214 2.933544483660862 62.21677440725661 10.020145720962333 0 0 0
5248 2 -0.20773657076387553 3.856701699670067 60.61933271809785 11.604879830984052 0 0 0
4153 1 0.4148993320976626 11.197613789014591 47.86957287818304 10.013915387952895 0 0 0
4985 2 -0.2075230286570301 12.112306040015032 59.01523451762421 8.406796178804322 0 0 0
5261 2 -0.2076868703082646 12.115162215811969 62.202881061317605 8.401780849182204 0 0 0
5260 2 -0.2074606835858312 14.887093355878093 60.61527187676886 11.574172885005163 0 0 0
5258 1 0.4151437186886046 13.96352132028677 62.2047476273822 9.98199301121726 0 0 0
4984 2 -0.20740438334871023 14.888011213167992 57.428677296152394 11.578931800557225 0 0 0
4707 2 -0.20755436891142137 12.119295004374223 55.8253650531903 11.588220147635468 0 0 0
4981 1 0.41504827815661605 11.196518026663224 57.42415987840584 10.003725889869509 0 0 0
4983 2 -0.20770065189643452 12.123226591323416 59.01826845305105 11.589981590817905 0 0 0
5257 1 0.4150843373223118 11.201680548971481 60.61177309479666 9.999247363772243 0 0 0
5259 2 -0.20763843030690143 12.133029084454565 62.203880650941095 11.584332407395737 0 0 0
4982 1 0.41510613915229305 13.957813243245512 59.01970723330153 9.991661065672442 0 0 0
4980 2 -0.20750234047476007 9.355920438521723 57.42439468871199 8.412678206346666 0 0 0
5256 2 -0.20751321658379074 9.359634180323784 60.609070663318924 8.410093109146345 0 0 0
4986 2 -0.20763624228871874 14.8703559910232 57.4272788347528 8.394971419300989 0 0 0
5262 2 -0.20768699109837224 14.874552093375135 60.60684689035103 8.391059052279019 0 0 0
4700 1 0.41507751203539817 8.43405933717869 55.83091285353328 10.002603044582779 0 0 0
4976 1 0.41508505641931887 8.442089176567114 59.018930740644734 10.006268125262766 0 0 0
4978 2 -0.20768278472738935 9.356937916113255 57.42088427037784 11.596104188653268 0 0 0