LAMMPS (29 Sep 2021)
Processor partition = 5
Reading data file ...
  orthogonal box = (0.0000000 0.0000000 0.0000000) to (252.43931 94.898589 20.000000)
  8 by 2 by 1 MPI processor grid
  reading atoms ...
  8280 atoms
  read_data CPU = 0.049 seconds

CITE-CITE-CITE-CITE-CITE-CITE-CITE-CITE-CITE-CITE-CITE-CITE-CITE

Your simulation uses code contributions which should be cited:
- pair reaxff command:
- fix qeq/reaxff command:
The log file lists these citations in BibTeX format.

CITE-CITE-CITE-CITE-CITE-CITE-CITE-CITE-CITE-CITE-CITE-CITE-CITE

WARNING: Using 'neigh_modify every 1 delay 0 check yes' setting during minimization (../min.cpp:188)
Neighbor list info ...
  update every 1 steps, delay 0 steps, check yes
  max neighbors/atom: 2000, page size: 100000
  master list distance cutoff = 12
  ghost atom cutoff = 12
  binsize = 6, bins = 43 16 1
  2 neighbor lists, perpetual/occasional/extra = 2 0 0
  (1) pair reaxff, perpetual
      attributes: half, newton off, ghost
      pair build: half/bin/newtoff/ghost
      stencil: full/ghost/bin/3d
      bin: standard
  (2) fix qeq/reaxff, perpetual, copy from (1)
      attributes: half, newton off, ghost
      pair build: copy
      stencil: none
      bin: none
Setting up cg style minimization ...
  Unit style    : real
  Current step  : 0
WARNING: Energy due to 3 extra global DOFs will be included in minimizer energies
Per MPI rank memory allocation (min/avg/max) = 28.72 | 28.74 | 28.76 Mbytes
Step PotEng Lx Ly Lz Pxx Pyy Pzz Press 
       0   -927592.51    252.43931    94.898589    3.2398722    263.22187   -182.53557   -487.14416   -135.48595 
      10   -927600.17    252.44442     94.89767    3.2400857    8.7612198   -11.978463   -503.34046   -168.85257 
      20    -927601.1     252.4492      94.8971    3.2402204    -160.8388    60.138171   -433.81493   -178.17185 
      30   -927601.73    252.44938    94.897347    3.2403317   -88.796802     35.30265   -432.96278   -162.15231 
      40   -927602.29    252.45055    94.897434    3.2404364   -79.223635    30.880386   -414.81633   -154.38653 
      50   -927602.79    252.45177    94.897505    3.2405366   -76.583265     29.73946   -396.19145   -147.67842 
      60   -927603.26    252.45286     94.89759    3.2406325    -70.71146    27.852646   -379.72335   -140.86072 
      70   -927603.68    252.45383    94.897687    3.2407241    -62.41421    25.170887   -364.91945   -134.05426 
      80   -927604.07    252.45473    94.897791    3.2408115   -53.651302    21.996236   -351.00812    -127.5544 
      90   -927604.42    252.45563    94.897889     3.240895   -48.312269    19.926726   -336.74591   -121.71048 
     100   -927604.75    252.45651     94.89798    3.2409751   -45.123087    18.968475   -322.71157   -116.28873 
     110   -927605.04    252.45736    94.898073    3.2410516   -42.913443    17.688516    -308.7808   -111.33524 
     120   -927605.32    252.45816    94.898165    3.2411254   -39.634659      16.8417   -296.02589   -106.27295 
     130   -927605.57    252.45892    94.898258    3.2411958   -37.621543    15.586114   -283.08901   -101.70815 
     140    -927605.8    252.45964    94.898349     3.241264   -34.772478    14.715937   -271.04566   -97.034069 
     150   -927606.01    252.46034    94.898439    3.2413291    -32.83574      13.8502   -259.12739    -92.70431 
Loop time of 9.77333 on 16 procs for 150 steps with 8280 atoms

99.6% CPU use with 16 MPI tasks x no OpenMP threads

Minimization stats:
  Stopping criterion = energy tolerance
  Energy initial, next-to-last, final = 
      -927592.51395462  -927606.011729357  -927606.011675674
  Force two-norm initial, final = 400.71979 49.008029
  Force max component initial, final = 297.94937 37.167780
  Final line search alpha, max atom move = 0.00057860582 0.021505494
  Iterations, force evaluations = 150 300

MPI task timing breakdown:
Section |  min time  |  avg time  |  max time  |%varavg| %total
---------------------------------------------------------------
Pair    | 6.0528     | 7.309      | 8.1907     |  29.0 | 74.79
Neigh   | 0.45319    | 0.49846    | 0.53062    |   4.7 |  5.10
Comm    | 0.029791   | 0.85262    | 2.2127     |  84.1 |  8.72
Output  | 0.00065982 | 0.00069037 | 0.00082267 |   0.0 |  0.01
Modify  | 0.93807    | 0.96982    | 1.0146     |   3.4 |  9.92
Other   |            | 0.1428     |            |       |  1.46

Nlocal:        517.500 ave         525 max         510 min
Histogram: 8 0 0 0 0 0 0 0 0 8
Nghost:        855.000 ave         863 max         847 min
Histogram: 8 0 0 0 0 0 0 0 0 8
Neighs:        48525.0 ave       49147 max       47903 min
Histogram: 8 0 0 0 0 0 0 0 0 8

Total # of neighbors = 776400
Ave neighs/atom = 93.768116
Neighbor list builds = 253
Dangerous builds = 235
WARNING: Using 'neigh_modify every 1 delay 0 check yes' setting during minimization (../min.cpp:188)
Setting up quickmin style minimization ...
  Unit style    : real
  Current step  : 0
Per MPI rank memory allocation (min/avg/max) = 28.62 | 28.65 | 28.69 Mbytes
Step PotEng Lx Ly Lz Pxx Pyy Pzz Press 
       0   -880499.27    252.46034    94.898439    3.2202447     426977.8    53174.187    155480.64    211877.54 
      10   -883392.62    252.46034    94.898439    3.2202447    395796.15    42802.114    173487.66    204028.64 
      20   -890188.17    252.46034    94.898439    3.2202447     322308.9    37438.383    197092.52    185613.27 
      30   -895706.37    252.46034    94.898439    3.2202447    281242.93    81908.109    157670.38    173607.14 
      40   -899495.57    252.46034    94.898439    3.2202447    298834.47    151667.81    81823.888    177442.06 
      50   -903957.92    252.46034    94.898439    3.2202447    366464.27    261510.02   -8029.8209    206648.16 
      60   -910194.49    252.46034    94.898439    3.2202447    446228.81       386909    -77552.78    251861.68 
      70   -915859.63    252.46034    94.898439    3.2202447     447036.1    381656.01   -92155.816     245512.1 
      80   -919848.31    252.46034    94.898439    3.2202447    449285.31     358519.3   -87003.738    240266.96 
      90   -922511.83    252.46034    94.898439    3.2202447       476605    351739.04   -93592.711    244917.11 
     100    -924627.9    252.46034    94.898439    3.2202447    523404.18    371739.66   -102043.35    264366.83 
     110   -925454.36    252.46034    94.898439    3.2202447    516932.44     347720.5   -124295.23     246785.9 
     120   -926029.02    252.46034    94.898439    3.2202447    530248.64    353577.95   -125709.51     252705.7 
     130   -926528.34    252.46034    94.898439    3.2202447    541480.48    357979.37   -125785.69    257891.39 
     140   -926912.63    252.46034    94.898439    3.2202447    550085.49     360838.7   -124343.61    262193.53 
     150   -927147.58    252.46034    94.898439    3.2202447    553862.15    358474.16   -123546.08    262930.08 
     160   -927257.36    252.46034    94.898439    3.2202447    555205.37    357618.35   -122108.59    263571.71 
     170   -927349.69    252.46034    94.898439    3.2202447    554585.69    356077.38   -120227.49    263478.53 
     180   -927406.65    252.46034    94.898439    3.2202447    551881.73    353522.52   -118733.82    262223.48 
     190   -927453.64    252.46034    94.898439    3.2202447    548269.49    351278.38   -116935.97    260870.63 
     200   -927501.21    252.46034    94.898439    3.2202447    543915.66    349023.96   -114793.97    259381.88 
     210   -927551.26    252.46034    94.898439    3.2202447    538692.34    346631.88   -112304.31     257673.3 
     220   -927605.63    252.46034    94.898439    3.2202447    532584.46     344067.5   -109380.18    255757.26 
     230   -927666.48    252.46034    94.898439    3.2202447    525871.78    341533.64   -105992.01    253804.47 
     240    -927737.9    252.46034    94.898439    3.2202447    518320.63    338703.09   -102498.29    251508.48 
     250   -927821.64    252.46034    94.898439    3.2202447    511651.26    336740.05   -98424.476    249988.94 
     260   -927925.86    252.46034    94.898439    3.2202447    506190.43    336629.75   -94466.388    249451.26 
     270   -928049.92    252.46034    94.898439    3.2202447    499762.46    334994.83   -91364.128    247797.72 
     280   -928200.71    252.46034    94.898439    3.2202447     492358.9    333112.72   -88049.885    245807.24 
     290   -928416.48    252.46034    94.898439    3.2202447    482841.51    330054.68   -84146.876    242916.44 
     300   -928648.76    252.46034    94.898439    3.2202447     473459.1    326163.09   -80680.605     239647.2 
     310   -928922.58    252.46034    94.898439    3.2202447     463503.6    323699.83   -76803.079    236800.11 
     320   -929241.41    252.46034    94.898439    3.2202447    452538.13    319686.06   -73319.401    232968.26 
     330   -929546.97    252.46034    94.898439    3.2202447    441992.79    315465.81   -70250.928    229069.23 
     340   -929827.24    252.46034    94.898439    3.2202447       432019    311483.61    -67089.33    225471.09 
     350   -930079.66    252.46034    94.898439    3.2202447    422570.73    307399.77   -63931.803     222012.9 
     360      -930291    252.46034    94.898439    3.2202447    414011.49    302973.37   -60945.152     218679.9 
     370   -930448.35    252.46034    94.898439    3.2202447    407144.11    299039.57   -58300.998    215960.89 
     380    -930581.3    252.46034    94.898439    3.2202447    401580.84    296717.08   -55680.549    214205.79 
     390   -930711.78    252.46034    94.898439    3.2202447    396190.33    294860.02   -53306.492    212581.29 
     400    -930820.2    252.46034    94.898439    3.2202447    391182.54    293142.92   -51430.446       210965 
     410   -930893.98    252.46034    94.898439    3.2202447    386809.19    291916.74   -49879.734     209615.4 
     420   -930985.92    252.46034    94.898439    3.2202447    383004.19    290194.99   -48611.941    208195.75 
     430   -931061.48    252.46034    94.898439    3.2202447     379624.9    287744.23   -47194.268    206724.96 
     440    -931106.2    252.46034    94.898439    3.2202447    377391.54     285926.1   -47379.266    205312.79 
     450   -931141.83    252.46034    94.898439    3.2202447    375774.11    284747.77   -47080.589    204480.43 
     460   -931173.69    252.46034    94.898439    3.2202447    374456.24    283812.46    -46692.44    203858.75 
     470   -931203.09    252.46034    94.898439    3.2202447    373216.82    282959.96   -46303.659    203291.04 
     480   -931232.74    252.46034    94.898439    3.2202447    371970.54    282055.93   -45777.153    202749.77 
     490   -931262.16    252.46034    94.898439    3.2202447    370657.38    281001.79   -45255.749    202134.48 
     500   -931290.71    252.46034    94.898439    3.2202447    369363.12    279877.13   -44681.283    201519.66 
     510   -931317.53    252.46034    94.898439    3.2202447    368091.99    278716.85   -44096.964    200903.96 
     520    -931342.4    252.46034    94.898439    3.2202447    366844.47    277525.68   -43504.001    200288.72 
     530   -931366.69    252.46034    94.898439    3.2202447    365594.12    276327.44   -42842.562       199693 
     540   -931394.18    252.46034    94.898439    3.2202447     364195.7    274975.53   -42080.273    199030.32 
     550   -931425.71    252.46034    94.898439    3.2202447    362686.02    273482.71   -41190.924    198325.93 
     560   -931466.35    252.46034    94.898439    3.2202447    360930.86    271783.57   -40166.395    197516.01 
     570   -931516.78    252.46034    94.898439    3.2202447    358964.88    269721.65    -39373.71    196437.61 
     580   -931564.33    252.46034    94.898439    3.2202447    357221.21    267599.78   -39201.968    195206.34 
     590   -931598.02    252.46034    94.898439    3.2202447    355951.87    265938.92   -39299.957    194196.94 
     600   -931620.44    252.46034    94.898439    3.2202447    355004.84    264798.44   -39474.375    193442.97 
     610   -931635.83    252.46034    94.898439    3.2202447    354322.43    264004.78   -39506.258    192940.32 
     620   -931647.22    252.46034    94.898439    3.2202447    353783.58    263411.77   -39495.929    192566.47 
     630   -931656.05    252.46034    94.898439    3.2202447     353318.3    262939.89    -39513.01    192248.39 
     640   -931663.19    252.46034    94.898439    3.2202447    352983.19    262571.05   -39429.733     192041.5 
     650   -931669.23    252.46034    94.898439    3.2202447    352686.47    262260.49   -39363.165    191861.26 
     660   -931674.43    252.46034    94.898439    3.2202447    352396.49     261976.7   -39336.947    191678.75 
     670      -931679    252.46034    94.898439    3.2202447    352161.84    261745.26   -39288.619    191539.49 
     680   -931683.15    252.46034    94.898439    3.2202447    351924.91    261524.37   -39266.397    191394.29 
     690   -931686.91    252.46034    94.898439    3.2202447    351733.53     261325.4   -39201.165    191285.92 
     691   -931687.27    252.46034    94.898439    3.2202447     351706.9    261304.76   -39209.372    191267.43 
Loop time of 25.1292 on 16 procs for 691 steps with 8280 atoms

99.7% CPU use with 16 MPI tasks x no OpenMP threads

Minimization stats:
  Stopping criterion = energy tolerance
  Energy initial, next-to-last, final = 
     -880499.265747495  -931686.907857868   -931687.26522444
  Force two-norm initial, final = 12055.767 81.821487
  Force max component initial, final = 194.90009 5.4702233
  Final line search alpha, max atom move = 0.0000000 0.0000000
  Iterations, force evaluations = 691 691

MPI task timing breakdown:
Section |  min time  |  avg time  |  max time  |%varavg| %total
---------------------------------------------------------------
Pair    | 14.846     | 18.338     | 21.14      |  53.0 | 72.97
Neigh   | 0          | 0          | 0          |   0.0 |  0.00
Comm    | 0.031352   | 2.6245     | 6.3392     | 145.0 | 10.44
Output  | 0.075163   | 0.075321   | 0.075919   |   0.1 |  0.30
Modify  | 3.4216     | 3.6445     | 4.1141     |  11.9 | 14.50
Other   |            | 0.4473     |            |       |  1.78

Nlocal:        517.500 ave         540 max         495 min
Histogram: 8 0 0 0 0 0 0 0 0 8
Nghost:        843.750 ave         878 max         810 min
Histogram: 8 0 0 0 0 0 0 0 0 8
Neighs:        49700.0 ave       51611 max       47776 min
Histogram: 8 0 0 0 0 0 0 0 0 8

Total # of neighbors = 795200
Ave neighs/atom = 96.038647
Neighbor list builds = 0
Dangerous builds = 0
WARNING: Using 'neigh_modify every 1 delay 0 check yes' setting during minimization (../min.cpp:188)
Setting up quickmin style minimization ...
  Unit style    : real
  Current step  : 691
Per MPI rank memory allocation (min/avg/max) = 28.62 | 28.66 | 28.69 Mbytes
Step PotEng Lx Ly Lz Pxx Pyy Pzz Press 
     691   -931687.27    252.46034    94.898439    3.2190581    351836.56    261401.09   -39223.892    191337.92 
     697   -931687.34    252.46034    94.898439    3.2190581     351797.8    261368.34   -39266.311    191299.95 
Loop time of 0.248143 on 16 procs for 6 steps with 8280 atoms

99.7% CPU use with 16 MPI tasks x no OpenMP threads

Minimization stats:
  Stopping criterion = energy tolerance
  Energy initial, next-to-last, final = 
     -931687.265323661  -931687.318556269  -931687.344878489
  Force two-norm initial, final = 81.820494 80.300941
  Force max component initial, final = 5.4702939 5.4665972
  Final line search alpha, max atom move = 0.0000000 0.0000000
  Iterations, force evaluations = 6 6

MPI task timing breakdown:
Section |  min time  |  avg time  |  max time  |%varavg| %total
---------------------------------------------------------------
Pair    | 0.15084    | 0.18413    | 0.21421    |   5.2 | 74.20
Neigh   | 0          | 0          | 0          |   0.0 |  0.00
Comm    | 0.00030994 | 0.026246   | 0.063676   |  14.5 | 10.58
Output  | 0          | 0          | 0          |   0.0 |  0.00
Modify  | 0.031533   | 0.035677   | 0.044482   |   2.3 | 14.38
Other   |            | 0.002086   |            |       |  0.84

Nlocal:        517.500 ave         540 max         495 min
Histogram: 8 0 0 0 0 0 0 0 0 8
Nghost:        846.500 ave         887 max         810 min
Histogram: 8 0 0 0 0 0 0 0 6 2
Neighs:        50017.3 ave       52278 max       47698 min
Histogram: 4 4 0 0 0 0 0 0 2 6

Total # of neighbors = 800277
Ave neighs/atom = 96.651812
Neighbor list builds = 0
Dangerous builds = 0
Total wall time: 0:00:35
