 vasp.5.4.4.18Apr17-6-g9f103f2a35 (build Sep 16 2021 13:51:27) complex          
  
 executed on             LinuxIFC date 2023.03.16  12:57:38
 running on   24 total cores
 distrk:  each k-point on   24 cores,    1 groups
 distr:  one band on NCORES_PER_BAND=  24 cores,    1 groups


--------------------------------------------------------------------------------------------------------


 INCAR:
 POTCAR:    PAW_PBE Sn 08Apr2002                  
 POTCAR:    PAW_PBE Se 06Sep2000                  

 ----------------------------------------------------------------------------- 
|                                                                             |
|           W    W    AA    RRRRR   N    N  II  N    N   GGGG   !!!           |
|           W    W   A  A   R    R  NN   N  II  NN   N  G    G  !!!           |
|           W    W  A    A  R    R  N N  N  II  N N  N  G       !!!           |
|           W WW W  AAAAAA  RRRRR   N  N N  II  N  N N  G  GGG   !            |
|           WW  WW  A    A  R   R   N   NN  II  N   NN  G    G                |
|           W    W  A    A  R    R  N    N  II  N    N   GGGG   !!!           |
|                                                                             |
|      For optimal performance we recommend to set                            |
|        NCORE= 4 - approx SQRT( number of cores)                             |
|      NCORE specifies how many cores store one orbital (NPAR=cpu/NCORE).     |
|      This setting can  greatly improve the performance of VASP for DFT.     |
|      The default,   NCORE=1            might be grossly inefficient         |
|      on modern multi-core architectures or massively parallel machines.     |
|      Do your own testing !!!!                                               |
|      Unfortunately you need to use the default for GW and RPA calculations. |
|      (for HF NCORE is supported but not extensively tested yet)             |
|                                                                             |
 ----------------------------------------------------------------------------- 

 POTCAR:    PAW_PBE Sn 08Apr2002                  
   VRHFIN =Sn: s2p2                                                             
   LEXCH  = PE                                                                  
   EATOM  =    94.0860 eV,    6.9151 Ry                                         
                                                                                
   TITEL  = PAW_PBE Sn 08Apr2002                                                
   LULTRA =        F    use ultrasoft PP ?                                      
   IUNSCR =        1    unscreen: 0-lin 1-nonlin 2-no                           
   RPACOR =    2.000    partial core radius                                     
   POMASS =  118.710; ZVAL   =    4.000    mass and valenz                      
   RCORE  =    3.000    outmost cutoff radius                                   
   RWIGS  =    2.960; RWIGS  =    1.566    wigner-seitz radius (au A)           
   ENMAX  =  103.236; ENMIN  =   77.427 eV                                      
   ICORE  =        3    local potential                                         
   LCOR   =        T    correct aug charges                                     
   LPAW   =        T    paw PP                                                  
   EAUG   =  263.585                                                            
   DEXC   =    0.000                                                            
   RMAX   =    3.078    core radius for proj-oper                               
   RAUG   =    1.300    factor for augmentation sphere                          
   RDEP   =    3.022    radius for radial grids                                 
   RDEPT  =    2.655    core radius for aug-charge                              
                                                                                
   Atomic configuration                                                         
   13 entries                                                                   
     n  l   j            E        occ.                                          
     1  0  0.50    -29007.2859   2.0000                                         
     2  0  0.50     -4378.8056   2.0000                                         
     2  1  1.50     -3930.4293   6.0000                                         
     3  0  0.50      -845.0264   2.0000                                         
     3  1  1.50      -698.5725   6.0000                                         
     3  2  2.50      -473.2839  10.0000                                         
     4  0  0.50      -133.9036   2.0000                                         
     4  1  1.50       -89.6752   6.0000                                         
     4  2  2.50       -25.8375  10.0000                                         
     5  0  0.50       -10.5484   2.0000                                         
     5  1  0.50        -3.6940   2.0000                                         
     5  2  1.50        -1.3606   0.0000                                         
     4  3  2.50        -4.0817   0.0000                                         
   Description                                                                  
     l       E           TYP  RCUT    TYP  RCUT                                 
     0    -10.5483727     23  3.000                                             
     0     27.2116520     23  3.000                                             
     1     -3.6939829     23  3.000                                             
     1      1.9821976     23  3.000                                             
     2     -1.3605826     23  3.000                                             
     3     -2.7211652     23  3.000                                             
  local pseudopotential read in
  partial core-charges read in
  partial kinetic energy density read in
  atomic valenz-charges read in
  non local Contribution for L=           0  read in
    real space projection operators read in
  non local Contribution for L=           0  read in
    real space projection operators read in
  non local Contribution for L=           1  read in
    real space projection operators read in
  non local Contribution for L=           1  read in
    real space projection operators read in
  non local Contribution for L=           2  read in
    real space projection operators read in
    PAW grid and wavefunctions read in
 
   number of l-projection  operators is LMAX  =           5
   number of lm-projection operators is LMMAX =          13
 
 POTCAR:    PAW_PBE Se 06Sep2000                  
   VRHFIN =Se: s2p4                                                             
   LEXCH  = PE                                                                  
   EATOM  =   257.1286 eV,   18.8984 Ry                                         
                                                                                
   TITEL  = PAW_PBE Se 06Sep2000                                                
   LULTRA =        F    use ultrasoft PP ?                                      
   IUNSCR =        1    unscreen: 0-lin 1-nonlin 2-no                           
   RPACOR =    1.900    partial core radius                                     
   POMASS =   78.960; ZVAL   =    6.000    mass and valenz                      
   RCORE  =    2.100    outmost cutoff radius                                   
   RWIGS  =    2.200; RWIGS  =    1.164    wigner-seitz radius (au A)           
   ENMAX  =  211.555; ENMIN  =  158.666 eV                                      
   ICORE  =        3    local potential                                         
   LCOR   =        T    correct aug charges                                     
   LPAW   =        T    paw PP                                                  
   EAUG   =  446.842                                                            
   DEXC   =    0.000                                                            
   RMAX   =    2.147    core radius for proj-oper                               
   RAUG   =    1.300    factor for augmentation sphere                          
   RDEP   =    2.177    radius for radial grids                                 
   RDEPT  =    1.928    core radius for aug-charge                              
                                                                                
   Atomic configuration                                                         
   10 entries                                                                   
     n  l   j            E        occ.                                          
     1  0  0.50    -12503.4787   2.0000                                         
     2  0  0.50     -1606.9547   2.0000                                         
     2  1  1.50     -1413.3140   6.0000                                         
     3  0  0.50      -213.4885   2.0000                                         
     3  1  1.50      -152.9538   6.0000                                         
     3  2  2.50       -53.1221  10.0000                                         
     4  0  0.50       -17.2865   2.0000                                         
     4  1  0.50        -6.5110   4.0000                                         
     4  2  2.50        -6.8029   0.0000                                         
     4  3  2.50        -6.8029   0.0000                                         
   Description                                                                  
     l       E           TYP  RCUT    TYP  RCUT                                 
     0    -17.2865377     23  2.100                                             
     0    -15.3094411     23  2.100                                             
     1     -6.5110275     23  2.100                                             
     1     -0.0695192     23  2.100                                             
     2     -6.8029130     23  2.100                                             
     3     -1.3605826      7  2.100                                             
  local pseudopotential read in
  partial core-charges read in
  partial kinetic energy density read in
  atomic valenz-charges read in
  non local Contribution for L=           0  read in
    real space projection operators read in
  non local Contribution for L=           0  read in
    real space projection operators read in
  non local Contribution for L=           1  read in
    real space projection operators read in
  non local Contribution for L=           1  read in
    real space projection operators read in
  non local Contribution for L=           2  read in
    real space projection operators read in
    PAW grid and wavefunctions read in
 
   number of l-projection  operators is LMAX  =           5
   number of lm-projection operators is LMMAX =          13
 
 WARNING: PSMAXN for non-local potential too small
          PSMAXN should be >   12.5490833729506       NTYP=           1
  PAW_PBE Sn 08Apr2002                  :
 energy of atom  1       EATOM=  -94.0860
 kinetic energy error for atom=    0.0000 (will be added to EATOM!!)
  PAW_PBE Se 06Sep2000                  :
 energy of atom  2       EATOM= -257.1286
 kinetic energy error for atom=    0.0006 (will be added to EATOM!!)
 
 
 POSCAR:  POSCAR with strain of 0.003            
  positions in direct lattice
  No initial velocities read in
 exchange correlation table for  LEXCH =        8
   RHO(1)=    0.500       N(1)  =     2000
   RHO(2)=  100.500       N(2)  =     4000
 


--------------------------------------------------------------------------------------------------------


 ion  position               nearest neighbor table
   1  0.581  0.750  0.569-   4 2.72   3 2.92   3 2.92   3 3.23   3 3.23
   2  0.081  0.250  0.431-   3 2.72   4 2.92   4 2.92   4 3.23   4 3.23
   3  0.033  0.250  0.567-   2 2.72   1 2.92   1 2.92   1 3.23   1 3.23
   4  0.533  0.750  0.433-   1 2.72   2 2.92   2 2.92   2 3.23   2 3.23
 

IMPORTANT INFORMATION: All symmetrisations will be switched off!
NOSYMM: (Re-)initialisation of all symmetry stuff for point group C_1.

 
 
 KPOINTS: KMesh Grid                              

Automatic generation of k-mesh.
Space group operators:
 irot       det(A)        alpha          n_x          n_y          n_z        tau_x        tau_y        tau_z
    1     1.000000     0.000000     1.000000     0.000000     0.000000     0.000000     0.000000     0.000000
 
 Subroutine IBZKPT returns following result:
 ===========================================
 
 Found    113 irreducible k-points:
 
 Following reciprocal coordinates:
            Coordinates               Weight
  0.000000  0.000000  0.000000      1.000000
  0.066667  0.000000  0.000000      2.000000
  0.133333  0.000000  0.000000      2.000000
  0.200000  0.000000  0.000000      2.000000
  0.266667  0.000000  0.000000      2.000000
  0.333333  0.000000  0.000000      2.000000
  0.400000  0.000000  0.000000      2.000000
  0.466667  0.000000  0.000000      2.000000
  0.000000  0.066667  0.000000      2.000000
  0.066667  0.066667  0.000000      2.000000
  0.133333  0.066667  0.000000      2.000000
  0.200000  0.066667  0.000000      2.000000
  0.266667  0.066667  0.000000      2.000000
  0.333333  0.066667  0.000000      2.000000
  0.400000  0.066667  0.000000      2.000000
  0.466667  0.066667  0.000000      2.000000
 -0.466667  0.066667  0.000000      2.000000
 -0.400000  0.066667  0.000000      2.000000
 -0.333333  0.066667  0.000000      2.000000
 -0.266667  0.066667  0.000000      2.000000
 -0.200000  0.066667  0.000000      2.000000
 -0.133333  0.066667  0.000000      2.000000
 -0.066667  0.066667  0.000000      2.000000
  0.000000  0.133333  0.000000      2.000000
  0.066667  0.133333  0.000000      2.000000
  0.133333  0.133333  0.000000      2.000000
  0.200000  0.133333  0.000000      2.000000
  0.266667  0.133333  0.000000      2.000000
  0.333333  0.133333  0.000000      2.000000
  0.400000  0.133333  0.000000      2.000000
  0.466667  0.133333  0.000000      2.000000
 -0.466667  0.133333  0.000000      2.000000
 -0.400000  0.133333  0.000000      2.000000
 -0.333333  0.133333  0.000000      2.000000
 -0.266667  0.133333  0.000000      2.000000
 -0.200000  0.133333  0.000000      2.000000
 -0.133333  0.133333  0.000000      2.000000
 -0.066667  0.133333  0.000000      2.000000
  0.000000  0.200000  0.000000      2.000000
  0.066667  0.200000  0.000000      2.000000
  0.133333  0.200000  0.000000      2.000000
  0.200000  0.200000  0.000000      2.000000
  0.266667  0.200000  0.000000      2.000000
  0.333333  0.200000  0.000000      2.000000
  0.400000  0.200000  0.000000      2.000000
  0.466667  0.200000  0.000000      2.000000
 -0.466667  0.200000  0.000000      2.000000
 -0.400000  0.200000  0.000000      2.000000
 -0.333333  0.200000  0.000000      2.000000
 -0.266667  0.200000  0.000000      2.000000
 -0.200000  0.200000  0.000000      2.000000
 -0.133333  0.200000  0.000000      2.000000
 -0.066667  0.200000  0.000000      2.000000
  0.000000  0.266667  0.000000      2.000000
  0.066667  0.266667  0.000000      2.000000
  0.133333  0.266667  0.000000      2.000000
  0.200000  0.266667  0.000000      2.000000
  0.266667  0.266667  0.000000      2.000000
  0.333333  0.266667  0.000000      2.000000
  0.400000  0.266667  0.000000      2.000000
  0.466667  0.266667  0.000000      2.000000
 -0.466667  0.266667  0.000000      2.000000
 -0.400000  0.266667  0.000000      2.000000
 -0.333333  0.266667  0.000000      2.000000
 -0.266667  0.266667  0.000000      2.000000
 -0.200000  0.266667  0.000000      2.000000
 -0.133333  0.266667  0.000000      2.000000
 -0.066667  0.266667  0.000000      2.000000
  0.000000  0.333333  0.000000      2.000000
  0.066667  0.333333  0.000000      2.000000
  0.133333  0.333333  0.000000      2.000000
  0.200000  0.333333  0.000000      2.000000
  0.266667  0.333333  0.000000      2.000000
  0.333333  0.333333  0.000000      2.000000
  0.400000  0.333333  0.000000      2.000000
  0.466667  0.333333  0.000000      2.000000
 -0.466667  0.333333  0.000000      2.000000
 -0.400000  0.333333  0.000000      2.000000
 -0.333333  0.333333  0.000000      2.000000
 -0.266667  0.333333  0.000000      2.000000
 -0.200000  0.333333  0.000000      2.000000
 -0.133333  0.333333  0.000000      2.000000
 -0.066667  0.333333  0.000000      2.000000
  0.000000  0.400000  0.000000      2.000000
  0.066667  0.400000  0.000000      2.000000
  0.133333  0.400000  0.000000      2.000000
  0.200000  0.400000  0.000000      2.000000
  0.266667  0.400000  0.000000      2.000000
  0.333333  0.400000  0.000000      2.000000
  0.400000  0.400000  0.000000      2.000000
  0.466667  0.400000  0.000000      2.000000
 -0.466667  0.400000  0.000000      2.000000
 -0.400000  0.400000  0.000000      2.000000
 -0.333333  0.400000  0.000000      2.000000
 -0.266667  0.400000  0.000000      2.000000
 -0.200000  0.400000  0.000000      2.000000
 -0.133333  0.400000  0.000000      2.000000
 -0.066667  0.400000  0.000000      2.000000
  0.000000  0.466667  0.000000      2.000000
  0.066667  0.466667  0.000000      2.000000
  0.133333  0.466667  0.000000      2.000000
  0.200000  0.466667  0.000000      2.000000
  0.266667  0.466667  0.000000      2.000000
  0.333333  0.466667  0.000000      2.000000
  0.400000  0.466667  0.000000      2.000000
  0.466667  0.466667  0.000000      2.000000
 -0.466667  0.466667  0.000000      2.000000
 -0.400000  0.466667  0.000000      2.000000
 -0.333333  0.466667  0.000000      2.000000
 -0.266667  0.466667  0.000000      2.000000
 -0.200000  0.466667  0.000000      2.000000
 -0.133333  0.466667  0.000000      2.000000
 -0.066667  0.466667  0.000000      2.000000
 
 Following cartesian coordinates:
            Coordinates               Weight
  0.000000  0.000000  0.000000      1.000000
  0.015175  0.000000  0.000000      2.000000
  0.030349  0.000000  0.000000      2.000000
  0.045524  0.000000  0.000000      2.000000
  0.060698  0.000000  0.000000      2.000000
  0.075873  0.000000  0.000000      2.000000
  0.091047  0.000000  0.000000      2.000000
  0.106222  0.000000  0.000000      2.000000
  0.000000  0.015531  0.000000      2.000000
  0.015175  0.015531  0.000000      2.000000
  0.030349  0.015531  0.000000      2.000000
  0.045524  0.015531  0.000000      2.000000
  0.060698  0.015531  0.000000      2.000000
  0.075873  0.015531  0.000000      2.000000
  0.091047  0.015531  0.000000      2.000000
  0.106222  0.015531  0.000000      2.000000
 -0.106222  0.015531  0.000000      2.000000
 -0.091047  0.015531  0.000000      2.000000
 -0.075873  0.015531  0.000000      2.000000
 -0.060698  0.015531  0.000000      2.000000
 -0.045524  0.015531  0.000000      2.000000
 -0.030349  0.015531  0.000000      2.000000
 -0.015175  0.015531  0.000000      2.000000
  0.000000  0.031062  0.000000      2.000000
  0.015175  0.031062  0.000000      2.000000
  0.030349  0.031062  0.000000      2.000000
  0.045524  0.031062  0.000000      2.000000
  0.060698  0.031062  0.000000      2.000000
  0.075873  0.031062  0.000000      2.000000
  0.091047  0.031062  0.000000      2.000000
  0.106222  0.031062  0.000000      2.000000
 -0.106222  0.031062  0.000000      2.000000
 -0.091047  0.031062  0.000000      2.000000
 -0.075873  0.031062  0.000000      2.000000
 -0.060698  0.031062  0.000000      2.000000
 -0.045524  0.031062  0.000000      2.000000
 -0.030349  0.031062  0.000000      2.000000
 -0.015175  0.031062  0.000000      2.000000
  0.000000  0.046593  0.000000      2.000000
  0.015175  0.046593  0.000000      2.000000
  0.030349  0.046593  0.000000      2.000000
  0.045524  0.046593  0.000000      2.000000
  0.060698  0.046593  0.000000      2.000000
  0.075873  0.046593  0.000000      2.000000
  0.091047  0.046593  0.000000      2.000000
  0.106222  0.046593  0.000000      2.000000
 -0.106222  0.046593  0.000000      2.000000
 -0.091047  0.046593  0.000000      2.000000
 -0.075873  0.046593  0.000000      2.000000
 -0.060698  0.046593  0.000000      2.000000
 -0.045524  0.046593  0.000000      2.000000
 -0.030349  0.046593  0.000000      2.000000
 -0.015175  0.046593  0.000000      2.000000
  0.000000  0.062124  0.000000      2.000000
  0.015175  0.062124  0.000000      2.000000
  0.030349  0.062124  0.000000      2.000000
  0.045524  0.062124  0.000000      2.000000
  0.060698  0.062124  0.000000      2.000000
  0.075873  0.062124  0.000000      2.000000
  0.091047  0.062124  0.000000      2.000000
  0.106222  0.062124  0.000000      2.000000
 -0.106222  0.062124  0.000000      2.000000
 -0.091047  0.062124  0.000000      2.000000
 -0.075873  0.062124  0.000000      2.000000
 -0.060698  0.062124  0.000000      2.000000
 -0.045524  0.062124  0.000000      2.000000
 -0.030349  0.062124  0.000000      2.000000
 -0.015175  0.062124  0.000000      2.000000
  0.000000  0.077655  0.000000      2.000000
  0.015175  0.077655  0.000000      2.000000
  0.030349  0.077655  0.000000      2.000000
  0.045524  0.077655  0.000000      2.000000
  0.060698  0.077655  0.000000      2.000000
  0.075873  0.077655  0.000000      2.000000
  0.091047  0.077655  0.000000      2.000000
  0.106222  0.077655  0.000000      2.000000
 -0.106222  0.077655  0.000000      2.000000
 -0.091047  0.077655  0.000000      2.000000
 -0.075873  0.077655  0.000000      2.000000
 -0.060698  0.077655  0.000000      2.000000
 -0.045524  0.077655  0.000000      2.000000
 -0.030349  0.077655  0.000000      2.000000
 -0.015175  0.077655  0.000000      2.000000
  0.000000  0.093186  0.000000      2.000000
  0.015175  0.093186  0.000000      2.000000
  0.030349  0.093186  0.000000      2.000000
  0.045524  0.093186  0.000000      2.000000
  0.060698  0.093186  0.000000      2.000000
  0.075873  0.093186  0.000000      2.000000
  0.091047  0.093186  0.000000      2.000000
  0.106222  0.093186  0.000000      2.000000
 -0.106222  0.093186  0.000000      2.000000
 -0.091047  0.093186  0.000000      2.000000
 -0.075873  0.093186  0.000000      2.000000
 -0.060698  0.093186  0.000000      2.000000
 -0.045524  0.093186  0.000000      2.000000
 -0.030349  0.093186  0.000000      2.000000
 -0.015175  0.093186  0.000000      2.000000
  0.000000  0.108717  0.000000      2.000000
  0.015175  0.108717  0.000000      2.000000
  0.030349  0.108717  0.000000      2.000000
  0.045524  0.108717  0.000000      2.000000
  0.060698  0.108717  0.000000      2.000000
  0.075873  0.108717  0.000000      2.000000
  0.091047  0.108717  0.000000      2.000000
  0.106222  0.108717  0.000000      2.000000
 -0.106222  0.108717  0.000000      2.000000
 -0.091047  0.108717  0.000000      2.000000
 -0.075873  0.108717  0.000000      2.000000
 -0.060698  0.108717  0.000000      2.000000
 -0.045524  0.108717  0.000000      2.000000
 -0.030349  0.108717  0.000000      2.000000
 -0.015175  0.108717  0.000000      2.000000
 


--------------------------------------------------------------------------------------------------------




 Dimension of arrays:
   k-points           NKPTS =    113   k-points in BZ     NKDIM =    113   number of bands    NBANDS=     14
   number of dos      NEDOS =    301   number of ions     NIONS =      4
   non local maximal  LDIM  =      5   non local SUM 2l+1 LMDIM =     13
   total plane-waves  NPLWV = 207360
   max r-space proj   IRMAX =      1   max aug-charges    IRDMAX=  53115
   dimension x,y,z NGX =    36 NGY =   36 NGZ =  160
   dimension x,y,z NGXF=    72 NGYF=   72 NGZF=  320
   support grid    NGXF=    72 NGYF=   72 NGZF=  320
   ions per type =               2   2
   NGX,Y,Z   is equivalent  to a cutoff of  13.62, 13.94, 13.30 a.u.
   NGXF,Y,Z  is equivalent  to a cutoff of  27.25, 27.89, 26.60 a.u.

 SYSTEM =  SnSe                                    
 POSCAR =   POSCAR with strain of 0.003            

 Startparameter for this run:
   NWRITE =      2    write-flag & timer
   PREC   = accura    normal or accurate (medium, high low for compatibility)
   ISTART =      0    job   : 0-new  1-cont  2-samecut
   ICHARG =      2    charge: 1-file 2-atom 10-const
   ISPIN  =      1    spin polarized calculation?
   LNONCOLLINEAR =      F non collinear calculations
   LSORBIT =      F    spin-orbit coupling
   INIWAV =      1    electr: 0-lowe 1-rand  2-diag
   LASPH  =      F    aspherical Exc in radial PAW
   METAGGA=      F    non-selfconsistent MetaGGA calc.

 Electronic Relaxation 1
   ENCUT  =  600.0 eV  44.10 Ry    6.64 a.u.   8.77  8.57 39.94*2*pi/ulx,y,z
   ENINI  =  600.0     initial cutoff
   ENAUG  =  446.8 eV  augmentation charge cutoff
   NELM   =     60;   NELMIN=  2; NELMDL= -5     # of ELM steps 
   EDIFF  = 0.1E-05   stopping-criterion for ELM
   LREAL  =      F    real-space projection
   NLSPLINE    = F    spline interpolate recip. space projectors
   LCOMPAT=      F    compatible to vasp.4.4
   GGA_COMPAT  = T    GGA compatible to vasp.4.4-vasp.4.6
   LMAXPAW     = -100 max onsite density
   LMAXMIX     =    2 max onsite mixed and CHGCAR
   VOSKOWN=      0    Vosko Wilk Nusair interpolation
   ROPT   =    0.00000   0.00000
 Ionic relaxation
   EDIFFG = -.1E-02   stopping-criterion for IOM
   NSW    =    100    number of steps for IOM
   NBLOCK =      1;   KBLOCK =    100    inner block; outer block 
   IBRION =      2    ionic relax: 0-MD 1-quasi-New 2-CG
   NFREE  =      1    steps in history (QN), initial steepest desc. (CG)
   ISIF   =      2    stress and relaxation
   IWAVPR =     11    prediction:  0-non 1-charg 2-wave 3-comb
   ISYM   =      0    0-nonsym 1-usesym 2-fastsym
   LCORR  =      T    Harris-Foulkes like correction to forces

   POTIM  = 0.5000    time-step for ionic-motion
   TEIN   =    0.0    initial temperature
   TEBEG  =    0.0;   TEEND  =   0.0 temperature during run
   SMASS  =  -3.00    Nose mass-parameter (am)
   estimated Nose-frequenzy (Omega)   =  0.10E-29 period in steps =****** mass=  -0.441E-27a.u.
   SCALEE = 1.0000    scale energy and forces
   NPACO  =    256;   APACO  = 16.0  distance and # of slots for P.C.
   PSTRESS=    0.0 pullay stress

  Mass of Ions in am
   POMASS = 118.71 78.96
  Ionic Valenz
   ZVAL   =   4.00  6.00
  Atomic Wigner-Seitz radii
   RWIGS  =  -1.00 -1.00
  virtual crystal weights 
   VCA    =   1.00  1.00
   NELECT =      20.0000    total number of electrons
   NUPDOWN=      -1.0000    fix difference up-down

 DOS related values:
   EMIN   =  10.00;   EMAX   =-10.00  energy-range for DOS
   EFERMI =   0.00
   ISMEAR =     0;   SIGMA  =   0.10  broadening in eV -4-tet -1-fermi 0-gaus

 Electronic relaxation 2 (details)
   IALGO  =     38    algorithm
   LDIAG  =      T    sub-space diagonalisation (order eigenvalues)
   LSUBROT=      F    optimize rotation matrix (better conditioning)
   TURBO    =      0    0=normal 1=particle mesh
   IRESTART =      0    0=no restart 2=restart with 2 vectors
   NREBOOT  =      0    no. of reboots
   NMIN     =      0    reboot dimension
   EREF     =   0.00    reference energy to select bands
   IMIX   =      4    mixing-type and parameters
     AMIX     =   0.40;   BMIX     =  1.00
     AMIX_MAG =   1.60;   BMIX_MAG =  1.00
     AMIN     =   0.10
     WC   =   100.;   INIMIX=   1;  MIXPRE=   1;  MAXMIX= -45

 Intra band minimization:
   WEIMIN = 0.0010     energy-eigenvalue tresh-hold
   EBREAK =  0.18E-07  absolut break condition
   DEPER  =   0.30     relativ break condition  

   TIME   =   0.40     timestep for ELM

  volume/ion in A,a.u.               =      94.29       636.31
  Fermi-wavevector in a.u.,A,eV,Ry     =   0.615047  1.162270  5.146845  0.378282
  Thomas-Fermi vector in A             =   1.672276
 
 Write flags
   LWAVE        =      T    write WAVECAR
   LDOWNSAMPLE  =      F    k-point downsampling of WAVECAR
   LCHARG       =      T    write CHGCAR
   LVTOT        =      F    write LOCPOT, total local potential
   LVHAR        =      F    write LOCPOT, Hartree potential only
   LELF         =      F    write electronic localiz. function (ELF)
   LORBIT       =      0    0 simple, 1 ext, 2 COOP (PROOUT), +10 PAW based schemes


 Dipole corrections
   LMONO  =      F    monopole corrections only (constant potential shift)
   LDIPOL =      F    correct potential (dipole corrections)
   IDIPOL =      0    1-x, 2-y, 3-z, 4-all directions 
   EPSILON=  1.0000000 bulk dielectric constant

 Exchange correlation treatment:
   GGA     =    PE    GGA type
   LEXCH   =     8    internal setting for exchange type
   VOSKOWN=      0    Vosko Wilk Nusair interpolation
   LHFCALC =     F    Hartree Fock is set to
   LHFONE  =     F    Hartree Fock one center treatment
   AEXX    =    0.0000 exact exchange contribution

 Linear response parameters
   LEPSILON=     F    determine dielectric tensor
   LRPA    =     F    only Hartree local field effects (RPA)
   LNABLA  =     F    use nabla operator in PAW spheres
   LVEL    =     F    velocity operator in full k-point grid
   LINTERFAST=   F  fast interpolation
   KINTER  =     0    interpolate to denser k-point grid
   CSHIFT  =0.1000    complex shift for real part using Kramers Kronig
   OMEGAMAX=  -1.0    maximum frequency
   DEG_THRESHOLD= 0.2000000E-02 threshold for treating states as degnerate
   RTIME   =   -0.100 relaxation time in fs
  (WPLASMAI=    0.000 imaginary part of plasma frequency in eV, 0.658/RTIME)
   DFIELD  = 0.0000000 0.0000000 0.0000000 field for delta impulse in time
 
 Orbital magnetization related:
   ORBITALMAG=     F  switch on orbital magnetization
   LCHIMAG   =     F  perturbation theory with respect to B field
   DQ        =  0.001000  dq finite difference perturbation B field
   LLRAUG    =     F  two centre corrections for induced B field



--------------------------------------------------------------------------------------------------------


 conjugate gradient relaxation of ions
 charge density and potential will be updated during run
 non-spin polarized calculation
 Variant of blocked Davidson
 Davidson routine will perform the subspace rotation
 perform sub-space diagonalisation
    after iterative eigenvector-optimisation
 modified Broyden-mixing scheme, WC =      100.0
 initial mixing is a Kerker type mixing with AMIX =  0.4000 and BMIX =      1.0000
 Hartree-type preconditioning will be used
 using additional bands            4
 reciprocal scheme for non local part
 use partial core corrections
 calculate Harris-corrections to forces 
   (improved forces if not selfconsistent)
 use gradient corrections 
 use of overlap-Matrix (Vanderbilt PP)
 Gauss-broadening in eV      SIGMA  =   0.10


--------------------------------------------------------------------------------------------------------


  energy-cutoff  :      600.00
  volume of cell :      377.16
      direct lattice vectors                 reciprocal lattice vectors
     4.393312657  0.000000000  0.000000000     0.227618674  0.000000000  0.000000000
     0.000000000  4.292477857  0.000000000     0.000000000  0.232965675  0.000000000
     0.000000000  0.000000000 20.000000000     0.000000000  0.000000000  0.050000000

  length of vectors
     4.393312657  4.292477857 20.000000000     0.227618674  0.232965675  0.050000000


 
 k-points in units of 2pi/SCALE and weight: KMesh Grid                              
   0.00000000  0.00000000  0.00000000       0.004
   0.01517458  0.00000000  0.00000000       0.009
   0.03034916  0.00000000  0.00000000       0.009
   0.04552373  0.00000000  0.00000000       0.009
   0.06069831  0.00000000  0.00000000       0.009
   0.07587289  0.00000000  0.00000000       0.009
   0.09104747  0.00000000  0.00000000       0.009
   0.10622205  0.00000000  0.00000000       0.009
   0.00000000  0.01553104  0.00000000       0.009
   0.01517458  0.01553104  0.00000000       0.009
   0.03034916  0.01553104  0.00000000       0.009
   0.04552373  0.01553104  0.00000000       0.009
   0.06069831  0.01553104  0.00000000       0.009
   0.07587289  0.01553104  0.00000000       0.009
   0.09104747  0.01553104  0.00000000       0.009
   0.10622205  0.01553104  0.00000000       0.009
  -0.10622205  0.01553104  0.00000000       0.009
  -0.09104747  0.01553104  0.00000000       0.009
  -0.07587289  0.01553104  0.00000000       0.009
  -0.06069831  0.01553104  0.00000000       0.009
  -0.04552373  0.01553104  0.00000000       0.009
  -0.03034916  0.01553104  0.00000000       0.009
  -0.01517458  0.01553104  0.00000000       0.009
   0.00000000  0.03106209  0.00000000       0.009
   0.01517458  0.03106209  0.00000000       0.009
   0.03034916  0.03106209  0.00000000       0.009
   0.04552373  0.03106209  0.00000000       0.009
   0.06069831  0.03106209  0.00000000       0.009
   0.07587289  0.03106209  0.00000000       0.009
   0.09104747  0.03106209  0.00000000       0.009
   0.10622205  0.03106209  0.00000000       0.009
  -0.10622205  0.03106209  0.00000000       0.009
  -0.09104747  0.03106209  0.00000000       0.009
  -0.07587289  0.03106209  0.00000000       0.009
  -0.06069831  0.03106209  0.00000000       0.009
  -0.04552373  0.03106209  0.00000000       0.009
  -0.03034916  0.03106209  0.00000000       0.009
  -0.01517458  0.03106209  0.00000000       0.009
   0.00000000  0.04659313  0.00000000       0.009
   0.01517458  0.04659313  0.00000000       0.009
   0.03034916  0.04659313  0.00000000       0.009
   0.04552373  0.04659313  0.00000000       0.009
   0.06069831  0.04659313  0.00000000       0.009
   0.07587289  0.04659313  0.00000000       0.009
   0.09104747  0.04659313  0.00000000       0.009
   0.10622205  0.04659313  0.00000000       0.009
  -0.10622205  0.04659313  0.00000000       0.009
  -0.09104747  0.04659313  0.00000000       0.009
  -0.07587289  0.04659313  0.00000000       0.009
  -0.06069831  0.04659313  0.00000000       0.009
  -0.04552373  0.04659313  0.00000000       0.009
  -0.03034916  0.04659313  0.00000000       0.009
  -0.01517458  0.04659313  0.00000000       0.009
   0.00000000  0.06212418  0.00000000       0.009
   0.01517458  0.06212418  0.00000000       0.009
   0.03034916  0.06212418  0.00000000       0.009
   0.04552373  0.06212418  0.00000000       0.009
   0.06069831  0.06212418  0.00000000       0.009
   0.07587289  0.06212418  0.00000000       0.009
   0.09104747  0.06212418  0.00000000       0.009
   0.10622205  0.06212418  0.00000000       0.009
  -0.10622205  0.06212418  0.00000000       0.009
  -0.09104747  0.06212418  0.00000000       0.009
  -0.07587289  0.06212418  0.00000000       0.009
  -0.06069831  0.06212418  0.00000000       0.009
  -0.04552373  0.06212418  0.00000000       0.009
  -0.03034916  0.06212418  0.00000000       0.009
  -0.01517458  0.06212418  0.00000000       0.009
   0.00000000  0.07765522  0.00000000       0.009
   0.01517458  0.07765522  0.00000000       0.009
   0.03034916  0.07765522  0.00000000       0.009
   0.04552373  0.07765522  0.00000000       0.009
   0.06069831  0.07765522  0.00000000       0.009
   0.07587289  0.07765522  0.00000000       0.009
   0.09104747  0.07765522  0.00000000       0.009
   0.10622205  0.07765522  0.00000000       0.009
  -0.10622205  0.07765522  0.00000000       0.009
  -0.09104747  0.07765522  0.00000000       0.009
  -0.07587289  0.07765522  0.00000000       0.009
  -0.06069831  0.07765522  0.00000000       0.009
  -0.04552373  0.07765522  0.00000000       0.009
  -0.03034916  0.07765522  0.00000000       0.009
  -0.01517458  0.07765522  0.00000000       0.009
   0.00000000  0.09318627  0.00000000       0.009
   0.01517458  0.09318627  0.00000000       0.009
   0.03034916  0.09318627  0.00000000       0.009
   0.04552373  0.09318627  0.00000000       0.009
   0.06069831  0.09318627  0.00000000       0.009
   0.07587289  0.09318627  0.00000000       0.009
   0.09104747  0.09318627  0.00000000       0.009
   0.10622205  0.09318627  0.00000000       0.009
  -0.10622205  0.09318627  0.00000000       0.009
  -0.09104747  0.09318627  0.00000000       0.009
  -0.07587289  0.09318627  0.00000000       0.009
  -0.06069831  0.09318627  0.00000000       0.009
  -0.04552373  0.09318627  0.00000000       0.009
  -0.03034916  0.09318627  0.00000000       0.009
  -0.01517458  0.09318627  0.00000000       0.009
   0.00000000  0.10871731  0.00000000       0.009
   0.01517458  0.10871731  0.00000000       0.009
   0.03034916  0.10871731  0.00000000       0.009
   0.04552373  0.10871731  0.00000000       0.009
   0.06069831  0.10871731  0.00000000       0.009
   0.07587289  0.10871731  0.00000000       0.009
   0.09104747  0.10871731  0.00000000       0.009
   0.10622205  0.10871731  0.00000000       0.009
  -0.10622205  0.10871731  0.00000000       0.009
  -0.09104747  0.10871731  0.00000000       0.009
  -0.07587289  0.10871731  0.00000000       0.009
  -0.06069831  0.10871731  0.00000000       0.009
  -0.04552373  0.10871731  0.00000000       0.009
  -0.03034916  0.10871731  0.00000000       0.009
  -0.01517458  0.10871731  0.00000000       0.009
 
 k-points in reciprocal lattice and weights: KMesh Grid                              
   0.00000000  0.00000000  0.00000000       0.004
   0.06666667  0.00000000  0.00000000       0.009
   0.13333333  0.00000000  0.00000000       0.009
   0.20000000  0.00000000  0.00000000       0.009
   0.26666667  0.00000000  0.00000000       0.009
   0.33333333  0.00000000  0.00000000       0.009
   0.40000000  0.00000000  0.00000000       0.009
   0.46666667  0.00000000  0.00000000       0.009
   0.00000000  0.06666667  0.00000000       0.009
   0.06666667  0.06666667  0.00000000       0.009
   0.13333333  0.06666667  0.00000000       0.009
   0.20000000  0.06666667  0.00000000       0.009
   0.26666667  0.06666667  0.00000000       0.009
   0.33333333  0.06666667  0.00000000       0.009
   0.40000000  0.06666667  0.00000000       0.009
   0.46666667  0.06666667  0.00000000       0.009
  -0.46666667  0.06666667  0.00000000       0.009
  -0.40000000  0.06666667  0.00000000       0.009
  -0.33333333  0.06666667  0.00000000       0.009
  -0.26666667  0.06666667  0.00000000       0.009
  -0.20000000  0.06666667  0.00000000       0.009
  -0.13333333  0.06666667  0.00000000       0.009
  -0.06666667  0.06666667  0.00000000       0.009
   0.00000000  0.13333333  0.00000000       0.009
   0.06666667  0.13333333  0.00000000       0.009
   0.13333333  0.13333333  0.00000000       0.009
   0.20000000  0.13333333  0.00000000       0.009
   0.26666667  0.13333333  0.00000000       0.009
   0.33333333  0.13333333  0.00000000       0.009
   0.40000000  0.13333333  0.00000000       0.009
   0.46666667  0.13333333  0.00000000       0.009
  -0.46666667  0.13333333  0.00000000       0.009
  -0.40000000  0.13333333  0.00000000       0.009
  -0.33333333  0.13333333  0.00000000       0.009
  -0.26666667  0.13333333  0.00000000       0.009
  -0.20000000  0.13333333  0.00000000       0.009
  -0.13333333  0.13333333  0.00000000       0.009
  -0.06666667  0.13333333  0.00000000       0.009
   0.00000000  0.20000000  0.00000000       0.009
   0.06666667  0.20000000  0.00000000       0.009
   0.13333333  0.20000000  0.00000000       0.009
   0.20000000  0.20000000  0.00000000       0.009
   0.26666667  0.20000000  0.00000000       0.009
   0.33333333  0.20000000  0.00000000       0.009
   0.40000000  0.20000000  0.00000000       0.009
   0.46666667  0.20000000  0.00000000       0.009
  -0.46666667  0.20000000  0.00000000       0.009
  -0.40000000  0.20000000  0.00000000       0.009
  -0.33333333  0.20000000  0.00000000       0.009
  -0.26666667  0.20000000  0.00000000       0.009
  -0.20000000  0.20000000  0.00000000       0.009
  -0.13333333  0.20000000  0.00000000       0.009
  -0.06666667  0.20000000  0.00000000       0.009
   0.00000000  0.26666667  0.00000000       0.009
   0.06666667  0.26666667  0.00000000       0.009
   0.13333333  0.26666667  0.00000000       0.009
   0.20000000  0.26666667  0.00000000       0.009
   0.26666667  0.26666667  0.00000000       0.009
   0.33333333  0.26666667  0.00000000       0.009
   0.40000000  0.26666667  0.00000000       0.009
   0.46666667  0.26666667  0.00000000       0.009
  -0.46666667  0.26666667  0.00000000       0.009
  -0.40000000  0.26666667  0.00000000       0.009
  -0.33333333  0.26666667  0.00000000       0.009
  -0.26666667  0.26666667  0.00000000       0.009
  -0.20000000  0.26666667  0.00000000       0.009
  -0.13333333  0.26666667  0.00000000       0.009
  -0.06666667  0.26666667  0.00000000       0.009
   0.00000000  0.33333333  0.00000000       0.009
   0.06666667  0.33333333  0.00000000       0.009
   0.13333333  0.33333333  0.00000000       0.009
   0.20000000  0.33333333  0.00000000       0.009
   0.26666667  0.33333333  0.00000000       0.009
   0.33333333  0.33333333  0.00000000       0.009
   0.40000000  0.33333333  0.00000000       0.009
   0.46666667  0.33333333  0.00000000       0.009
  -0.46666667  0.33333333  0.00000000       0.009
  -0.40000000  0.33333333  0.00000000       0.009
  -0.33333333  0.33333333  0.00000000       0.009
  -0.26666667  0.33333333  0.00000000       0.009
  -0.20000000  0.33333333  0.00000000       0.009
  -0.13333333  0.33333333  0.00000000       0.009
  -0.06666667  0.33333333  0.00000000       0.009
   0.00000000  0.40000000  0.00000000       0.009
   0.06666667  0.40000000  0.00000000       0.009
   0.13333333  0.40000000  0.00000000       0.009
   0.20000000  0.40000000  0.00000000       0.009
   0.26666667  0.40000000  0.00000000       0.009
   0.33333333  0.40000000  0.00000000       0.009
   0.40000000  0.40000000  0.00000000       0.009
   0.46666667  0.40000000  0.00000000       0.009
  -0.46666667  0.40000000  0.00000000       0.009
  -0.40000000  0.40000000  0.00000000       0.009
  -0.33333333  0.40000000  0.00000000       0.009
  -0.26666667  0.40000000  0.00000000       0.009
  -0.20000000  0.40000000  0.00000000       0.009
  -0.13333333  0.40000000  0.00000000       0.009
  -0.06666667  0.40000000  0.00000000       0.009
   0.00000000  0.46666667  0.00000000       0.009
   0.06666667  0.46666667  0.00000000       0.009
   0.13333333  0.46666667  0.00000000       0.009
   0.20000000  0.46666667  0.00000000       0.009
   0.26666667  0.46666667  0.00000000       0.009
   0.33333333  0.46666667  0.00000000       0.009
   0.40000000  0.46666667  0.00000000       0.009
   0.46666667  0.46666667  0.00000000       0.009
  -0.46666667  0.46666667  0.00000000       0.009
  -0.40000000  0.46666667  0.00000000       0.009
  -0.33333333  0.46666667  0.00000000       0.009
  -0.26666667  0.46666667  0.00000000       0.009
  -0.20000000  0.46666667  0.00000000       0.009
  -0.13333333  0.46666667  0.00000000       0.009
  -0.06666667  0.46666667  0.00000000       0.009
 
 position of ions in fractional coordinates (direct lattice) 
   0.58124336  0.75000000  0.56874314
   0.08124336  0.25000000  0.43125686
   0.03286064  0.25000000  0.56707387
   0.53286061  0.75000000  0.43292613
 
 position of ions in cartesian coordinates  (Angst):
   2.55358380  3.21935839 11.37486283
   0.35692747  1.07311946  8.62513717
   0.14436708  1.07311946 11.34147733
   2.34102328  3.21935839  8.65852267
 


--------------------------------------------------------------------------------------------------------


 k-point  1 :   0.0000 0.0000 0.0000  plane waves:   12671
 k-point  2 :   0.0667 0.0000 0.0000  plane waves:   12643
 k-point  3 :   0.1333 0.0000 0.0000  plane waves:   12609
 k-point  4 :   0.2000 0.0000 0.0000  plane waves:   12575
 k-point  5 :   0.2667 0.0000 0.0000  plane waves:   12540
 k-point  6 :   0.3333 0.0000 0.0000  plane waves:   12604
 k-point  7 :   0.4000 0.0000 0.0000  plane waves:   12624
 k-point  8 :   0.4667 0.0000 0.0000  plane waves:   12606
 k-point  9 :   0.0000 0.0667 0.0000  plane waves:   12617
 k-point 10 :   0.0667 0.0667 0.0000  plane waves:   12621
 k-point 11 :   0.1333 0.0667 0.0000  plane waves:   12610
 k-point 12 :   0.2000 0.0667 0.0000  plane waves:   12574
 k-point 13 :   0.2667 0.0667 0.0000  plane waves:   12579
 k-point 14 :   0.3333 0.0667 0.0000  plane waves:   12607
 k-point 15 :   0.4000 0.0667 0.0000  plane waves:   12612
 k-point 16 :   0.4667 0.0667 0.0000  plane waves:   12625
 k-point 17 :  -0.4667 0.0667 0.0000  plane waves:   12625
 k-point 18 :  -0.4000 0.0667 0.0000  plane waves:   12612
 k-point 19 :  -0.3333 0.0667 0.0000  plane waves:   12607
 k-point 20 :  -0.2667 0.0667 0.0000  plane waves:   12579
 k-point 21 :  -0.2000 0.0667 0.0000  plane waves:   12574
 k-point 22 :  -0.1333 0.0667 0.0000  plane waves:   12610
 k-point 23 :  -0.0667 0.0667 0.0000  plane waves:   12621
 k-point 24 :   0.0000 0.1333 0.0000  plane waves:   12599
 k-point 25 :   0.0667 0.1333 0.0000  plane waves:   12604
 k-point 26 :   0.1333 0.1333 0.0000  plane waves:   12584
 k-point 27 :   0.2000 0.1333 0.0000  plane waves:   12572
 k-point 28 :   0.2667 0.1333 0.0000  plane waves:   12578
 k-point 29 :   0.3333 0.1333 0.0000  plane waves:   12604
 k-point 30 :   0.4000 0.1333 0.0000  plane waves:   12605
 k-point 31 :   0.4667 0.1333 0.0000  plane waves:   12612
 k-point 32 :  -0.4667 0.1333 0.0000  plane waves:   12612
 k-point 33 :  -0.4000 0.1333 0.0000  plane waves:   12605
 k-point 34 :  -0.3333 0.1333 0.0000  plane waves:   12604
 k-point 35 :  -0.2667 0.1333 0.0000  plane waves:   12578
 k-point 36 :  -0.2000 0.1333 0.0000  plane waves:   12572
 k-point 37 :  -0.1333 0.1333 0.0000  plane waves:   12584
 k-point 38 :  -0.0667 0.1333 0.0000  plane waves:   12604
 k-point 39 :   0.0000 0.2000 0.0000  plane waves:   12601
 k-point 40 :   0.0667 0.2000 0.0000  plane waves:   12587
 k-point 41 :   0.1333 0.2000 0.0000  plane waves:   12581
 k-point 42 :   0.2000 0.2000 0.0000  plane waves:   12593
 k-point 43 :   0.2667 0.2000 0.0000  plane waves:   12592
 k-point 44 :   0.3333 0.2000 0.0000  plane waves:   12589
 k-point 45 :   0.4000 0.2000 0.0000  plane waves:   12606
 k-point 46 :   0.4667 0.2000 0.0000  plane waves:   12615
 k-point 47 :  -0.4667 0.2000 0.0000  plane waves:   12615
 k-point 48 :  -0.4000 0.2000 0.0000  plane waves:   12606
 k-point 49 :  -0.3333 0.2000 0.0000  plane waves:   12589
 k-point 50 :  -0.2667 0.2000 0.0000  plane waves:   12592
 k-point 51 :  -0.2000 0.2000 0.0000  plane waves:   12593
 k-point 52 :  -0.1333 0.2000 0.0000  plane waves:   12581
 k-point 53 :  -0.0667 0.2000 0.0000  plane waves:   12587
 k-point 54 :   0.0000 0.2667 0.0000  plane waves:   12589
 k-point 55 :   0.0667 0.2667 0.0000  plane waves:   12582
 k-point 56 :   0.1333 0.2667 0.0000  plane waves:   12585
 k-point 57 :   0.2000 0.2667 0.0000  plane waves:   12587
 k-point 58 :   0.2667 0.2667 0.0000  plane waves:   12590
 k-point 59 :   0.3333 0.2667 0.0000  plane waves:   12594
 k-point 60 :   0.4000 0.2667 0.0000  plane waves:   12592
 k-point 61 :   0.4667 0.2667 0.0000  plane waves:   12593
 k-point 62 :  -0.4667 0.2667 0.0000  plane waves:   12593
 k-point 63 :  -0.4000 0.2667 0.0000  plane waves:   12592
 k-point 64 :  -0.3333 0.2667 0.0000  plane waves:   12594
 k-point 65 :  -0.2667 0.2667 0.0000  plane waves:   12590
 k-point 66 :  -0.2000 0.2667 0.0000  plane waves:   12587
 k-point 67 :  -0.1333 0.2667 0.0000  plane waves:   12585
 k-point 68 :  -0.0667 0.2667 0.0000  plane waves:   12582
 k-point 69 :   0.0000 0.3333 0.0000  plane waves:   12571
 k-point 70 :   0.0667 0.3333 0.0000  plane waves:   12556
 k-point 71 :   0.1333 0.3333 0.0000  plane waves:   12567
 k-point 72 :   0.2000 0.3333 0.0000  plane waves:   12583
 k-point 73 :   0.2667 0.3333 0.0000  plane waves:   12577
 k-point 74 :   0.3333 0.3333 0.0000  plane waves:   12580
 k-point 75 :   0.4000 0.3333 0.0000  plane waves:   12579
 k-point 76 :   0.4667 0.3333 0.0000  plane waves:   12595
 k-point 77 :  -0.4667 0.3333 0.0000  plane waves:   12595
 k-point 78 :  -0.4000 0.3333 0.0000  plane waves:   12579
 k-point 79 :  -0.3333 0.3333 0.0000  plane waves:   12580
 k-point 80 :  -0.2667 0.3333 0.0000  plane waves:   12577
 k-point 81 :  -0.2000 0.3333 0.0000  plane waves:   12583
 k-point 82 :  -0.1333 0.3333 0.0000  plane waves:   12567
 k-point 83 :  -0.0667 0.3333 0.0000  plane waves:   12556
 k-point 84 :   0.0000 0.4000 0.0000  plane waves:   12541
 k-point 85 :   0.0667 0.4000 0.0000  plane waves:   12554
 k-point 86 :   0.1333 0.4000 0.0000  plane waves:   12564
 k-point 87 :   0.2000 0.4000 0.0000  plane waves:   12572
 k-point 88 :   0.2667 0.4000 0.0000  plane waves:   12593
 k-point 89 :   0.3333 0.4000 0.0000  plane waves:   12565
 k-point 90 :   0.4000 0.4000 0.0000  plane waves:   12572
 k-point 91 :   0.4667 0.4000 0.0000  plane waves:   12567
 k-point 92 :  -0.4667 0.4000 0.0000  plane waves:   12567
 k-point 93 :  -0.4000 0.4000 0.0000  plane waves:   12572
 k-point 94 :  -0.3333 0.4000 0.0000  plane waves:   12565
 k-point 95 :  -0.2667 0.4000 0.0000  plane waves:   12593
 k-point 96 :  -0.2000 0.4000 0.0000  plane waves:   12572
 k-point 97 :  -0.1333 0.4000 0.0000  plane waves:   12564
 k-point 98 :  -0.0667 0.4000 0.0000  plane waves:   12554
 k-point 99 :   0.0000 0.4667 0.0000  plane waves:   12564
 k-point ** :   0.0667 0.4667 0.0000  plane waves:   12556
 k-point ** :   0.1333 0.4667 0.0000  plane waves:   12568
 k-point ** :   0.2000 0.4667 0.0000  plane waves:   12566
 k-point ** :   0.2667 0.4667 0.0000  plane waves:   12552
 k-point ** :   0.3333 0.4667 0.0000  plane waves:   12555
 k-point ** :   0.4000 0.4667 0.0000  plane waves:   12569
 k-point ** :   0.4667 0.4667 0.0000  plane waves:   12561
 k-point ** :  -0.4667 0.4667 0.0000  plane waves:   12561
 k-point ** :  -0.4000 0.4667 0.0000  plane waves:   12569
 k-point ** :  -0.3333 0.4667 0.0000  plane waves:   12555
 k-point ** :  -0.2667 0.4667 0.0000  plane waves:   12552
 k-point ** :  -0.2000 0.4667 0.0000  plane waves:   12566
 k-point ** :  -0.1333 0.4667 0.0000  plane waves:   12568
 k-point ** :  -0.0667 0.4667 0.0000  plane waves:   12556

 maximum and minimum number of plane-waves per node :       548      501

 maximum number of plane-waves:     12671
 maximum index in each direction: 
   IXMAX=    9   IYMAX=    8   IZMAX=   39
   IXMIN=   -9   IYMIN=   -9   IZMIN=  -39


 parallel 3D FFT for wavefunctions:
    minimum data exchange during FFTs selected (reduces bandwidth)
 parallel 3D FFT for charge:
    minimum data exchange during FFTs selected (reduces bandwidth)


 total amount of memory used by VASP MPI-rank0    63270. kBytes
=======================================================================

   base      :      30000. kBytes
   nonl-proj :      12491. kBytes
   fftplans  :       2678. kBytes
   grid      :       4349. kBytes
   one-center:          8. kBytes
   wavefun   :      13744. kBytes
 
     INWAV:  cpu time    0.0000: real time    0.0000
 Broyden mixing: mesh for mixing (old mesh)
   NGX = 17   NGY = 17   NGZ = 79
  (NGX  = 72   NGY  = 72   NGZ  =320)
  gives a total of  22831 points

 initial charge density was supplied:
 charge density of overlapping atoms calculated
 number of electron      20.0000000 magnetization 
 keeping initial charge density in first step


--------------------------------------------------------------------------------------------------------


 Maximum index for augmentation-charges         2216 (set IRDMAX)


--------------------------------------------------------------------------------------------------------


 First call to EWALD:  gamma=   0.245
 Maximum number of real-space cells 4x 4x 1
 Maximum number of reciprocal cells 2x 2x 7

    FEWALD:  cpu time    0.0013: real time    0.0022


--------------------------------------- Iteration      1(   1)  ---------------------------------------


    POTLOK:  cpu time    0.0507: real time    0.2472
    SETDIJ:  cpu time    0.0041: real time    0.0045
     EDDAV:  cpu time    2.3954: real time    2.4035
       DOS:  cpu time    0.0054: real time    0.0054
    --------------------------------------------
      LOOP:  cpu time    2.4556: real time    2.6606

 eigenvalue-minimisations  :  3164
 total energy-change (2. order) : 0.1443850E+03  (-0.6292706E+03)
 number of electron      20.0000000 magnetization 
 augmentation part       20.0000000 magnetization 

 Free energy of the ion-electron system (eV)
  ---------------------------------------------------
  alpha Z        PSCENC =         9.48051625
  Ewald energy   TEWEN  =      1148.71411667
  -Hartree energ DENC   =     -1750.55670093
  -exchange      EXHF   =         0.00000000
  -V(xc)+E(xc)   XCENC  =      -238.60461278
  PAW double counting   =       799.43158084     -524.17639913
  entropy T*S    EENTRO =        -0.01089881
  eigenvalues    EBANDS =        -2.32048581
  atomic energy  EATOM  =       702.42789710
  Solvation  Ediel_sol  =         0.00000000
  ---------------------------------------------------
  free energy    TOTEN  =       144.38501341 eV

  energy without entropy =      144.39591222  energy(sigma->0) =      144.39046282


--------------------------------------------------------------------------------------------------------




--------------------------------------- Iteration      1(   2)  ---------------------------------------


     EDDAV:  cpu time    3.5172: real time    3.5246
       DOS:  cpu time    0.0056: real time    0.0056
    --------------------------------------------
      LOOP:  cpu time    3.5227: real time    3.5302

 eigenvalue-minimisations  :  5258
 total energy-change (2. order) :-0.1397987E+03  (-0.1356390E+03)
 number of electron      20.0000000 magnetization 
 augmentation part       20.0000000 magnetization 

 Free energy of the ion-electron system (eV)
  ---------------------------------------------------
  alpha Z        PSCENC =         9.48051625
  Ewald energy   TEWEN  =      1148.71411667
  -Hartree energ DENC   =     -1750.55670093
  -exchange      EXHF   =         0.00000000
  -V(xc)+E(xc)   XCENC  =      -238.60461278
  PAW double counting   =       799.43158084     -524.17639913
  entropy T*S    EENTRO =        -0.00246641
  eigenvalues    EBANDS =      -142.12758732
  atomic energy  EATOM  =       702.42789710
  Solvation  Ediel_sol  =         0.00000000
  ---------------------------------------------------
  free energy    TOTEN  =         4.58634430 eV

  energy without entropy =        4.58881070  energy(sigma->0) =        4.58757750


--------------------------------------------------------------------------------------------------------




--------------------------------------- Iteration      1(   3)  ---------------------------------------


     EDDAV:  cpu time    2.8493: real time    2.8552
       DOS:  cpu time    0.0036: real time    0.0036
    --------------------------------------------
      LOOP:  cpu time    2.8529: real time    2.8588

 eigenvalue-minimisations  :  4048
 total energy-change (2. order) :-0.2059106E+02  (-0.2039273E+02)
 number of electron      20.0000000 magnetization 
 augmentation part       20.0000000 magnetization 

 Free energy of the ion-electron system (eV)
  ---------------------------------------------------
  alpha Z        PSCENC =         9.48051625
  Ewald energy   TEWEN  =      1148.71411667
  -Hartree energ DENC   =     -1750.55670093
  -exchange      EXHF   =         0.00000000
  -V(xc)+E(xc)   XCENC  =      -238.60461278
  PAW double counting   =       799.43158084     -524.17639913
  entropy T*S    EENTRO =        -0.00000000
  eigenvalues    EBANDS =      -162.72111626
  atomic energy  EATOM  =       702.42789710
  Solvation  Ediel_sol  =         0.00000000
  ---------------------------------------------------
  free energy    TOTEN  =       -16.00471823 eV

  energy without entropy =      -16.00471823  energy(sigma->0) =      -16.00471823


--------------------------------------------------------------------------------------------------------




--------------------------------------- Iteration      1(   4)  ---------------------------------------


     EDDAV:  cpu time    3.1115: real time    3.1188
       DOS:  cpu time    0.0038: real time    0.0038
    --------------------------------------------
      LOOP:  cpu time    3.1153: real time    3.1226

 eigenvalue-minimisations  :  4546
 total energy-change (2. order) :-0.7771183E+00  (-0.7749328E+00)
 number of electron      20.0000000 magnetization 
 augmentation part       20.0000000 magnetization 

 Free energy of the ion-electron system (eV)
  ---------------------------------------------------
  alpha Z        PSCENC =         9.48051625
  Ewald energy   TEWEN  =      1148.71411667
  -Hartree energ DENC   =     -1750.55670093
  -exchange      EXHF   =         0.00000000
  -V(xc)+E(xc)   XCENC  =      -238.60461278
  PAW double counting   =       799.43158084     -524.17639913
  entropy T*S    EENTRO =        -0.00000000
  eigenvalues    EBANDS =      -163.49823452
  atomic energy  EATOM  =       702.42789710
  Solvation  Ediel_sol  =         0.00000000
  ---------------------------------------------------
  free energy    TOTEN  =       -16.78183649 eV

  energy without entropy =      -16.78183649  energy(sigma->0) =      -16.78183649


--------------------------------------------------------------------------------------------------------




--------------------------------------- Iteration      1(   5)  ---------------------------------------


     EDDAV:  cpu time    2.9240: real time    2.9303
       DOS:  cpu time    0.0038: real time    0.0038
    CHARGE:  cpu time    0.2079: real time    0.2088
    MIXING:  cpu time    0.0023: real time    0.0023
    --------------------------------------------
      LOOP:  cpu time    3.1379: real time    3.1452

 eigenvalue-minimisations  :  4192
 total energy-change (2. order) :-0.1711108E-01  (-0.1710079E-01)
 number of electron      20.0000000 magnetization 
 augmentation part       -4.5223503 magnetization 

 Broyden mixing:
  rms(total) = 0.45018E+00    rms(broyden)= 0.45018E+00
  rms(prec ) = 0.49113E+00
  weight for this iteration     100.00

 Free energy of the ion-electron system (eV)
  ---------------------------------------------------
  alpha Z        PSCENC =         9.48051625
  Ewald energy   TEWEN  =      1148.71411667
  -Hartree energ DENC   =     -1750.55670093
  -exchange      EXHF   =         0.00000000
  -V(xc)+E(xc)   XCENC  =      -238.60461278
  PAW double counting   =       799.43158084     -524.17639913
  entropy T*S    EENTRO =        -0.00000000
  eigenvalues    EBANDS =      -163.51534560
  atomic energy  EATOM  =       702.42789710
  Solvation  Ediel_sol  =         0.00000000
  ---------------------------------------------------
  free energy    TOTEN  =       -16.79894758 eV

  energy without entropy =      -16.79894758  energy(sigma->0) =      -16.79894758


--------------------------------------------------------------------------------------------------------




--------------------------------------- Iteration      1(   6)  ---------------------------------------


    POTLOK:  cpu time    0.0403: real time    0.0413
    SETDIJ:  cpu time    0.0034: real time    0.0038
     EDDAV:  cpu time    2.8388: real time    2.8449
       DOS:  cpu time    0.0039: real time    0.0038
    CHARGE:  cpu time    0.2029: real time    0.2037
    MIXING:  cpu time    0.0012: real time    0.0015
    --------------------------------------------
      LOOP:  cpu time    3.0904: real time    3.0991

 eigenvalue-minimisations  :  3966
 total energy-change (2. order) : 0.4938961E+00  (-0.1264968E+00)
 number of electron      20.0000000 magnetization 
 augmentation part       -4.4896605 magnetization 

 Broyden mixing:
  rms(total) = 0.27606E+00    rms(broyden)= 0.27606E+00
  rms(prec ) = 0.28523E+00
  weight for this iteration     100.00

 eigenvalues of (default mixing * dielectric matrix)
  average eigenvalue GAMMA=   1.7884
  1.7884

 Free energy of the ion-electron system (eV)
  ---------------------------------------------------
  alpha Z        PSCENC =         9.48051625
  Ewald energy   TEWEN  =      1148.71411667
  -Hartree energ DENC   =     -1758.45092305
  -exchange      EXHF   =         0.00000000
  -V(xc)+E(xc)   XCENC  =      -238.12072567
  PAW double counting   =       923.52724723     -648.45264514
  entropy T*S    EENTRO =        -0.00000000
  eigenvalues    EBANDS =      -155.43053492
  atomic energy  EATOM  =       702.42789710
  Solvation  Ediel_sol  =         0.00000000
  ---------------------------------------------------
  free energy    TOTEN  =       -16.30505152 eV

  energy without entropy =      -16.30505152  energy(sigma->0) =      -16.30505152


--------------------------------------------------------------------------------------------------------




--------------------------------------- Iteration      1(   7)  ---------------------------------------


    POTLOK:  cpu time    0.0383: real time    0.0384
    SETDIJ:  cpu time    0.0051: real time    0.0051
     EDDAV:  cpu time    2.8528: real time    2.8593
       DOS:  cpu time    0.0038: real time    0.0038
    CHARGE:  cpu time    0.2026: real time    0.2029
    MIXING:  cpu time    0.0012: real time    0.0015
    --------------------------------------------
      LOOP:  cpu time    3.1038: real time    3.1109

 eigenvalue-minimisations  :  4046
 total energy-change (2. order) : 0.2731342E-01  (-0.3087355E-01)
 number of electron      20.0000000 magnetization 
 augmentation part       -4.4816459 magnetization 

 Broyden mixing:
  rms(total) = 0.10518E+00    rms(broyden)= 0.10518E+00
  rms(prec ) = 0.11056E+00
  weight for this iteration     100.00

 eigenvalues of (default mixing * dielectric matrix)
  average eigenvalue GAMMA=   1.7287
  1.3669  2.0905

 Free energy of the ion-electron system (eV)
  ---------------------------------------------------
  alpha Z        PSCENC =         9.48051625
  Ewald energy   TEWEN  =      1148.71411667
  -Hartree energ DENC   =     -1763.42296174
  -exchange      EXHF   =         0.00000000
  -V(xc)+E(xc)   XCENC  =      -237.79948332
  PAW double counting   =      1063.18443303     -788.24589084
  entropy T*S    EENTRO =        -0.00000000
  eigenvalues    EBANDS =      -150.61636527
  atomic energy  EATOM  =       702.42789710
  Solvation  Ediel_sol  =         0.00000000
  ---------------------------------------------------
  free energy    TOTEN  =       -16.27773811 eV

  energy without entropy =      -16.27773811  energy(sigma->0) =      -16.27773811


--------------------------------------------------------------------------------------------------------




--------------------------------------- Iteration      1(   8)  ---------------------------------------


    POTLOK:  cpu time    0.0384: real time    0.0385
    SETDIJ:  cpu time    0.0038: real time    0.0038
     EDDAV:  cpu time    3.0967: real time    3.1036
       DOS:  cpu time    0.0039: real time    0.0039
    CHARGE:  cpu time    0.2025: real time    0.2028
    MIXING:  cpu time    0.0012: real time    0.0012
    --------------------------------------------
      LOOP:  cpu time    3.3466: real time    3.3539

 eigenvalue-minimisations  :  4520
 total energy-change (2. order) : 0.9490680E-02  (-0.3707889E-02)
 number of electron      20.0000000 magnetization 
 augmentation part       -4.4858062 magnetization 

 Broyden mixing:
  rms(total) = 0.20328E-01    rms(broyden)= 0.20328E-01
  rms(prec ) = 0.27755E-01
  weight for this iteration     100.00

 eigenvalues of (default mixing * dielectric matrix)
  average eigenvalue GAMMA=   1.7046
  2.5286  1.2926  1.2926

 Free energy of the ion-electron system (eV)
  ---------------------------------------------------
  alpha Z        PSCENC =         9.48051625
  Ewald energy   TEWEN  =      1148.71411667
  -Hartree energ DENC   =     -1765.14861573
  -exchange      EXHF   =         0.00000000
  -V(xc)+E(xc)   XCENC  =      -237.71863474
  PAW double counting   =      1129.39580790     -854.49620496
  entropy T*S    EENTRO =        -0.00000000
  eigenvalues    EBANDS =      -148.92312993
  atomic energy  EATOM  =       702.42789710
  Solvation  Ediel_sol  =         0.00000000
  ---------------------------------------------------
  free energy    TOTEN  =       -16.26824743 eV

  energy without entropy =      -16.26824743  energy(sigma->0) =      -16.26824743


--------------------------------------------------------------------------------------------------------




--------------------------------------- Iteration      1(   9)  ---------------------------------------


    POTLOK:  cpu time    0.0382: real time    0.0384
    SETDIJ:  cpu time    0.0033: real time    0.0033
     EDDAV:  cpu time    2.9841: real time    2.9906
       DOS:  cpu time    0.0039: real time    0.0039
    CHARGE:  cpu time    0.2012: real time    0.2015
    MIXING:  cpu time    0.0013: real time    0.0013
    --------------------------------------------
      LOOP:  cpu time    3.2319: real time    3.2389

 eigenvalue-minimisations  :  4322
 total energy-change (2. order) : 0.3716554E-02  (-0.6405124E-03)
 number of electron      20.0000000 magnetization 
 augmentation part       -4.4839664 magnetization 

 Broyden mixing:
  rms(total) = 0.10105E-01    rms(broyden)= 0.10105E-01
  rms(prec ) = 0.15643E-01
  weight for this iteration     100.00

 eigenvalues of (default mixing * dielectric matrix)
  average eigenvalue GAMMA=   1.6901
  2.1945  2.1945  1.1857  1.1857

 Free energy of the ion-electron system (eV)
  ---------------------------------------------------
  alpha Z        PSCENC =         9.48051625
  Ewald energy   TEWEN  =      1148.71411667
  -Hartree energ DENC   =     -1767.11977423
  -exchange      EXHF   =         0.00000000
  -V(xc)+E(xc)   XCENC  =      -237.64580981
  PAW double counting   =      1147.43613010     -872.54824128
  entropy T*S    EENTRO =        -0.00000000
  eigenvalues    EBANDS =      -147.00936568
  atomic energy  EATOM  =       702.42789710
  Solvation  Ediel_sol  =         0.00000000
  ---------------------------------------------------
  free energy    TOTEN  =       -16.26453087 eV

  energy without entropy =      -16.26453087  energy(sigma->0) =      -16.26453087


--------------------------------------------------------------------------------------------------------




--------------------------------------- Iteration      1(  10)  ---------------------------------------


    POTLOK:  cpu time    0.0384: real time    0.0386
    SETDIJ:  cpu time    0.0034: real time    0.0033
     EDDAV:  cpu time    3.0168: real time    3.0234
       DOS:  cpu time    0.0039: real time    0.0039
    CHARGE:  cpu time    0.2023: real time    0.2026
    MIXING:  cpu time    0.0013: real time    0.0013
    --------------------------------------------
      LOOP:  cpu time    3.2661: real time    3.2731

 eigenvalue-minimisations  :  4370
 total energy-change (2. order) : 0.1225324E-02  (-0.1106613E-03)
 number of electron      20.0000000 magnetization 
 augmentation part       -4.4827151 magnetization 

 Broyden mixing:
  rms(total) = 0.50499E-02    rms(broyden)= 0.50499E-02
  rms(prec ) = 0.94579E-02
  weight for this iteration     100.00

 eigenvalues of (default mixing * dielectric matrix)
  average eigenvalue GAMMA=   1.8641
  3.3442  2.5964  1.2365  1.2365  0.9067

 Free energy of the ion-electron system (eV)
  ---------------------------------------------------
  alpha Z        PSCENC =         9.48051625
  Ewald energy   TEWEN  =      1148.71411667
  -Hartree energ DENC   =     -1768.34139339
  -exchange      EXHF   =         0.00000000
  -V(xc)+E(xc)   XCENC  =      -237.63492005
  PAW double counting   =      1137.34892888     -862.45137164
  entropy T*S    EENTRO =        -0.00000000
  eigenvalues    EBANDS =      -145.80707937
  atomic energy  EATOM  =       702.42789710
  Solvation  Ediel_sol  =         0.00000000
  ---------------------------------------------------
  free energy    TOTEN  =       -16.26330555 eV

  energy without entropy =      -16.26330555  energy(sigma->0) =      -16.26330555


--------------------------------------------------------------------------------------------------------




--------------------------------------- Iteration      1(  11)  ---------------------------------------


    POTLOK:  cpu time    0.0385: real time    0.0387
    SETDIJ:  cpu time    0.0033: real time    0.0033
     EDDAV:  cpu time    2.9887: real time    2.9950
       DOS:  cpu time    0.0040: real time    0.0040
    CHARGE:  cpu time    0.2018: real time    0.2020
    MIXING:  cpu time    0.0014: real time    0.0014
    --------------------------------------------
      LOOP:  cpu time    3.2376: real time    3.2443

 eigenvalue-minimisations  :  4310
 total energy-change (2. order) : 0.7762662E-03  (-0.1331342E-03)
 number of electron      20.0000000 magnetization 
 augmentation part       -4.4813067 magnetization 

 Broyden mixing:
  rms(total) = 0.32919E-02    rms(broyden)= 0.32919E-02
  rms(prec ) = 0.50160E-02
  weight for this iteration     100.00

 eigenvalues of (default mixing * dielectric matrix)
  average eigenvalue GAMMA=   1.8210
  3.3898  2.3402  1.9381  1.1906  1.1906  0.8766

 Free energy of the ion-electron system (eV)
  ---------------------------------------------------
  alpha Z        PSCENC =         9.48051625
  Ewald energy   TEWEN  =      1148.71411667
  -Hartree energ DENC   =     -1769.98216378
  -exchange      EXHF   =         0.00000000
  -V(xc)+E(xc)   XCENC  =      -237.60331797
  PAW double counting   =      1138.36767077     -863.46860675
  entropy T*S    EENTRO =        -0.00000000
  eigenvalues    EBANDS =      -144.19864158
  atomic energy  EATOM  =       702.42789710
  Solvation  Ediel_sol  =         0.00000000
  ---------------------------------------------------
  free energy    TOTEN  =       -16.26252928 eV

  energy without entropy =      -16.26252928  energy(sigma->0) =      -16.26252928


--------------------------------------------------------------------------------------------------------




--------------------------------------- Iteration      1(  12)  ---------------------------------------


    POTLOK:  cpu time    0.0388: real time    0.0390
    SETDIJ:  cpu time    0.0032: real time    0.0032
     EDDAV:  cpu time    2.6376: real time    2.6431
       DOS:  cpu time    0.0038: real time    0.0038
    CHARGE:  cpu time    0.2022: real time    0.2025
    MIXING:  cpu time    0.0014: real time    0.0014
    --------------------------------------------
      LOOP:  cpu time    2.8870: real time    2.8930

 eigenvalue-minimisations  :  3638
 total energy-change (2. order) :-0.7937400E-03  (-0.2780511E-04)
 number of electron      20.0000000 magnetization 
 augmentation part       -4.4807031 magnetization 

 Broyden mixing:
  rms(total) = 0.18302E-02    rms(broyden)= 0.18302E-02
  rms(prec ) = 0.28454E-02
  weight for this iteration     100.00

 eigenvalues of (default mixing * dielectric matrix)
  average eigenvalue GAMMA=   2.0643
  4.6037  3.0712  2.4956  1.2027  1.2027  1.0285  0.8459

 Free energy of the ion-electron system (eV)
  ---------------------------------------------------
  alpha Z        PSCENC =         9.48051625
  Ewald energy   TEWEN  =      1148.71411667
  -Hartree energ DENC   =     -1770.59842774
  -exchange      EXHF   =         0.00000000
  -V(xc)+E(xc)   XCENC  =      -237.59382722
  PAW double counting   =      1140.25772745     -865.36134832
  entropy T*S    EENTRO =        -0.00000000
  eigenvalues    EBANDS =      -143.58997721
  atomic energy  EATOM  =       702.42789710
  Solvation  Ediel_sol  =         0.00000000
  ---------------------------------------------------
  free energy    TOTEN  =       -16.26332302 eV

  energy without entropy =      -16.26332302  energy(sigma->0) =      -16.26332302


--------------------------------------------------------------------------------------------------------




--------------------------------------- Iteration      1(  13)  ---------------------------------------


    POTLOK:  cpu time    0.0394: real time    0.0396
    SETDIJ:  cpu time    0.0033: real time    0.0033
     EDDAV:  cpu time    2.6889: real time    2.6947
       DOS:  cpu time    0.0039: real time    0.0039
    CHARGE:  cpu time    0.2022: real time    0.2024
    MIXING:  cpu time    0.0014: real time    0.0014
    --------------------------------------------
      LOOP:  cpu time    2.9390: real time    2.9453

 eigenvalue-minimisations  :  3740
 total energy-change (2. order) :-0.4570906E-03  (-0.8246771E-05)
 number of electron      20.0000000 magnetization 
 augmentation part       -4.4804739 magnetization 

 Broyden mixing:
  rms(total) = 0.11188E-02    rms(broyden)= 0.11188E-02
  rms(prec ) = 0.15000E-02
  weight for this iteration     100.00

 eigenvalues of (default mixing * dielectric matrix)
  average eigenvalue GAMMA=   2.2300
  5.5833  3.3266  2.5220  2.1173  1.1565  1.1565  1.0720  0.9060

 Free energy of the ion-electron system (eV)
  ---------------------------------------------------
  alpha Z        PSCENC =         9.48051625
  Ewald energy   TEWEN  =      1148.71411667
  -Hartree energ DENC   =     -1771.03276095
  -exchange      EXHF   =         0.00000000
  -V(xc)+E(xc)   XCENC  =      -237.59228379
  PAW double counting   =      1139.02974262     -864.13217657
  entropy T*S    EENTRO =        -0.00000000
  eigenvalues    EBANDS =      -143.15883146
  atomic energy  EATOM  =       702.42789710
  Solvation  Ediel_sol  =         0.00000000
  ---------------------------------------------------
  free energy    TOTEN  =       -16.26378011 eV

  energy without entropy =      -16.26378011  energy(sigma->0) =      -16.26378011


--------------------------------------------------------------------------------------------------------




--------------------------------------- Iteration      1(  14)  ---------------------------------------


    POTLOK:  cpu time    0.0400: real time    0.0402
    SETDIJ:  cpu time    0.0034: real time    0.0034
     EDDAV:  cpu time    2.7660: real time    2.7720
       DOS:  cpu time    0.0038: real time    0.0038
    CHARGE:  cpu time    0.2019: real time    0.2022
    MIXING:  cpu time    0.0015: real time    0.0015
    --------------------------------------------
      LOOP:  cpu time    3.0168: real time    3.0232

 eigenvalue-minimisations  :  3896
 total energy-change (2. order) :-0.2675349E-03  (-0.4086933E-05)
 number of electron      20.0000000 magnetization 
 augmentation part       -4.4804417 magnetization 

 Broyden mixing:
  rms(total) = 0.40244E-03    rms(broyden)= 0.40244E-03
  rms(prec ) = 0.61819E-03
  weight for this iteration     100.00

 eigenvalues of (default mixing * dielectric matrix)
  average eigenvalue GAMMA=   2.2413
  6.7404  3.0793  2.5277  2.5277  1.1803  1.1803  1.0607  0.9377  0.9377

 Free energy of the ion-electron system (eV)
  ---------------------------------------------------
  alpha Z        PSCENC =         9.48051625
  Ewald energy   TEWEN  =      1148.71411667
  -Hartree energ DENC   =     -1771.24278212
  -exchange      EXHF   =         0.00000000
  -V(xc)+E(xc)   XCENC  =      -237.59209051
  PAW double counting   =      1139.33363829     -864.43560352
  entropy T*S    EENTRO =        -0.00000000
  eigenvalues    EBANDS =      -142.94973982
  atomic energy  EATOM  =       702.42789710
  Solvation  Ediel_sol  =         0.00000000
  ---------------------------------------------------
  free energy    TOTEN  =       -16.26404765 eV

  energy without entropy =      -16.26404765  energy(sigma->0) =      -16.26404765


--------------------------------------------------------------------------------------------------------




--------------------------------------- Iteration      1(  15)  ---------------------------------------


    POTLOK:  cpu time    0.0402: real time    0.0404
    SETDIJ:  cpu time    0.0032: real time    0.0032
     EDDAV:  cpu time    2.7236: real time    2.7295
       DOS:  cpu time    0.0038: real time    0.0038
    CHARGE:  cpu time    0.2023: real time    0.2026
    MIXING:  cpu time    0.0015: real time    0.0015
    --------------------------------------------
      LOOP:  cpu time    2.9747: real time    2.9811

 eigenvalue-minimisations  :  3794
 total energy-change (2. order) :-0.5475893E-04  (-0.1921865E-06)
 number of electron      20.0000000 magnetization 
 augmentation part       -4.4804577 magnetization 

 Broyden mixing:
  rms(total) = 0.31645E-03    rms(broyden)= 0.31645E-03
  rms(prec ) = 0.49490E-03
  weight for this iteration     100.00

 eigenvalues of (default mixing * dielectric matrix)
  average eigenvalue GAMMA=   2.3517
  6.5428  4.2532  2.6999  2.6999  1.9678  1.1416  1.1416  1.2017  0.9343  0.9343

 Free energy of the ion-electron system (eV)
  ---------------------------------------------------
  alpha Z        PSCENC =         9.48051625
  Ewald energy   TEWEN  =      1148.71411667
  -Hartree energ DENC   =     -1771.25764253
  -exchange      EXHF   =         0.00000000
  -V(xc)+E(xc)   XCENC  =      -237.59245845
  PAW double counting   =      1139.12822594     -864.23003038
  entropy T*S    EENTRO =        -0.00000000
  eigenvalues    EBANDS =      -142.93472700
  atomic energy  EATOM  =       702.42789710
  Solvation  Ediel_sol  =         0.00000000
  ---------------------------------------------------
  free energy    TOTEN  =       -16.26410241 eV

  energy without entropy =      -16.26410241  energy(sigma->0) =      -16.26410241


--------------------------------------------------------------------------------------------------------




--------------------------------------- Iteration      1(  16)  ---------------------------------------


    POTLOK:  cpu time    0.0390: real time    0.0392
    SETDIJ:  cpu time    0.0032: real time    0.0033
     EDDAV:  cpu time    2.5733: real time    2.5787
       DOS:  cpu time    0.0039: real time    0.0039
    CHARGE:  cpu time    0.2020: real time    0.2023
    MIXING:  cpu time    0.0016: real time    0.0016
    --------------------------------------------
      LOOP:  cpu time    2.8231: real time    2.8290

 eigenvalue-minimisations  :  3528
 total energy-change (2. order) :-0.4801595E-04  (-0.8355863E-06)
 number of electron      20.0000000 magnetization 
 augmentation part       -4.4804735 magnetization 

 Broyden mixing:
  rms(total) = 0.13102E-03    rms(broyden)= 0.13102E-03
  rms(prec ) = 0.23009E-03
  weight for this iteration     100.00

 eigenvalues of (default mixing * dielectric matrix)
  average eigenvalue GAMMA=   2.2784
  6.8018  4.4886  2.6529  2.6529  2.2519  1.1550  1.1550  1.1817  0.9301  0.9301
  0.8622

 Free energy of the ion-electron system (eV)
  ---------------------------------------------------
  alpha Z        PSCENC =         9.48051625
  Ewald energy   TEWEN  =      1148.71411667
  -Hartree energ DENC   =     -1771.30919491
  -exchange      EXHF   =         0.00000000
  -V(xc)+E(xc)   XCENC  =      -237.59259009
  PAW double counting   =      1138.96801756     -864.06979373
  entropy T*S    EENTRO =        -0.00000000
  eigenvalues    EBANDS =      -142.88311928
  atomic energy  EATOM  =       702.42789710
  Solvation  Ediel_sol  =         0.00000000
  ---------------------------------------------------
  free energy    TOTEN  =       -16.26415042 eV

  energy without entropy =      -16.26415042  energy(sigma->0) =      -16.26415042


--------------------------------------------------------------------------------------------------------




--------------------------------------- Iteration      1(  17)  ---------------------------------------


    POTLOK:  cpu time    0.0409: real time    0.0410
    SETDIJ:  cpu time    0.0033: real time    0.0033
     EDDAV:  cpu time    2.4241: real time    2.4294
       DOS:  cpu time    0.0038: real time    0.0038
    CHARGE:  cpu time    0.2030: real time    0.2034
    MIXING:  cpu time    0.0017: real time    0.0017
    --------------------------------------------
[...]
  band No.  band energies     occupation 
      1     -14.5663      2.00000
      2     -14.3136      2.00000
      3      -8.8414      2.00000
      4      -8.6189      2.00000
      5      -6.0726      2.00000
      6      -5.1234      2.00000
      7      -4.8403      2.00000
      8      -4.1078      2.00000
      9      -3.8668      2.00000
     10      -3.0965      2.00000
     11       0.1060      0.00000
     12       1.0568      0.00000
     13       1.1479      0.00000
     14       1.5603      0.00000

 k-point    96 :      -0.2000    0.4000    0.0000
  band No.  band energies     occupation 
      1     -14.6346      2.00000
      2     -14.3353      2.00000
      3      -9.0025      2.00000
      4      -8.7189      2.00000
      5      -5.6420      2.00000
      6      -4.8424      2.00000
      7      -4.5681      2.00000
      8      -3.9737      2.00000
      9      -3.5091      2.00000
     10      -2.7294      2.00000
     11      -0.3652      0.00000
     12       0.5356      0.00000
     13       0.7000      0.00000
     14       1.2094      0.00000

 k-point    97 :      -0.1333    0.4000    0.0000
  band No.  band energies     occupation 
      1     -14.6893      2.00000
      2     -14.3570      2.00000
      3      -9.1276      2.00000
      4      -8.8014      2.00000
      5      -5.1317      2.00000
      6      -4.7798      2.00000
      7      -4.1600      2.00000
      8      -3.9291      2.00000
      9      -2.9567      2.00000
     10      -2.5099      2.00000
     11      -0.6384      0.00000
     12      -0.1874      0.00000
     13       0.4841      0.00000
     14       0.7721      0.00000

 k-point    98 :      -0.0667    0.4000    0.0000
  band No.  band energies     occupation 
      1     -14.7244      2.00000
      2     -14.3727      2.00000
      3      -9.2060      2.00000
      4      -8.8550      2.00000
      5      -4.7828      2.00000
      6      -4.6044      2.00000
      7      -3.9563      2.00000
      8      -3.7588      2.00000
      9      -2.6739      2.00000
     10      -2.3957      2.00000
     11      -0.7760      0.00000
     12      -0.3953      0.00000
     13       0.2175      0.00000
     14       0.3676      0.00000

 k-point    99 :       0.0000    0.4667    0.0000
  band No.  band energies     occupation 
      1     -14.5929      2.00000
      2     -14.4697      2.00000
      3      -9.2166      2.00000
      4      -9.0932      2.00000
      5      -4.5456      2.00000
      6      -4.3308      2.00000
      7      -3.8759      2.00000
      8      -3.6838      2.00000
      9      -2.5875      2.00000
     10      -2.2537      2.00000
     11      -0.9135      0.00000
     12      -0.4815      0.00000
     13      -0.0777      0.00000
     14       0.1199      0.00000

 k-point   100 :       0.0667    0.4667    0.0000
  band No.  band energies     occupation 
      1     -14.5829      2.00000
      2     -14.4620      2.00000
      3      -9.1893      2.00000
      4      -9.0687      2.00000
      5      -4.5603      2.00000
      6      -4.4460      2.00000
      7      -4.0196      2.00000
      8      -3.8888      2.00000
      9      -2.5065      2.00000
     10      -2.4073      2.00000
     11      -0.8178      0.00000
     12      -0.7064      0.00000
     13       0.2752      0.00000
     14       0.5790      0.00000

 k-point   101 :       0.1333    0.4667    0.0000
  band No.  band energies     occupation 
      1     -14.5543      2.00000
      2     -14.4401      2.00000
      3      -9.1083      2.00000
      4      -8.9962      2.00000
      5      -4.8554      2.00000
      6      -4.6719      2.00000
      7      -4.2524      2.00000
      8      -4.1323      2.00000
      9      -2.8645      2.00000
     10      -2.6602      2.00000
     11      -0.5679      0.00000
     12      -0.3384      0.00000
     13       0.7832      0.00000
     14       0.8740      0.00000

 k-point   102 :       0.2000    0.4667    0.0000
  band No.  band energies     occupation 
      1     -14.5107      2.00000
      2     -14.4079      2.00000
      3      -8.9775      2.00000
      4      -8.8804      2.00000
      5      -5.3630      2.00000
      6      -5.0412      2.00000
      7      -4.4438      2.00000
      8      -4.2103      2.00000
      9      -3.3684      2.00000
     10      -3.0729      2.00000
     11      -0.0478      0.00000
     12       0.3090      0.00000
     13       1.0017      0.00000
     14       1.2257      0.00000

 k-point   103 :       0.2667    0.4667    0.0000
  band No.  band energies     occupation 
      1     -14.4580      2.00000
      2     -14.3713      2.00000
      3      -8.8054      2.00000
      4      -8.7300      2.00000
      5      -5.8322      2.00000
      6      -5.4929      2.00000
      7      -4.6419      2.00000
      8      -4.3800      2.00000
      9      -3.7021      2.00000
     10      -3.4323      2.00000
     11       0.4682      0.00000
     12       0.8267      0.00000
     13       1.3935      0.00000
     14       1.6361      0.00000

 k-point   104 :       0.3333    0.4667    0.0000
  band No.  band energies     occupation 
      1     -14.4037      2.00000
      2     -14.3377      2.00000
      3      -8.6089      2.00000
      4      -8.5609      2.00000
      5      -6.2151      2.00000
      6      -5.9053      2.00000
      7      -4.9376      2.00000
      8      -4.6792      2.00000
      9      -3.8094      2.00000
     10      -3.6130      2.00000
     11       0.8184      0.00000
     12       1.0926      0.00000
     13       1.9400      0.00000
     14       2.2071      0.00000

 k-point   105 :       0.4000    0.4667    0.0000
  band No.  band energies     occupation 
      1     -14.3563      2.00000
      2     -14.3148      2.00000
      3      -8.4215      2.00000
      4      -8.4012      2.00000
      5      -6.4775      2.00000
      6      -6.2494      2.00000
      7      -5.1898      2.00000
      8      -4.9972      2.00000
      9      -3.8046      2.00000
     10      -3.6854      2.00000
     11       1.0544      0.00000
     12       1.2250      0.00000
     13       2.4292      0.00000
     14       2.6542      0.00000

 k-point   106 :       0.4667    0.4667    0.0000
  band No.  band energies     occupation 
      1     -14.3230      2.00000
      2     -14.3089      2.00000
      3      -8.2999      2.00000
      4      -8.2964      2.00000
      5      -6.5791      2.00000
      6      -6.4928      2.00000
      7      -5.2940      2.00000
      8      -5.2224      2.00000
      9      -3.7679      2.00000
     10      -3.7277      2.00000
     11       1.2064      0.00000
     12       1.2644      0.00000
     13       2.6795      0.00000
     14       2.7971      0.00000

 k-point   107 :      -0.4667    0.4667    0.0000
  band No.  band energies     occupation 
      1     -14.3230      2.00000
      2     -14.3089      2.00000
      3      -8.2999      2.00000
      4      -8.2964      2.00000
      5      -6.5791      2.00000
      6      -6.4928      2.00000
      7      -5.2940      2.00000
      8      -5.2224      2.00000
      9      -3.7679      2.00000
     10      -3.7277      2.00000
     11       1.2064      0.00000
     12       1.2644      0.00000
     13       2.6795      0.00000
     14       2.7971      0.00000

 k-point   108 :      -0.4000    0.4667    0.0000
  band No.  band energies     occupation 
      1     -14.3563      2.00000
      2     -14.3148      2.00000
      3      -8.4215      2.00000
      4      -8.4012      2.00000
      5      -6.4775      2.00000
      6      -6.2494      2.00000
      7      -5.1898      2.00000
      8      -4.9972      2.00000
      9      -3.8046      2.00000
     10      -3.6854      2.00000
     11       1.0544      0.00000
     12       1.2250      0.00000
     13       2.4292      0.00000
     14       2.6542      0.00000

 k-point   109 :      -0.3333    0.4667    0.0000
  band No.  band energies     occupation 
      1     -14.4037      2.00000
      2     -14.3377      2.00000
      3      -8.6089      2.00000
      4      -8.5609      2.00000
      5      -6.2151      2.00000
      6      -5.9053      2.00000
      7      -4.9376      2.00000
      8      -4.6792      2.00000
      9      -3.8094      2.00000
     10      -3.6130      2.00000
     11       0.8184      0.00000
     12       1.0926      0.00000
     13       1.9400      0.00000
     14       2.2071      0.00000

 k-point   110 :      -0.2667    0.4667    0.0000
  band No.  band energies     occupation 
      1     -14.4580      2.00000
      2     -14.3713      2.00000
      3      -8.8054      2.00000
      4      -8.7300      2.00000
      5      -5.8322      2.00000
      6      -5.4929      2.00000
      7      -4.6419      2.00000
      8      -4.3800      2.00000
      9      -3.7021      2.00000
     10      -3.4323      2.00000
     11       0.4682      0.00000
     12       0.8267      0.00000
     13       1.3935      0.00000
     14       1.6361      0.00000

 k-point   111 :      -0.2000    0.4667    0.0000
  band No.  band energies     occupation 
      1     -14.5107      2.00000
      2     -14.4079      2.00000
      3      -8.9775      2.00000
      4      -8.8804      2.00000
      5      -5.3630      2.00000
      6      -5.0412      2.00000
      7      -4.4438      2.00000
      8      -4.2103      2.00000
      9      -3.3684      2.00000
     10      -3.0729      2.00000
     11      -0.0478      0.00000
     12       0.3090      0.00000
     13       1.0017      0.00000
     14       1.2257      0.00000

 k-point   112 :      -0.1333    0.4667    0.0000
  band No.  band energies     occupation 
      1     -14.5543      2.00000
      2     -14.4401      2.00000
      3      -9.1083      2.00000
      4      -8.9962      2.00000
      5      -4.8554      2.00000
      6      -4.6719      2.00000
      7      -4.2524      2.00000
      8      -4.1323      2.00000
      9      -2.8645      2.00000
     10      -2.6602      2.00000
     11      -0.5679      0.00000
     12      -0.3384      0.00000
     13       0.7832      0.00000
     14       0.8740      0.00000

 k-point   113 :      -0.0667    0.4667    0.0000
  band No.  band energies     occupation 
      1     -14.5829      2.00000
      2     -14.4620      2.00000
      3      -9.1893      2.00000
      4      -9.0687      2.00000
      5      -4.5603      2.00000
      6      -4.4460      2.00000
      7      -4.0196      2.00000
      8      -3.8888      2.00000
      9      -2.5065      2.00000
     10      -2.4073      2.00000
     11      -0.8178      0.00000
     12      -0.7064      0.00000
     13       0.2752      0.00000
     14       0.5790      0.00000


--------------------------------------------------------------------------------------------------------


 soft charge-density along one line, spin component           1
         0         1         2         3         4         5         6         7         8         9
 total charge-density along one line
 
 pseudopotential strength for first ion, spin component:           1
 30.090 -23.438   0.000  -0.089   0.036   0.000  -0.141   0.057
-23.438  28.119  -0.000   0.051  -0.020  -0.000   0.082  -0.032
  0.000  -0.000   6.333   0.000  -0.000   9.797   0.000  -0.000
 -0.089   0.051   0.000   6.330   0.002   0.000   9.793   0.003
  0.036  -0.020  -0.000   0.002   6.332  -0.000   0.003   9.796
  0.000  -0.000   9.797   0.000  -0.000  15.227   0.000  -0.000
 -0.141   0.082   0.000   9.793   0.003   0.000  15.220   0.004
  0.057  -0.032  -0.000   0.003   9.796  -0.000   0.004  15.226
 -0.000   0.000   0.007  -0.000   0.000   0.011  -0.000   0.000
  0.000  -0.000  -0.020   0.000  -0.000  -0.031   0.000  -0.000
 -0.003   0.004  -0.000  -0.023  -0.004  -0.000  -0.035  -0.007
  0.003  -0.002  -0.000   0.009  -0.020  -0.000   0.013  -0.031
 -0.000   0.000  -0.000  -0.000   0.009  -0.000  -0.000   0.013
 total augmentation occupancy for first ion, spin component:           1
  2.024  -0.015  -0.000   0.238  -0.091  -0.000  -0.042   0.017   0.000   0.000   0.022   0.002  -0.000
 -0.015   0.009   0.000  -0.073   0.028  -0.000   0.019  -0.007   0.000   0.000  -0.002   0.001  -0.000
 -0.000   0.000   1.507  -0.000   0.000  -0.405  -0.000  -0.000   0.128  -0.043  -0.000  -0.000   0.000
  0.238  -0.073  -0.000   1.841   0.001  -0.000  -0.485  -0.015  -0.000  -0.000  -0.267  -0.019  -0.001
 -0.091   0.028   0.000   0.001   1.489  -0.000  -0.015  -0.394   0.000  -0.000  -0.082  -0.046  -0.006
 -0.000  -0.000  -0.405  -0.000  -0.000   0.118   0.000   0.000  -0.034   0.012   0.000   0.000  -0.000
 -0.042   0.019  -0.000  -0.485  -0.015   0.000   0.140   0.008   0.000   0.000   0.074   0.005   0.000
  0.017  -0.007  -0.000  -0.015  -0.394   0.000   0.008   0.113  -0.000   0.000   0.022   0.013   0.002
  0.000   0.000   0.128  -0.000   0.000  -0.034   0.000  -0.000   0.076   0.000  -0.000   0.000   0.000
  0.000   0.000  -0.043  -0.000  -0.000   0.012   0.000   0.000   0.000   0.021   0.000   0.000  -0.000
  0.022  -0.002  -0.000  -0.267  -0.082   0.000   0.074   0.022  -0.000   0.000   0.077   0.006   0.002
  0.002   0.001  -0.000  -0.019  -0.046   0.000   0.005   0.013   0.000   0.000   0.006   0.022   0.001
 -0.000  -0.000   0.000  -0.001  -0.006  -0.000   0.000   0.002   0.000  -0.000   0.002   0.001   0.017


------------------------ aborting loop because EDIFF is reached ----------------------------------------


    CHARGE:  cpu time    0.2002: real time    0.2005
    FORLOC:  cpu time    0.0021: real time    0.0021
    FORNL :  cpu time    0.3749: real time    0.3753
    STRESS:  cpu time    0.6535: real time    0.6544
    FORCOR:  cpu time    0.0398: real time    0.0399
    FORHAR:  cpu time    0.0100: real time    0.0100
    MIXING:  cpu time    0.0009: real time    0.0009
    OFIELD:  cpu time    0.0000: real time    0.0000

  FORCE on cell =-STRESS in cart. coord.  units (eV):
  Direction    XX          YY          ZZ          XY          YZ          ZX
  --------------------------------------------------------------------------------------
  Alpha Z     9.48052     9.48052     9.48052
  Ewald    1601.94011  1606.69109 -2059.35555     0.00000    -0.00000     0.00043
  Hartree  1723.23447  1725.03323 -1676.41315     0.00000     0.00000     0.00008
  E(xc)     -77.65377   -77.66869   -78.87508    -0.00000     0.00000    -0.00000
  Local   -3577.89212 -3583.83656  3480.96194    -0.00000     0.00000    -0.00047
  n-local   162.48627   162.68441   167.19992     0.00000    -0.00000     0.00004
  augment   -31.87577   -31.81613   -32.80308    -0.00000    -0.00000     0.00000
  Kinetic   190.21057   189.37911   189.80261    -0.00000     0.00000    -0.00008
  Fock        0.00000     0.00000     0.00000     0.00000     0.00000     0.00000
  -------------------------------------------------------------------------------------
  Total      -0.06973    -0.05302    -0.00187     0.00000     0.00000     0.00001
  in kB      -0.29620    -0.22523    -0.00794     0.00000     0.00000     0.00003
  external pressure =       -0.18 kB  Pullay stress =        0.00 kB


 VOLUME and BASIS-vectors are now :
 -----------------------------------------------------------------------------
  energy-cutoff  :      600.00
  volume of cell :      377.16
      direct lattice vectors                 reciprocal lattice vectors
     4.393312657  0.000000000  0.000000000     0.227618674  0.000000000  0.000000000
     0.000000000  4.292477857  0.000000000     0.000000000  0.232965675  0.000000000
     0.000000000  0.000000000 20.000000000     0.000000000  0.000000000  0.050000000

  length of vectors
     4.393312657  4.292477857 20.000000000     0.227618674  0.232965675  0.050000000


 FORCES acting on ions
    electron-ion (+dipol)            ewald-force                    non-local-force                 convergence-correction
 -----------------------------------------------------------------------------------------------
   0.442E+01 0.174E-05 -.144E+03   -.597E+01 -.227E-05 0.148E+03   0.155E+01 0.502E-06 -.382E+01   0.208E-04 -.113E-07 0.359E-03
   0.442E+01 0.130E-05 0.144E+03   -.597E+01 -.175E-05 -.148E+03   0.155E+01 0.436E-06 0.382E+01   0.936E-05 -.147E-07 -.524E-03
   -.550E+01 -.240E-05 -.206E+03   0.597E+01 0.225E-05 0.208E+03   -.465E+00 0.435E-07 -.204E+01   0.283E-03 0.171E-06 0.172E-02
   -.550E+01 -.197E-05 0.206E+03   0.597E+01 0.178E-05 -.208E+03   -.465E+00 0.395E-07 0.204E+01   0.276E-03 0.178E-06 -.207E-02
 -----------------------------------------------------------------------------------------------
   -.217E+01 -.133E-05 0.690E-03   -.444E-14 0.271E-15 0.284E-13   0.217E+01 0.102E-05 -.158E-03   0.589E-03 0.323E-06 -.520E-03
 
 
 POSITION                                       TOTAL-FORCE (eV/Angst)
 -----------------------------------------------------------------------------------
      2.55808      3.21936     11.37528         0.000324     -0.000000     -0.000278
      0.36143      1.07312      8.62470         0.000320     -0.000000      0.000444
      0.13987      1.07312     11.34008        -0.000319      0.000000     -0.000187
      2.33652      3.21936      8.65993        -0.000325      0.000000      0.000021
 -----------------------------------------------------------------------------------
    total drift:                               -0.000140      0.000000      0.000012


--------------------------------------------------------------------------------------------------------



  FREE ENERGIE OF THE ION-ELECTRON SYSTEM (eV)
  ---------------------------------------------------
  free  energy   TOTEN  =       -16.26431038 eV

  energy  without entropy=      -16.26431038  energy(sigma->0) =      -16.26431038
 
 d Force = 0.4308009E-06[ 0.113E-06, 0.748E-06]  d Energy = 0.6735302E-06-0.243E-06
 d Force =-0.1205451E+00[-0.121E+00,-0.121E+00]  d Ewald  =-0.1205451E+00 0.408E-09


--------------------------------------------------------------------------------------------------------


    POTLOK:  cpu time    0.0409: real time    0.0409


--------------------------------------------------------------------------------------------------------


 Conjugate gradient step on ions:
 trial-energy change:   -0.000001  1 .order   -0.000000   -0.000001   -0.000000
  (g-gl).g = 0.402E-06      g.g   = 0.345E-06  gl.gl    = 0.348E-06
 g(Force)  = 0.345E-06   g(Stress)= 0.000E+00 ortho     =-0.549E-07
 gamma     =   1.15420
 trial     =   2.65469
 opt step  =   3.12769  (harmonic =   3.12769) maximal distance =0.00040346
 next E    =   -16.264310   (d E  =  -0.00000)


--------------------------------------------------------------------------------------------------------


  
 reached required accuracy - stopping structural energy minimisation
 writing wavefunctions
     LOOP+:  cpu time   10.1722: real time   10.5111
    4ORBIT:  cpu time    0.0000: real time    0.0000

 total amount of memory used by VASP MPI-rank0    63270. kBytes
=======================================================================

   base      :      30000. kBytes
   nonl-proj :      12491. kBytes
   fftplans  :       2678. kBytes
   grid      :       4349. kBytes
   one-center:          8. kBytes
   wavefun   :      13744. kBytes
 
  
  
 General timing and accounting informations for this job:
 ========================================================
  
                  Total CPU time used (sec):      239.677
                            User time (sec):      238.858
                          System time (sec):        0.820
                         Elapsed time (sec):      254.647
  
                   Maximum memory used (kb):      211784.
                   Average memory used (kb):           0.
  
                          Minor page faults:       108262
                          Major page faults:          144
                 Voluntary context switches:        10615
