./data/POSCAR-out.lmp (written by ASE) 

6 	 atoms 
2  atom types
0.0            5.6291656494  xlo xhi
0.0      3.2499992846999999  ylo yhi
0.0                      20  zlo zhi


Atoms 

     1   1                       0                       0                      10
     2   1             2.814582825      1.6249996419999999                      10
     3   2      4.6909521380000001      1.6249996419999999      8.4521061179999997
     4   2      1.8763696489999999                       0      8.4521061179999997
     5   2     0.93821326000000005             1.624999836      11.547893286000001
     6   2      3.7527960010000001                       0      11.547893286000001
