
     Program PWSCF v.6.6 starts on 12Dec2022 at 17:27:50 

     This program is part of the open-source Quantum ESPRESSO suite
     for quantum simulation of materials; please cite
         "P. Giannozzi et al., J. Phys.:Condens. Matter 21 395502 (2009);
         "P. Giannozzi et al., J. Phys.:Condens. Matter 29 465901 (2017);
          URL http://www.quantum-espresso.org", 
     in publications or presentations arising from this work. More details at
     http://www.quantum-espresso.org/quote

     Parallel version (MPI), running on    24 processors

     MPI processes distributed on     1 nodes
     R & G space division:  proc/nbgrp/npool/nimage =      24
     Fft bands division:     nmany     =       1
     Reading input from INCAR-scf.pw
Warning: card &CELL ignored
Warning: card     CELL_DYNAMICS  = "BFGS" ignored
Warning: card     ! CELL_DOFREE = "XY" ignored
Warning: card / ignored

     Current dimensions of program PWSCF are:
     Max number of different atomic species (ntypx) = 10
     Max number of k-points (npk) =  40000
     Max angular momentum in pseudopotentials (lmaxx) =  3

     Subspace diagonalization in iterative solution of the eigenvalue problem:
     a serial algorithm will be used

     Found symmetry operation: I + ( -0.5000 -0.5000  0.0000)
     This is a supercell, fractional translations are disabled
     Message from routine setup:
     using ibrav=0 with symmetry is DISCOURAGED, use correct ibrav instead
 
     Parallelization info
     --------------------
     sticks:   dense  smooth     PW     G-vecs:    dense   smooth      PW
     Min          63      30      9                11423     3796     627
     Max          64      31     10                11448     3815     648
     Sum        1529     735    219               274409    91301   15133
 


     bravais-lattice index     =            0
     lattice parameter (alat)  =       8.1408  a.u.
     unit-cell volume          =    1453.3668 (a.u.)^3
     number of atoms/cell      =            4
     number of atomic types    =            2
     number of electrons       =        16.00
     number of Kohn-Sham states=            8
     kinetic-energy cutoff     =      60.0000  Ry
     charge density cutoff     =     500.0000  Ry
     convergence threshold     =      1.0E-10
     mixing beta               =       0.7000
     number of iterations used =            8  plain     mixing
     Exchange-correlation= PBE
                           (   1   4   3   4   0   0   0)
     nstep                     =          100


     celldm(1)=   8.140787  celldm(2)=   0.000000  celldm(3)=   0.000000
     celldm(4)=   0.000000  celldm(5)=   0.000000  celldm(6)=   0.000000

     crystal axes: (cart. coord. in units of alat)
               a(1) = (   1.000000   0.000000   0.000000 )  
               a(2) = (   0.000000   0.580248   0.000000 )  
               a(3) = (   0.000000   0.000000   4.642613 )  

     reciprocal axes: (cart. coord. in units 2 pi/alat)
               b(1) = (  1.000000  0.000000  0.000000 )  
               b(2) = (  0.000000  1.723401  0.000000 )  
               b(3) = (  0.000000  0.000000  0.215396 )  


     PseudoPot. # 1 for B  read from file:
     ./B_pbe_v1.01.uspp.F.UPF
     MD5 check sum: d081ebb89d0c768e112975f650467a00
     Pseudo is Ultrasoft + core correction, Zval =  3.0
     Generated by new atomic code, or converted to UPF format
     Using radial grid of  781 points,  4 beta functions with: 
                l(1) =   0
                l(2) =   0
                l(3) =   1
                l(4) =   1
     Q(r) pseudized with  8 coefficients,  rinner =    1.100   1.100   1.100


     PseudoPot. # 2 for N  read from file:
     ./N.oncvpsp.upf
     MD5 check sum: 563d65bfb082928f0c9eb97172f6c357
     Pseudo is Norm-conserving + core correction, Zval =  5.0
     Generated using ONCVPSP code by D. R. Hamann
     Using radial grid of 1058 points,  4 beta functions with: 
                l(1) =   0
                l(2) =   0
                l(3) =   1
                l(4) =   1

     atomic species   valence    mass     pseudopotential
        B              3.00    10.81100     B ( 1.00)
        N              5.00    14.00674     N ( 1.00)

      4 Sym. Ops. (no inversion) found



   Cartesian axes

     site n.     atom                  positions (alat units)
         1           N   tau(   1) = (   0.0000144   0.0000000   2.3213064  )
         2           B   tau(   2) = (   0.3333441   0.0000000   2.3213064  )
         3           N   tau(   3) = (   0.5000146   0.2901239   2.3213064  )
         4           B   tau(   4) = (   0.8333439   0.2901239   2.3213064  )

     number of k points=    64
                       cart. coord. in units 2pi/alat
        k(    1) = (   0.0000000   0.0000000   0.0000000), wk =   0.0102041
        k(    2) = (   0.0000000   0.1231001   0.0000000), wk =   0.0204082
        k(    3) = (   0.0000000   0.2462002   0.0000000), wk =   0.0204082
        k(    4) = (   0.0000000   0.3693003   0.0000000), wk =   0.0204082
        k(    5) = (   0.0000000   0.4924004   0.0000000), wk =   0.0204082
        k(    6) = (   0.0000000   0.6155005   0.0000000), wk =   0.0204082
        k(    7) = (   0.0000000   0.7386006   0.0000000), wk =   0.0204082
        k(    8) = (   0.0000000  -0.8617007   0.0000000), wk =   0.0102041
        k(    9) = (   0.0714286   0.0000000   0.0000000), wk =   0.0204082
        k(   10) = (   0.0714286   0.1231001   0.0000000), wk =   0.0408163
        k(   11) = (   0.0714286   0.2462002   0.0000000), wk =   0.0408163
        k(   12) = (   0.0714286   0.3693003   0.0000000), wk =   0.0408163
        k(   13) = (   0.0714286   0.4924004   0.0000000), wk =   0.0408163
        k(   14) = (   0.0714286   0.6155005   0.0000000), wk =   0.0408163
        k(   15) = (   0.0714286   0.7386006   0.0000000), wk =   0.0408163
        k(   16) = (   0.0714286  -0.8617007   0.0000000), wk =   0.0204082
        k(   17) = (   0.1428571   0.0000000   0.0000000), wk =   0.0204082
        k(   18) = (   0.1428571   0.1231001   0.0000000), wk =   0.0408163
        k(   19) = (   0.1428571   0.2462002   0.0000000), wk =   0.0408163
        k(   20) = (   0.1428571   0.3693003   0.0000000), wk =   0.0408163
        k(   21) = (   0.1428571   0.4924004   0.0000000), wk =   0.0408163
        k(   22) = (   0.1428571   0.6155005   0.0000000), wk =   0.0408163
        k(   23) = (   0.1428571   0.7386006   0.0000000), wk =   0.0408163
        k(   24) = (   0.1428571  -0.8617007   0.0000000), wk =   0.0204082
        k(   25) = (   0.2142857   0.0000000   0.0000000), wk =   0.0204082
        k(   26) = (   0.2142857   0.1231001   0.0000000), wk =   0.0408163
        k(   27) = (   0.2142857   0.2462002   0.0000000), wk =   0.0408163
        k(   28) = (   0.2142857   0.3693003   0.0000000), wk =   0.0408163
        k(   29) = (   0.2142857   0.4924004   0.0000000), wk =   0.0408163
        k(   30) = (   0.2142857   0.6155005   0.0000000), wk =   0.0408163
        k(   31) = (   0.2142857   0.7386006   0.0000000), wk =   0.0408163
        k(   32) = (   0.2142857  -0.8617007   0.0000000), wk =   0.0204082
        k(   33) = (   0.2857143   0.0000000   0.0000000), wk =   0.0204082
        k(   34) = (   0.2857143   0.1231001   0.0000000), wk =   0.0408163
        k(   35) = (   0.2857143   0.2462002   0.0000000), wk =   0.0408163
        k(   36) = (   0.2857143   0.3693003   0.0000000), wk =   0.0408163
        k(   37) = (   0.2857143   0.4924004   0.0000000), wk =   0.0408163
        k(   38) = (   0.2857143   0.6155005   0.0000000), wk =   0.0408163
        k(   39) = (   0.2857143   0.7386006   0.0000000), wk =   0.0408163
        k(   40) = (   0.2857143  -0.8617007   0.0000000), wk =   0.0204082
        k(   41) = (   0.3571429   0.0000000   0.0000000), wk =   0.0204082
        k(   42) = (   0.3571429   0.1231001   0.0000000), wk =   0.0408163
        k(   43) = (   0.3571429   0.2462002   0.0000000), wk =   0.0408163
        k(   44) = (   0.3571429   0.3693003   0.0000000), wk =   0.0408163
        k(   45) = (   0.3571429   0.4924004   0.0000000), wk =   0.0408163
        k(   46) = (   0.3571429   0.6155005   0.0000000), wk =   0.0408163
        k(   47) = (   0.3571429   0.7386006   0.0000000), wk =   0.0408163
        k(   48) = (   0.3571429  -0.8617007   0.0000000), wk =   0.0204082
        k(   49) = (   0.4285714   0.0000000   0.0000000), wk =   0.0204082
        k(   50) = (   0.4285714   0.1231001   0.0000000), wk =   0.0408163
        k(   51) = (   0.4285714   0.2462002   0.0000000), wk =   0.0408163
        k(   52) = (   0.4285714   0.3693003   0.0000000), wk =   0.0408163
        k(   53) = (   0.4285714   0.4924004   0.0000000), wk =   0.0408163
        k(   54) = (   0.4285714   0.6155005   0.0000000), wk =   0.0408163
        k(   55) = (   0.4285714   0.7386006   0.0000000), wk =   0.0408163
        k(   56) = (   0.4285714  -0.8617007   0.0000000), wk =   0.0204082
        k(   57) = (  -0.5000000   0.0000000   0.0000000), wk =   0.0102041
        k(   58) = (  -0.5000000   0.1231001   0.0000000), wk =   0.0204082
        k(   59) = (  -0.5000000   0.2462002   0.0000000), wk =   0.0204082
        k(   60) = (  -0.5000000   0.3693003   0.0000000), wk =   0.0204082
        k(   61) = (  -0.5000000   0.4924004   0.0000000), wk =   0.0204082
        k(   62) = (  -0.5000000   0.6155005   0.0000000), wk =   0.0204082
        k(   63) = (  -0.5000000   0.7386006   0.0000000), wk =   0.0204082
        k(   64) = (  -0.5000000  -0.8617007   0.0000000), wk =   0.0102041

     Dense  grid:   274409 G-vectors     FFT dimensions: (  60,  36, 270)

     Smooth grid:    91301 G-vectors     FFT dimensions: (  45,  24, 192)

     Estimated max dynamical RAM per process >      20.15 MB

     Estimated total dynamical RAM >     483.64 MB

     Check: negative core charge=   -0.000004

     Initial potential from superposition of free atoms

     starting charge   15.99942, renormalised to   16.00000

     negative rho (up, down):  1.501E-05 0.000E+00
     Starting wfcs are   16 randomized atomic wfcs

     total cpu time spent up to now is        0.9 secs

     Self-consistent Calculation

     iteration #  1     ecut=    60.00 Ry     beta= 0.70
     Davidson diagonalization with overlap
     ethr =  1.00E-02,  avg # of iterations =  2.0

     negative rho (up, down):  5.550E-07 0.000E+00

     total cpu time spent up to now is        1.7 secs

     total energy              =     -54.59156601 Ry
     estimated scf accuracy    <       0.80966807 Ry

     iteration #  2     ecut=    60.00 Ry     beta= 0.70
     Davidson diagonalization with overlap
     ethr =  5.06E-03,  avg # of iterations =  2.9

     negative rho (up, down):  7.468E-06 0.000E+00

     total cpu time spent up to now is        2.5 secs

     total energy              =     -54.84514774 Ry
     estimated scf accuracy    <       0.21802448 Ry

     iteration #  3     ecut=    60.00 Ry     beta= 0.70
     Davidson diagonalization with overlap
     ethr =  1.36E-03,  avg # of iterations =  2.0

     negative rho (up, down):  2.034E-05 0.000E+00

     total cpu time spent up to now is        3.2 secs

     total energy              =     -54.84922611 Ry
     estimated scf accuracy    <       0.02521503 Ry

     iteration #  4     ecut=    60.00 Ry     beta= 0.70
     Davidson diagonalization with overlap
     ethr =  1.58E-04,  avg # of iterations =  6.3

     negative rho (up, down):  1.052E-05 0.000E+00

     total cpu time spent up to now is        4.2 secs

     total energy              =     -54.86632126 Ry
     estimated scf accuracy    <       0.07549821 Ry

     iteration #  5     ecut=    60.00 Ry     beta= 0.70
     Davidson diagonalization with overlap
     ethr =  1.58E-04,  avg # of iterations =  2.0

     negative rho (up, down):  1.064E-05 0.000E+00

     total cpu time spent up to now is        4.8 secs

     total energy              =     -54.86942007 Ry
     estimated scf accuracy    <       0.01781606 Ry

     iteration #  6     ecut=    60.00 Ry     beta= 0.70
     Davidson diagonalization with overlap
     ethr =  1.11E-04,  avg # of iterations =  1.0

     negative rho (up, down):  9.972E-06 0.000E+00

     total cpu time spent up to now is        5.3 secs

     total energy              =     -54.86408891 Ry
     estimated scf accuracy    <       0.01346054 Ry

     iteration #  7     ecut=    60.00 Ry     beta= 0.70
     Davidson diagonalization with overlap
     ethr =  8.41E-05,  avg # of iterations =  3.5

     negative rho (up, down):  9.396E-06 0.000E+00

     total cpu time spent up to now is        6.0 secs

     total energy              =     -54.86768036 Ry
     estimated scf accuracy    <       0.00013586 Ry

     iteration #  8     ecut=    60.00 Ry     beta= 0.70
     Davidson diagonalization with overlap
     ethr =  8.49E-07,  avg # of iterations =  5.2

     negative rho (up, down):  9.553E-06 0.000E+00

     total cpu time spent up to now is        6.9 secs

     total energy              =     -54.86804390 Ry
     estimated scf accuracy    <       0.00001437 Ry

     iteration #  9     ecut=    60.00 Ry     beta= 0.70
     Davidson diagonalization with overlap
     ethr =  8.98E-08,  avg # of iterations =  6.3

     negative rho (up, down):  9.534E-06 0.000E+00

     total cpu time spent up to now is        7.9 secs

     total energy              =     -54.86800546 Ry
     estimated scf accuracy    <       0.00023056 Ry

     iteration # 10     ecut=    60.00 Ry     beta= 0.70
     Davidson diagonalization with overlap
     ethr =  8.98E-08,  avg # of iterations =  5.6

     negative rho (up, down):  9.550E-06 0.000E+00

     total cpu time spent up to now is        8.9 secs

     total energy              =     -54.86802995 Ry
     estimated scf accuracy    <       0.00000811 Ry

     iteration # 11     ecut=    60.00 Ry     beta= 0.70
     Davidson diagonalization with overlap
     ethr =  5.07E-08,  avg # of iterations =  3.8

     negative rho (up, down):  9.566E-06 0.000E+00

     total cpu time spent up to now is        9.6 secs

     total energy              =     -54.86803834 Ry
     estimated scf accuracy    <       0.00000947 Ry

     iteration # 12     ecut=    60.00 Ry     beta= 0.70
     Davidson diagonalization with overlap
     ethr =  5.07E-08,  avg # of iterations =  1.0

     negative rho (up, down):  9.560E-06 0.000E+00

     total cpu time spent up to now is       10.2 secs

     total energy              =     -54.86803733 Ry
     estimated scf accuracy    <       0.00001128 Ry

     iteration # 13     ecut=    60.00 Ry     beta= 0.70
     Davidson diagonalization with overlap
     ethr =  5.07E-08,  avg # of iterations =  1.0

     negative rho (up, down):  9.563E-06 0.000E+00

     total cpu time spent up to now is       10.7 secs

     total energy              =     -54.86803279 Ry
     estimated scf accuracy    <       0.00000978 Ry

     iteration # 14     ecut=    60.00 Ry     beta= 0.70
     Davidson diagonalization with overlap
     ethr =  5.07E-08,  avg # of iterations =  2.0

     negative rho (up, down):  9.567E-06 0.000E+00

     total cpu time spent up to now is       11.4 secs

     total energy              =     -54.86803531 Ry
     estimated scf accuracy    <       0.00000090 Ry

     iteration # 15     ecut=    60.00 Ry     beta= 0.70
     Davidson diagonalization with overlap
     ethr =  5.60E-09,  avg # of iterations =  2.0

     negative rho (up, down):  9.566E-06 0.000E+00

     total cpu time spent up to now is       12.0 secs

     total energy              =     -54.86803295 Ry
     estimated scf accuracy    <       0.00000410 Ry

     iteration # 16     ecut=    60.00 Ry     beta= 0.70
     Davidson diagonalization with overlap
     ethr =  5.60E-09,  avg # of iterations =  4.2

     negative rho (up, down):  9.568E-06 0.000E+00

     total cpu time spent up to now is       12.9 secs

     total energy              =     -54.86803416 Ry
     estimated scf accuracy    <       0.00000045 Ry

     iteration # 17     ecut=    60.00 Ry     beta= 0.70
     Davidson diagonalization with overlap
     ethr =  2.80E-09,  avg # of iterations =  1.0

     negative rho (up, down):  9.567E-06 0.000E+00

     total cpu time spent up to now is       13.4 secs

     total energy              =     -54.86803404 Ry
     estimated scf accuracy    <       0.00000026 Ry

     iteration # 18     ecut=    60.00 Ry     beta= 0.70
     Davidson diagonalization with overlap
     ethr =  1.62E-09,  avg # of iterations =  2.1

     negative rho (up, down):  9.566E-06 0.000E+00

     total cpu time spent up to now is       14.1 secs

     total energy              =     -54.86803409 Ry
     estimated scf accuracy    <          1.6E-09 Ry

     iteration # 19     ecut=    60.00 Ry     beta= 0.70
     Davidson diagonalization with overlap
     ethr =  9.91E-12,  avg # of iterations =  8.2

     negative rho (up, down):  9.565E-06 0.000E+00

     total cpu time spent up to now is       15.3 secs

     total energy              =     -54.86803409 Ry
     estimated scf accuracy    <       0.00000002 Ry

     iteration # 20     ecut=    60.00 Ry     beta= 0.70
     Davidson diagonalization with overlap
     ethr =  9.91E-12,  avg # of iterations =  6.1

     negative rho (up, down):  9.565E-06 0.000E+00

     total cpu time spent up to now is       16.3 secs

     total energy              =     -54.86803409 Ry
     estimated scf accuracy    <          7.9E-10 Ry

     iteration # 21     ecut=    60.00 Ry     beta= 0.70
     Davidson diagonalization with overlap
     ethr =  4.92E-12,  avg # of iterations =  2.0

     negative rho (up, down):  9.565E-06 0.000E+00

     total cpu time spent up to now is       16.9 secs

     total energy              =     -54.86803409 Ry
     estimated scf accuracy    <          1.7E-10 Ry

     iteration # 22     ecut=    60.00 Ry     beta= 0.70
     Davidson diagonalization with overlap
     ethr =  1.08E-12,  avg # of iterations =  4.9

     negative rho (up, down):  9.565E-06 0.000E+00

     total cpu time spent up to now is       17.7 secs

     total energy              =     -54.86803409 Ry
     estimated scf accuracy    <          1.8E-10 Ry

     iteration # 23     ecut=    60.00 Ry     beta= 0.70
     Davidson diagonalization with overlap
     ethr =  1.08E-12,  avg # of iterations =  1.9

     negative rho (up, down):  9.565E-06 0.000E+00

     total cpu time spent up to now is       18.3 secs

     End of self-consistent calculation

          k = 0.0000 0.0000 0.0000 ( 11399 PWs)   bands (ev):

   -21.7620 -18.6198 -12.9667  -9.3389  -8.2579  -5.3935  -5.3712  -4.9186

          k = 0.0000 0.1231 0.0000 ( 11385 PWs)   bands (ev):

   -21.6880 -18.5713 -12.9083  -9.2393  -8.5456  -5.7038  -5.5228  -4.8477

          k = 0.0000 0.2462 0.0000 ( 11387 PWs)   bands (ev):

   -21.4684 -18.4364 -12.7354  -9.2854  -8.9428  -6.5197  -5.9572  -4.6467

          k = 0.0000 0.3693 0.0000 ( 11378 PWs)   bands (ev):

   -21.1099 -18.2510 -12.4588 -10.2097  -8.4570  -7.6145  -6.6135  -4.3614

          k = 0.0000 0.4924 0.0000 ( 11374 PWs)   bands (ev):

   -20.6258 -18.0887 -12.1334 -11.0077  -8.7966  -7.7973  -7.4125  -4.1005

          k = 0.0000 0.6155 0.0000 ( 11374 PWs)   bands (ev):

   -20.0413 -18.0667 -12.0477 -11.1613  -9.9360  -8.2752  -6.9917  -4.0633

          k = 0.0000 0.7386 0.0000 ( 11398 PWs)   bands (ev):

   -19.4000 -18.2975 -12.0535 -10.9294 -10.6534  -9.1364  -6.0900  -4.4413

          k = 0.0000-0.8617 0.0000 ( 11436 PWs)   bands (ev):

   -18.7795 -18.7795 -11.6735 -11.6735  -9.9441  -9.9441  -5.1858  -5.1858

          k = 0.0714 0.0000 0.0000 ( 11380 PWs)   bands (ev):

   -21.7369 -18.6954 -12.8493  -9.3052  -8.2308  -5.4768  -5.4443  -5.0373

          k = 0.0714 0.1231 0.0000 ( 11381 PWs)   bands (ev):

   -21.6632 -18.6458 -12.7934  -9.2058  -8.5182  -5.8058  -5.5685  -4.9650

          k = 0.0714 0.2462 0.0000 ( 11371 PWs)   bands (ev):

   -21.4439 -18.5072 -12.6292  -9.2552  -8.9097  -6.6274  -5.9734  -4.7594

          k = 0.0714 0.3693 0.0000 ( 11370 PWs)   bands (ev):

   -21.0862 -18.3143 -12.3750 -10.1683  -8.4249  -7.7264  -6.5947  -4.4645

          k = 0.0714 0.4924 0.0000 ( 11383 PWs)   bands (ev):

   -20.6035 -18.1390 -12.1189 -10.9156  -8.9121  -7.7666  -7.3588  -4.1846

          k = 0.0714 0.6155 0.0000 ( 11405 PWs)   bands (ev):

   -20.0216 -18.0978 -12.1395 -10.9899 -10.0534  -8.1907  -6.9640  -4.1144

          k = 0.0714 0.7386 0.0000 ( 11389 PWs)   bands (ev):

   -19.3850 -18.3073 -12.1605 -11.0466 -10.4973  -9.0251  -6.0678  -4.4552

          k = 0.0714-0.8617 0.0000 ( 11402 PWs)   bands (ev):

   -18.7735 -18.7735 -11.7872 -11.7872  -9.8101  -9.8100  -5.1752  -5.1752

          k = 0.1429 0.0000 0.0000 ( 11382 PWs)   bands (ev):

   -21.6623 -18.9037 -12.5170  -9.2046  -8.1506  -5.7842  -5.5906  -5.3558

          k = 0.1429 0.1231 0.0000 ( 11401 PWs)   bands (ev):

   -21.5889 -18.8514 -12.4680  -9.1056  -8.4365  -6.0859  -5.7190  -5.2803

          k = 0.1429 0.2462 0.0000 ( 11374 PWs)   bands (ev):

   -21.3708 -18.7032 -12.3288  -9.1650  -8.8107  -6.9034  -6.0631  -5.0638

          k = 0.1429 0.3693 0.0000 ( 11374 PWs)   bands (ev):

   -21.0153 -18.4912 -12.1404 -10.0429  -8.3284  -8.0063  -6.5937  -4.7457

          k = 0.1429 0.4924 0.0000 ( 11407 PWs)   bands (ev):

   -20.5370 -18.2817 -12.0676 -10.6574  -9.1968  -7.6751  -7.2618  -4.4177

          k = 0.1429 0.6155 0.0000 ( 11399 PWs)   bands (ev):

   -19.9625 -18.1881 -12.2914 -10.6035 -10.3387  -8.0065  -6.8809  -4.2611

          k = 0.1429 0.7386 0.0000 ( 11423 PWs)   bands (ev):

   -19.3408 -18.3375 -12.3814 -11.3258 -10.1317  -8.7682  -6.0029  -4.4985

          k = 0.1429-0.8617 0.0000 ( 11414 PWs)   bands (ev):

   -18.7567 -18.7567 -12.0467 -12.0467  -9.4931  -9.4931  -5.1464  -5.1464

          k = 0.2143 0.0000 0.0000 ( 11392 PWs)   bands (ev):

   -21.5387 -19.2025 -12.0145  -9.0378  -8.0187  -6.2622  -5.8161  -5.7985

          k = 0.2143 0.1231 0.0000 ( 11408 PWs)   bands (ev):

   -21.4660 -19.1465 -11.9761  -8.9395  -8.3015  -6.5128  -5.9644  -5.7190

          k = 0.2143 0.2462 0.0000 ( 11383 PWs)   bands (ev):

   -21.2497 -18.9865 -11.8762  -9.0147  -8.6468  -7.2840  -6.2681  -5.4893

          k = 0.2143 0.3693 0.0000 ( 11398 PWs)   bands (ev):

   -20.8981 -18.7501 -11.7952  -9.8297  -8.3747  -8.1689  -6.6866  -5.1425

          k = 0.2143 0.4924 0.0000 ( 11410 PWs)   bands (ev):

   -20.4270 -18.4961 -11.9676 -10.2715  -9.5607  -7.5238  -7.2192  -4.7554

          k = 0.2143 0.6155 0.0000 ( 11402 PWs)   bands (ev):

   -19.8658 -18.3303 -12.3934 -10.6950 -10.1267  -7.8327  -6.7448  -4.4876

          k = 0.2143 0.7386 0.0000 ( 11435 PWs)   bands (ev):

   -19.2691 -18.3894 -12.5961 -11.6618  -9.6859  -8.4809  -5.8973  -4.5744

          k = 0.2143-0.8617 0.0000 ( 11446 PWs)   bands (ev):

   -18.7320 -18.7320 -12.3392 -12.3392  -9.1149  -9.1149  -5.1040  -5.1040

          k = 0.2857 0.0000 0.0000 ( 11396 PWs)   bands (ev):

   -21.3674 -19.5485 -11.3887  -8.8063  -7.8377  -6.8729  -6.2972  -6.0973

          k = 0.2857 0.1231 0.0000 ( 11410 PWs)   bands (ev):

   -21.2954 -19.4891 -11.3644  -8.7088  -8.1162  -7.0631  -6.2741  -6.2139

          k = 0.2857 0.2462 0.0000 ( 11408 PWs)   bands (ev):

   -21.0821 -19.3173 -11.3189  -8.8046  -8.4194  -7.7360  -6.5849  -5.9712

          k = 0.2857 0.3693 0.0000 ( 11396 PWs)   bands (ev):

   -20.7361 -19.0564 -11.3856  -9.5250  -8.7848  -7.9479  -6.9060  -5.5960

          k = 0.2857 0.4924 0.0000 ( 11410 PWs)   bands (ev):

   -20.2754 -18.7570 -11.8139  -9.9515  -9.7990  -7.3145  -7.2883  -5.1517

          k = 0.2857 0.6155 0.0000 ( 11425 PWs)   bands (ev):

   -19.7337 -18.5132 -12.4160 -11.0652  -9.6152  -7.7407  -6.5582  -4.7721

          k = 0.2857 0.7386 0.0000 ( 11431 PWs)   bands (ev):

   -19.1735 -18.4640 -12.7516 -11.9953  -9.2276  -8.2407  -5.7554  -4.6858

          k = 0.2857-0.8617 0.0000 ( 11454 PWs)   bands (ev):

   -18.7039 -18.7039 -12.6039 -12.6039  -8.7506  -8.7506  -5.0552  -5.0552

          k = 0.3571 0.0000 0.0000 ( 11396 PWs)   bands (ev):

   -21.1504 -19.9090 -10.6790  -8.5121  -7.6118  -7.5769  -6.8061  -6.4103

          k = 0.3571 0.1231 0.0000 ( 11392 PWs)   bands (ev):

   -21.0795 -19.8464 -10.6726  -8.4160  -7.8835  -7.7104  -6.7190  -6.6152

          k = 0.3571 0.2462 0.0000 ( 11384 PWs)   bands (ev):

   -20.8699 -19.6641 -10.6988  -8.5347  -8.2452  -8.1307  -6.9804  -6.4646

          k = 0.3571 0.3693 0.0000 ( 11400 PWs)   bands (ev):

   -20.5315 -19.3817 -10.9509  -9.2119  -9.1331  -7.6678  -7.2473  -6.0650

          k = 0.3571 0.4924 0.0000 ( 11427 PWs)   bands (ev):

   -20.0850 -19.0409 -11.6073 -10.3402  -9.2799  -7.4904  -7.0506  -5.5708

          k = 0.3571 0.6155 0.0000 ( 11448 PWs)   bands (ev):

   -19.5696 -18.7231 -12.3552 -11.4187  -9.1056  -7.7707  -6.3253  -5.0911

          k = 0.3571 0.7386 0.0000 ( 11464 PWs)   bands (ev):

   -19.0593 -18.5606 -12.8269 -12.2947  -8.8022  -8.0963  -5.5854  -4.8316

          k = 0.3571-0.8617 0.0000 ( 11430 PWs)   bands (ev):

   -18.6778 -18.6778 -12.8103 -12.8103  -8.4505  -8.4504  -5.0093  -5.0093

          k = 0.4286 0.0000 0.0000 ( 11364 PWs)   bands (ev):

   -20.8905 -20.2617  -9.9161  -8.3388  -8.1588  -7.3470  -7.2965  -6.7335

          k = 0.4286 0.1231 0.0000 ( 11380 PWs)   bands (ev):

   -20.8211 -20.1964  -9.9334  -8.4245  -8.0643  -7.6084  -7.2065  -6.9628

          k = 0.4286 0.2462 0.0000 ( 11392 PWs)   bands (ev):

   -20.6163 -20.0053 -10.0534  -8.8063  -8.2072  -7.7847  -7.4089  -6.9423

          k = 0.4286 0.3693 0.0000 ( 11396 PWs)   bands (ev):

   -20.2877 -19.7043 -10.5130  -9.6445  -8.6710  -7.6834  -7.3327  -6.5215

          k = 0.4286 0.4924 0.0000 ( 11446 PWs)   bands (ev):

   -19.8597 -19.3284 -11.3508 -10.7101  -8.7514  -7.8200  -6.7365  -5.9859

          k = 0.4286 0.6155 0.0000 ( 11463 PWs)   bands (ev):

   -19.3787 -18.9456 -12.2160 -11.7372  -8.6329  -7.9368  -6.0522  -5.4225

          k = 0.4286 0.7386 0.0000 ( 11461 PWs)   bands (ev):

   -18.9329 -18.6753 -12.8149 -12.5401  -8.4476  -8.0785  -5.3956  -5.0056

          k = 0.4286-0.8617 0.0000 ( 11448 PWs)   bands (ev):

   -18.6595 -18.6595 -12.9409 -12.9409  -8.2530  -8.2530  -4.9769  -4.9769

          k =-0.5000 0.0000 0.0000 ( 11368 PWs)   bands (ev):

   -20.5921 -20.5921  -9.1277  -9.1277  -7.7511  -7.7510  -7.0507  -7.0507

          k =-0.5000 0.1231 0.0000 ( 11372 PWs)   bands (ev):

   -20.5245 -20.5245  -9.1749  -9.1749  -7.6586  -7.6586  -7.2985  -7.2985

          k =-0.5000 0.2462 0.0000 ( 11360 PWs)   bands (ev):

   -20.3258 -20.3258  -9.4140  -9.4140  -7.8270  -7.8270  -7.3858  -7.3858

          k =-0.5000 0.3693 0.0000 ( 11404 PWs)   bands (ev):

   -20.0097 -20.0097 -10.0780 -10.0780  -8.1733  -8.1733  -6.9481  -6.9481

          k =-0.5000 0.4924 0.0000 ( 11434 PWs)   bands (ev):

   -19.6048 -19.6048 -11.0496 -11.0495  -8.2520  -8.2520  -6.3786  -6.3786

          k =-0.5000 0.6155 0.0000 ( 11462 PWs)   bands (ev):

   -19.1678 -19.1678 -12.0067 -12.0067  -8.2323  -8.2323  -5.7476  -5.7476

          k =-0.5000 0.7386 0.0000 ( 11464 PWs)   bands (ev):

   -18.8021 -18.8021 -12.7170 -12.7170  -8.1985  -8.1985  -5.1980  -5.1980

          k =-0.5000-0.8617 0.0000 ( 11432 PWs)   bands (ev):

   -18.6528 -18.6528 -12.9855 -12.9855  -8.1836  -8.1836  -4.9649  -4.9649

     highest occupied level (ev):    -4.0633

!    total energy              =     -54.86803409 Ry
     estimated scf accuracy    <          3.7E-11 Ry

     The total energy is the sum of the following terms:
     one-electron contribution =    -445.04956964 Ry
     hartree contribution      =     225.79377245 Ry
     xc contribution           =     -18.64946009 Ry
     ewald contribution        =     183.03722318 Ry

     convergence has been achieved in  23 iterations

     negative rho (up, down):  9.565E-06 0.000E+00

     Forces acting on atoms (cartesian axes, Ry/au):

     atom    1 type  2   force =    -0.00259943    0.00000000    0.00000000
     atom    2 type  1   force =     0.00259893    0.00000000    0.00000000
     atom    3 type  2   force =    -0.00260165    0.00000000    0.00000000
     atom    4 type  1   force =     0.00260216    0.00000000    0.00000000

     Total force =     0.005201     Total SCF correction =     0.000001

     BFGS Geometry Optimization

     number of scf cycles    =   1
     number of bfgs steps    =   0

     energy   new            =     -54.8680340946 Ry

     new trust radius        =       0.0026021575 bohr
     new conv_thr            =            1.0E-10 Ry


ATOMIC_POSITIONS (crystal)
N            -0.0003049153        0.0000000000        0.5000000000
B             0.3336633903        0.0000000000        0.5000000000
N             0.4996950070        0.5000000000        0.5000000000
B             0.8336635180        0.5000000000        0.5000000000



     Writing output data file ./wfc-out/pwscf.save/
     NEW-OLD atomic charge density approx. for the potential

     Check: negative core charge=   -0.000004

     negative rho (up, down):  9.576E-06 0.000E+00

     total cpu time spent up to now is       20.7 secs

     Self-consistent Calculation

     iteration #  1     ecut=    60.00 Ry     beta= 0.70
     Davidson diagonalization with overlap
     ethr =  1.00E-06,  avg # of iterations =  3.2

     Threshold (ethr) on eigenvalues was too large:
     Diagonalizing with lowered threshold

     Davidson diagonalization with overlap
     ethr =  3.07E-08,  avg # of iterations =  4.8

     negative rho (up, down):  9.563E-06 0.000E+00

     total cpu time spent up to now is       22.2 secs

     total energy              =     -54.86803620 Ry
     estimated scf accuracy    <       0.00000714 Ry

     iteration #  2     ecut=    60.00 Ry     beta= 0.70
     Davidson diagonalization with overlap
     ethr =  4.46E-08,  avg # of iterations =  2.0

     negative rho (up, down):  9.564E-06 0.000E+00

     total cpu time spent up to now is       22.8 secs

     total energy              =     -54.86803724 Ry
     estimated scf accuracy    <       0.00000009 Ry

     iteration #  3     ecut=    60.00 Ry     beta= 0.70
     Davidson diagonalization with overlap
     ethr =  5.34E-10,  avg # of iterations =  5.8

     negative rho (up, down):  9.565E-06 0.000E+00

     total cpu time spent up to now is       23.8 secs

     total energy              =     -54.86803735 Ry
     estimated scf accuracy    <       0.00000002 Ry

     iteration #  4     ecut=    60.00 Ry     beta= 0.70
     Davidson diagonalization with overlap
     ethr =  1.21E-10,  avg # of iterations =  3.6

     negative rho (up, down):  9.564E-06 0.000E+00

     total cpu time spent up to now is       24.5 secs

     total energy              =     -54.86803736 Ry
     estimated scf accuracy    <          6.8E-09 Ry

     iteration #  5     ecut=    60.00 Ry     beta= 0.70
     Davidson diagonalization with overlap
     ethr =  4.24E-11,  avg # of iterations =  2.5

     negative rho (up, down):  9.564E-06 0.000E+00

     total cpu time spent up to now is       25.1 secs

     total energy              =     -54.86803736 Ry
     estimated scf accuracy    <          9.8E-10 Ry

     iteration #  6     ecut=    60.00 Ry     beta= 0.70
     Davidson diagonalization with overlap
     ethr =  6.15E-12,  avg # of iterations =  4.5

     negative rho (up, down):  9.564E-06 0.000E+00

     total cpu time spent up to now is       25.9 secs

     total energy              =     -54.86803736 Ry
     estimated scf accuracy    <          2.2E-10 Ry

     iteration #  7     ecut=    60.00 Ry     beta= 0.70
     Davidson diagonalization with overlap
     ethr =  1.36E-12,  avg # of iterations =  2.4

     negative rho (up, down):  9.564E-06 0.000E+00

     total cpu time spent up to now is       26.5 secs

     End of self-consistent calculation

          k = 0.0000 0.0000 0.0000 ( 11399 PWs)   bands (ev):

   -21.7619 -18.6155 -12.9614  -9.3389  -8.2747  -5.4257  -5.3388  -4.9289

          k = 0.0000 0.1231 0.0000 ( 11385 PWs)   bands (ev):

   -21.6880 -18.5672 -12.9030  -9.2391  -8.5614  -5.7340  -5.4917  -4.8577

          k = 0.0000 0.2462 0.0000 ( 11387 PWs)   bands (ev):

   -21.4687 -18.4329 -12.7301  -9.2988  -8.9424  -6.5450  -5.9295  -4.6555

          k = 0.0000 0.3693 0.0000 ( 11378 PWs)   bands (ev):

   -21.1104 -18.2484 -12.4535 -10.2201  -8.4562  -7.6344  -6.5903  -4.3680

          k = 0.0000 0.4924 0.0000 ( 11374 PWs)   bands (ev):

   -20.6268 -18.0875 -12.1294 -11.0138  -8.8112  -7.7958  -7.3939  -4.1035

          k = 0.0000 0.6155 0.0000 ( 11374 PWs)   bands (ev):

   -20.0428 -18.0671 -12.0498 -11.1583  -9.9463  -8.2606  -6.9892  -4.0616

          k = 0.0000 0.7386 0.0000 ( 11398 PWs)   bands (ev):

   -19.4020 -18.2991 -12.0571 -10.9363 -10.6467  -9.1250  -6.0864  -4.4367

          k = 0.0000-0.8617 0.0000 ( 11436 PWs)   bands (ev):

   -18.7816 -18.7816 -11.6781 -11.6781  -9.9353  -9.9353  -5.1811  -5.1811

          k = 0.0714 0.0000 0.0000 ( 11380 PWs)   bands (ev):

   -21.7369 -18.6913 -12.8437  -9.3052  -8.2476  -5.4761  -5.4452  -5.0469

          k = 0.0714 0.1231 0.0000 ( 11381 PWs)   bands (ev):

   -21.6632 -18.6419 -12.7878  -9.2057  -8.5341  -5.8245  -5.5491  -4.9742

          k = 0.0714 0.2462 0.0000 ( 11371 PWs)   bands (ev):

   -21.4442 -18.5038 -12.6236  -9.2686  -8.9093  -6.6479  -5.9507  -4.7676

          k = 0.0714 0.3693 0.0000 ( 11370 PWs)   bands (ev):

   -21.0867 -18.3118 -12.3697 -10.1785  -8.4241  -7.7435  -6.5743  -4.4707

          k = 0.0714 0.4924 0.0000 ( 11383 PWs)   bands (ev):

   -20.6045 -18.1378 -12.1156 -10.9208  -8.9251  -7.7651  -7.3419  -4.1873

          k = 0.0714 0.6155 0.0000 ( 11405 PWs)   bands (ev):

   -20.0231 -18.0981 -12.1415 -10.9869 -10.0626  -8.1772  -6.9615  -4.1127

          k = 0.0714 0.7386 0.0000 ( 11389 PWs)   bands (ev):

   -19.3869 -18.3090 -12.1637 -11.0527 -10.4909  -9.0144  -6.0641  -4.4506

          k = 0.0714-0.8617 0.0000 ( 11402 PWs)   bands (ev):

   -18.7756 -18.7756 -11.7913 -11.7913  -9.8017  -9.8017  -5.1704  -5.1704

          k = 0.1429 0.0000 0.0000 ( 11382 PWs)   bands (ev):

   -21.6622 -18.9001 -12.5106  -9.2047  -8.1678  -5.7545  -5.6213  -5.3637

          k = 0.1429 0.1231 0.0000 ( 11401 PWs)   bands (ev):

   -21.5889 -18.8478 -12.4616  -9.1056  -8.4526  -6.0872  -5.7177  -5.2879

          k = 0.1429 0.2462 0.0000 ( 11374 PWs)   bands (ev):

   -21.3709 -18.7002 -12.3226  -9.1785  -8.8104  -6.9160  -6.0488  -5.0706

          k = 0.1429 0.3693 0.0000 ( 11374 PWs)   bands (ev):

   -21.0158 -18.4889 -12.1351 -10.0528  -8.3276  -8.0188  -6.5779  -4.7508

          k = 0.1429 0.4924 0.0000 ( 11407 PWs)   bands (ev):

   -20.5379 -18.2806 -12.0659 -10.6606  -9.2069  -7.6737  -7.2478  -4.4198

          k = 0.1429 0.6155 0.0000 ( 11399 PWs)   bands (ev):

   -19.9639 -18.1885 -12.2936 -10.6000 -10.3459  -7.9947  -6.8785  -4.2593

          k = 0.1429 0.7386 0.0000 ( 11423 PWs)   bands (ev):

   -19.3427 -18.3391 -12.3841 -11.3307 -10.1256  -8.7586  -5.9993  -4.4939

          k = 0.1429-0.8617 0.0000 ( 11414 PWs)   bands (ev):

   -18.7588 -18.7588 -12.0500 -12.0500  -9.4853  -9.4853  -5.1417  -5.1416

          k = 0.2143 0.0000 0.0000 ( 11392 PWs)   bands (ev):

   -21.5385 -19.1994 -12.0068  -9.0380  -8.0363  -6.2351  -5.8450  -5.8046

          k = 0.2143 0.1231 0.0000 ( 11408 PWs)   bands (ev):

   -21.4658 -19.1435 -11.9685  -8.9396  -8.3180  -6.5026  -5.9756  -5.7249

          k = 0.2143 0.2462 0.0000 ( 11383 PWs)   bands (ev):

   -21.2498 -18.9839 -11.8691  -9.0284  -8.6467  -7.2901  -6.2608  -5.4945

          k = 0.2143 0.3693 0.0000 ( 11398 PWs)   bands (ev):

   -20.8985 -18.7483 -11.7900  -9.8387  -8.3837  -8.1682  -6.6747  -5.1462

          k = 0.2143 0.4924 0.0000 ( 11410 PWs)   bands (ev):

   -20.4278 -18.4953 -11.9675 -10.2726  -9.5686  -7.5224  -7.2073  -4.7568

          k = 0.2143 0.6155 0.0000 ( 11402 PWs)   bands (ev):

   -19.8672 -18.3308 -12.3960 -10.7010 -10.1225  -7.8221  -6.7424  -4.4857

          k = 0.2143 0.7386 0.0000 ( 11435 PWs)   bands (ev):

   -19.2709 -18.3910 -12.5987 -11.6659  -9.6797  -8.4718  -5.8936  -4.5698

          k = 0.2143-0.8617 0.0000 ( 11446 PWs)   bands (ev):

   -18.7340 -18.7340 -12.3421 -12.3421  -9.1073  -9.1073  -5.0991  -5.0991

          k = 0.2857 0.0000 0.0000 ( 11396 PWs)   bands (ev):

   -21.3670 -19.5459 -11.3795  -8.8067  -7.8560  -6.8489  -6.3018  -6.1243

          k = 0.2857 0.1231 0.0000 ( 11410 PWs)   bands (ev):

   -21.2951 -19.4866 -11.3554  -8.7091  -8.1333  -7.0476  -6.2916  -6.2182

          k = 0.2857 0.2462 0.0000 ( 11408 PWs)   bands (ev):

   -21.0820 -19.3152 -11.3108  -8.8184  -8.4195  -7.7369  -6.5837  -5.9750

          k = 0.2857 0.3693 0.0000 ( 11396 PWs)   bands (ev):

   -20.7364 -19.0549 -11.3811  -9.5325  -8.7912  -7.9474  -6.8972  -5.5986

          k = 0.2857 0.4924 0.0000 ( 11410 PWs)   bands (ev):

   -20.2761 -18.7564 -11.8152  -9.9579  -9.7981  -7.3133  -7.2780  -5.1524

          k = 0.2857 0.6155 0.0000 ( 11425 PWs)   bands (ev):

   -19.7349 -18.5137 -12.4189 -11.0703  -9.6101  -7.7309  -6.5558  -4.7701

          k = 0.2857 0.7386 0.0000 ( 11431 PWs)   bands (ev):

   -19.1753 -18.4656 -12.7543 -11.9989  -9.2208  -8.2319  -5.7516  -4.6812

          k = 0.2857-0.8617 0.0000 ( 11454 PWs)   bands (ev):

   -18.7059 -18.7059 -12.6067 -12.6067  -8.7428  -8.7428  -5.0502  -5.0502

          k = 0.3571 0.0000 0.0000 ( 11396 PWs)   bands (ev):

   -21.1497 -19.9070 -10.6680  -8.5128  -7.6310  -7.5560  -6.8094  -6.4354

          k = 0.3571 0.1231 0.0000 ( 11392 PWs)   bands (ev):

   -21.0789 -19.8444 -10.6619  -8.4166  -7.9014  -7.6937  -6.7222  -6.6350

          k = 0.3571 0.2462 0.0000 ( 11384 PWs)   bands (ev):

   -20.8696 -19.6624 -10.6899  -8.5485  -8.2418  -8.1310  -6.9845  -6.4672

          k = 0.3571 0.3693 0.0000 ( 11400 PWs)   bands (ev):

   -20.5315 -19.3805 -10.9477  -9.2163  -9.1384  -7.6676  -7.2413  -6.0667

          k = 0.3571 0.4924 0.0000 ( 11427 PWs)   bands (ev):

   -20.0855 -19.0405 -11.6096 -10.3457  -9.2771  -7.4814  -7.0495  -5.5709

          k = 0.3571 0.6155 0.0000 ( 11448 PWs)   bands (ev):

   -19.5708 -18.7237 -12.3586 -11.4233  -9.0996  -7.7614  -6.3229  -5.0890

          k = 0.3571 0.7386 0.0000 ( 11464 PWs)   bands (ev):

   -19.0610 -18.5621 -12.8298 -12.2981  -8.7949  -8.0875  -5.5814  -4.8271

          k = 0.3571-0.8617 0.0000 ( 11430 PWs)   bands (ev):

   -18.6798 -18.6798 -12.8130 -12.8130  -8.4423  -8.4423  -5.0042  -5.0042

          k = 0.4286 0.0000 0.0000 ( 11364 PWs)   bands (ev):

   -20.8896 -20.2600  -9.9030  -8.3208  -8.1599  -7.3673  -7.2988  -6.7568

          k = 0.4286 0.1231 0.0000 ( 11380 PWs)   bands (ev):

   -20.8203 -20.1949  -9.9209  -8.4086  -8.0653  -7.6271  -7.2088  -6.9829

          k = 0.4286 0.2462 0.0000 ( 11392 PWs)   bands (ev):

   -20.6157 -20.0040 -10.0441  -8.7996  -8.2203  -7.7853  -7.4174  -6.9441

          k = 0.4286 0.3693 0.0000 ( 11396 PWs)   bands (ev):

   -20.2875 -19.7035 -10.5115  -9.6469  -8.6736  -7.6802  -7.3327  -6.5225

          k = 0.4286 0.4924 0.0000 ( 11446 PWs)   bands (ev):

   -19.8600 -19.3283 -11.3540 -10.7147  -8.7469  -7.8125  -6.7356  -5.9856

          k = 0.4286 0.6155 0.0000 ( 11463 PWs)   bands (ev):

   -19.3797 -18.9464 -12.2196 -11.7414  -8.6260  -7.9282  -6.0499  -5.4203

          k = 0.4286 0.7386 0.0000 ( 11461 PWs)   bands (ev):

   -18.9346 -18.6768 -12.8179 -12.5434  -8.4397  -8.0698  -5.3916  -5.0012

          k = 0.4286-0.8617 0.0000 ( 11448 PWs)   bands (ev):

   -18.6614 -18.6614 -12.9436 -12.9436  -8.2446  -8.2446  -4.9717  -4.9717

          k =-0.5000 0.0000 0.0000 ( 11368 PWs)   bands (ev):

   -20.5909 -20.5909  -9.1123  -9.1123  -7.7527  -7.7527  -7.0724  -7.0724

          k =-0.5000 0.1231 0.0000 ( 11372 PWs)   bands (ev):

   -20.5234 -20.5234  -9.1607  -9.1607  -7.6601  -7.6601  -7.3180  -7.3180

          k =-0.5000 0.2462 0.0000 ( 11360 PWs)   bands (ev):

   -20.3249 -20.3249  -9.4053  -9.4053  -7.8385  -7.8385  -7.3870  -7.3870

          k =-0.5000 0.3693 0.0000 ( 11404 PWs)   bands (ev):

   -20.0093 -20.0092 -10.0785 -10.0785  -8.1729  -8.1729  -6.9485  -6.9485

          k =-0.5000 0.4924 0.0000 ( 11434 PWs)   bands (ev):

   -19.6050 -19.6050 -11.0535 -11.0535  -8.2460  -8.2459  -6.3779  -6.3779

          k =-0.5000 0.6155 0.0000 ( 11462 PWs)   bands (ev):

   -19.1687 -19.1687 -12.0106 -12.0106  -8.2244  -8.2244  -5.7453  -5.7453

          k =-0.5000 0.7386 0.0000 ( 11464 PWs)   bands (ev):

   -18.8037 -18.8037 -12.7201 -12.7201  -8.1901  -8.1901  -5.1938  -5.1938

          k =-0.5000-0.8617 0.0000 ( 11432 PWs)   bands (ev):

   -18.6548 -18.6547 -12.9882 -12.9882  -8.1751  -8.1751  -4.9597  -4.9597

     highest occupied level (ev):    -4.0616

!    total energy              =     -54.86803736 Ry
     estimated scf accuracy    <          2.8E-11 Ry

     The total energy is the sum of the following terms:
     one-electron contribution =    -445.04903752 Ry
     hartree contribution      =     225.79350059 Ry
     xc contribution           =     -18.64940471 Ry
     ewald contribution        =     183.03690427 Ry

     convergence has been achieved in   7 iterations

     negative rho (up, down):  9.564E-06 0.000E+00

     Forces acting on atoms (cartesian axes, Ry/au):

     atom    1 type  2   force =     0.00196568    0.00000000    0.00000000
     atom    2 type  1   force =    -0.00196542    0.00000000    0.00000000
     atom    3 type  2   force =     0.00196664    0.00000000    0.00000000
     atom    4 type  1   force =    -0.00196690    0.00000000    0.00000000

     Total force =     0.003932     Total SCF correction =     0.000008

     number of scf cycles    =   2
     number of bfgs steps    =   1

     energy   old            =     -54.8680340946 Ry
     energy   new            =     -54.8680373604 Ry

     CASE: energy  _new < energy  _old

     new trust radius        =       0.0011200669 bohr
     new conv_thr            =            3.3E-12 Ry


ATOMIC_POSITIONS (crystal)
N            -0.0001674138        0.0000000000        0.5000000000
B             0.3335259071        0.0000000000        0.5000000000
N             0.4998325758        0.5000000000        0.5000000000
B             0.8335259309        0.5000000000        0.5000000000



     Writing output data file ./wfc-out/pwscf.save/
     NEW-OLD atomic charge density approx. for the potential

     Check: negative core charge=   -0.000004

     negative rho (up, down):  9.566E-06 0.000E+00

     total cpu time spent up to now is       29.8 secs

     Self-consistent Calculation

     iteration #  1     ecut=    60.00 Ry     beta= 0.70
     Davidson diagonalization with overlap
     ethr =  1.00E-06,  avg # of iterations =  2.5

     Threshold (ethr) on eigenvalues was too large:
     Diagonalizing with lowered threshold

     Davidson diagonalization with overlap
     ethr =  4.17E-09,  avg # of iterations =  5.8

     negative rho (up, down):  9.565E-06 0.000E+00

     total cpu time spent up to now is       31.3 secs

     total energy              =     -54.86804157 Ry
     estimated scf accuracy    <       0.00000132 Ry

     iteration #  2     ecut=    60.00 Ry     beta= 0.70
     Davidson diagonalization with overlap
     ethr =  8.27E-09,  avg # of iterations =  2.0

     negative rho (up, down):  9.564E-06 0.000E+00

     total cpu time spent up to now is       31.9 secs

     total energy              =     -54.86804176 Ry
     estimated scf accuracy    <       0.00000002 Ry

     iteration #  3     ecut=    60.00 Ry     beta= 0.70
     Davidson diagonalization with overlap
     ethr =  9.62E-11,  avg # of iterations =  5.4

     negative rho (up, down):  9.564E-06 0.000E+00

     total cpu time spent up to now is       32.9 secs

     total energy              =     -54.86804177 Ry
     estimated scf accuracy    <          2.9E-09 Ry

     iteration #  4     ecut=    60.00 Ry     beta= 0.70
     Davidson diagonalization with overlap
     ethr =  1.80E-11,  avg # of iterations =  3.8

     negative rho (up, down):  9.564E-06 0.000E+00

     total cpu time spent up to now is       33.6 secs

     total energy              =     -54.86804178 Ry
     estimated scf accuracy    <          6.6E-10 Ry

     iteration #  5     ecut=    60.00 Ry     beta= 0.70
     Davidson diagonalization with overlap
     ethr =  4.10E-12,  avg # of iterations =  3.0

     negative rho (up, down):  9.564E-06 0.000E+00

     total cpu time spent up to now is       34.3 secs

     total energy              =     -54.86804178 Ry
     estimated scf accuracy    <          1.2E-10 Ry

     iteration #  6     ecut=    60.00 Ry     beta= 0.70
     Davidson diagonalization with overlap
     ethr =  7.25E-13,  avg # of iterations =  4.5

     negative rho (up, down):  9.564E-06 0.000E+00

     total cpu time spent up to now is       35.1 secs

     total energy              =     -54.86804178 Ry
     estimated scf accuracy    <          2.5E-11 Ry

     iteration #  7     ecut=    60.00 Ry     beta= 0.70
     Davidson diagonalization with overlap
     ethr =  1.53E-13,  avg # of iterations =  2.6

     negative rho (up, down):  9.564E-06 0.000E+00

     total cpu time spent up to now is       35.7 secs

     total energy              =     -54.86804178 Ry
     estimated scf accuracy    <          3.5E-12 Ry

     iteration #  8     ecut=    60.00 Ry     beta= 0.70
     Davidson diagonalization with overlap
     ethr =  1.00E-13,  avg # of iterations =  2.0

     negative rho (up, down):  9.564E-06 0.000E+00

     total cpu time spent up to now is       36.3 secs

     End of self-consistent calculation

          k = 0.0000 0.0000 0.0000 ( 11399 PWs)   bands (ev):

   -21.7619 -18.6173 -12.9637  -9.3389  -8.2675  -5.4118  -5.3527  -4.9245

          k = 0.0000 0.1231 0.0000 ( 11385 PWs)   bands (ev):

   -21.6880 -18.5690 -12.9053  -9.2392  -8.5546  -5.7209  -5.5052  -4.8534

          k = 0.0000 0.2462 0.0000 ( 11387 PWs)   bands (ev):

   -21.4686 -18.4344 -12.7324  -9.2930  -8.9426  -6.5340  -5.9415  -4.6517

          k = 0.0000 0.3693 0.0000 ( 11378 PWs)   bands (ev):

   -21.1102 -18.2495 -12.4558 -10.2156  -8.4566  -7.6258  -6.6004  -4.3651

          k = 0.0000 0.4924 0.0000 ( 11374 PWs)   bands (ev):

   -20.6264 -18.0880 -12.1312 -11.0112  -8.8048  -7.7965  -7.4019  -4.1022

          k = 0.0000 0.6155 0.0000 ( 11374 PWs)   bands (ev):

   -20.0421 -18.0669 -12.0489 -11.1597  -9.9419  -8.2670  -6.9903  -4.0623

          k = 0.0000 0.7386 0.0000 ( 11398 PWs)   bands (ev):

   -19.4011 -18.2984 -12.0555 -10.9333 -10.6496  -9.1299  -6.0879  -4.4387

          k = 0.0000-0.8617 0.0000 ( 11436 PWs)   bands (ev):

   -18.7807 -18.7807 -11.6761 -11.6761  -9.9391  -9.9391  -5.1831  -5.1831

          k = 0.0714 0.0000 0.0000 ( 11380 PWs)   bands (ev):

   -21.7369 -18.6930 -12.8461  -9.3052  -8.2404  -5.4624  -5.4588  -5.0427

          k = 0.0714 0.1231 0.0000 ( 11381 PWs)   bands (ev):

   -21.6632 -18.6436 -12.7902  -9.2057  -8.5273  -5.8159  -5.5580  -4.9702

          k = 0.0714 0.2462 0.0000 ( 11371 PWs)   bands (ev):

   -21.4441 -18.5052 -12.6260  -9.2628  -8.9095  -6.6389  -5.9606  -4.7640

          k = 0.0714 0.3693 0.0000 ( 11370 PWs)   bands (ev):

   -21.0865 -18.3128 -12.3720 -10.1741  -8.4244  -7.7361  -6.5831  -4.4680

          k = 0.0714 0.4924 0.0000 ( 11383 PWs)   bands (ev):

   -20.6041 -18.1383 -12.1170 -10.9186  -8.9194  -7.7658  -7.3492  -4.1862

          k = 0.0714 0.6155 0.0000 ( 11405 PWs)   bands (ev):

   -20.0225 -18.0980 -12.1406 -10.9882 -10.0586  -8.1831  -6.9626  -4.1134

          k = 0.0714 0.7386 0.0000 ( 11389 PWs)   bands (ev):

   -19.3860 -18.3082 -12.1623 -11.0500 -10.4937  -9.0190  -6.0657  -4.4526

          k = 0.0714-0.8617 0.0000 ( 11402 PWs)   bands (ev):

   -18.7747 -18.7747 -11.7895 -11.7895  -9.8053  -9.8053  -5.1725  -5.1725

          k = 0.1429 0.0000 0.0000 ( 11382 PWs)   bands (ev):

   -21.6622 -18.9016 -12.5134  -9.2046  -8.1604  -5.7672  -5.6081  -5.3602

          k = 0.1429 0.1231 0.0000 ( 11401 PWs)   bands (ev):

   -21.5889 -18.8493 -12.4643  -9.1056  -8.4456  -6.0861  -5.7188  -5.2846

          k = 0.1429 0.2462 0.0000 ( 11374 PWs)   bands (ev):

   -21.3709 -18.7015 -12.3253  -9.1727  -8.8106  -6.9104  -6.0551  -5.0677

          k = 0.1429 0.3693 0.0000 ( 11374 PWs)   bands (ev):

   -21.0156 -18.4899 -12.1374 -10.0485  -8.3279  -8.0133  -6.5848  -4.7486

          k = 0.1429 0.4924 0.0000 ( 11407 PWs)   bands (ev):

   -20.5375 -18.2811 -12.0666 -10.6592  -9.2025  -7.6743  -7.2539  -4.4189

          k = 0.1429 0.6155 0.0000 ( 11399 PWs)   bands (ev):

   -19.9633 -18.1883 -12.2926 -10.6015 -10.3428  -7.9998  -6.8795  -4.2601

          k = 0.1429 0.7386 0.0000 ( 11423 PWs)   bands (ev):

   -19.3419 -18.3384 -12.3829 -11.3286 -10.1283  -8.7628  -6.0008  -4.4958

          k = 0.1429-0.8617 0.0000 ( 11414 PWs)   bands (ev):

   -18.7579 -18.7579 -12.0486 -12.0486  -9.4887  -9.4887  -5.1437  -5.1437

          k = 0.2143 0.0000 0.0000 ( 11392 PWs)   bands (ev):

   -21.5386 -19.2007 -12.0101  -9.0379  -8.0287  -6.2468  -5.8326  -5.8020

          k = 0.2143 0.1231 0.0000 ( 11408 PWs)   bands (ev):

   -21.4659 -19.1448 -11.9718  -8.9396  -8.3109  -6.5067  -5.9711  -5.7224

          k = 0.2143 0.2462 0.0000 ( 11383 PWs)   bands (ev):

   -21.2497 -18.9850 -11.8722  -9.0225  -8.6467  -7.2873  -6.2641  -5.4922

          k = 0.2143 0.3693 0.0000 ( 11398 PWs)   bands (ev):

   -20.8983 -18.7490 -11.7922  -9.8348  -8.3797  -8.1685  -6.6799  -5.1446

          k = 0.2143 0.4924 0.0000 ( 11410 PWs)   bands (ev):

   -20.4274 -18.4956 -11.9676 -10.2721  -9.5651  -7.5230  -7.2125  -4.7562

          k = 0.2143 0.6155 0.0000 ( 11402 PWs)   bands (ev):

   -19.8666 -18.3305 -12.3948 -10.6984 -10.1243  -7.8267  -6.7434  -4.4865

          k = 0.2143 0.7386 0.0000 ( 11435 PWs)   bands (ev):

   -19.2701 -18.3903 -12.5975 -11.6641  -9.6824  -8.4758  -5.8952  -4.5718

          k = 0.2143-0.8617 0.0000 ( 11446 PWs)   bands (ev):

   -18.7331 -18.7331 -12.3408 -12.3408  -9.1106  -9.1106  -5.1012  -5.1012

          k = 0.2857 0.0000 0.0000 ( 11396 PWs)   bands (ev):

   -21.3672 -19.5470 -11.3834  -8.8065  -7.8481  -6.8592  -6.2998  -6.1127

          k = 0.2857 0.1231 0.0000 ( 11410 PWs)   bands (ev):

   -21.2952 -19.4877 -11.3593  -8.7090  -8.1259  -7.0542  -6.2841  -6.2164

          k = 0.2857 0.2462 0.0000 ( 11408 PWs)   bands (ev):

   -21.0820 -19.3161 -11.3143  -8.8124  -8.4194  -7.7364  -6.5843  -5.9733

          k = 0.2857 0.3693 0.0000 ( 11396 PWs)   bands (ev):

   -20.7363 -19.0555 -11.3830  -9.5293  -8.7884  -7.9476  -6.9010  -5.5975

          k = 0.2857 0.4924 0.0000 ( 11410 PWs)   bands (ev):

   -20.2758 -18.7566 -11.8146  -9.9551  -9.7985  -7.3138  -7.2824  -5.1521

          k = 0.2857 0.6155 0.0000 ( 11425 PWs)   bands (ev):

   -19.7344 -18.5135 -12.4176 -11.0681  -9.6123  -7.7351  -6.5568  -4.7710

          k = 0.2857 0.7386 0.0000 ( 11431 PWs)   bands (ev):

   -19.1745 -18.4649 -12.7531 -11.9973  -9.2237  -8.2357  -5.7532  -4.6832

          k = 0.2857-0.8617 0.0000 ( 11454 PWs)   bands (ev):

   -18.7050 -18.7050 -12.6055 -12.6055  -8.7461  -8.7461  -5.0524  -5.0524

          k = 0.3571 0.0000 0.0000 ( 11396 PWs)   bands (ev):

   -21.1500 -19.9078 -10.6727  -8.5125  -7.6227  -7.5650  -6.8080  -6.4246

          k = 0.3571 0.1231 0.0000 ( 11392 PWs)   bands (ev):

   -21.0792 -19.8453 -10.6665  -8.4163  -7.8937  -7.7009  -6.7208  -6.6265

          k = 0.3571 0.2462 0.0000 ( 11384 PWs)   bands (ev):

   -20.8697 -19.6631 -10.6937  -8.5426  -8.2431  -8.1309  -6.9828  -6.4661

          k = 0.3571 0.3693 0.0000 ( 11400 PWs)   bands (ev):

   -20.5315 -19.3810 -10.9490  -9.2143  -9.1362  -7.6677  -7.2439  -6.0659

          k = 0.3571 0.4924 0.0000 ( 11427 PWs)   bands (ev):

   -20.0853 -19.0407 -11.6086 -10.3433  -9.2783  -7.4853  -7.0500  -5.5709

          k = 0.3571 0.6155 0.0000 ( 11448 PWs)   bands (ev):

   -19.5702 -18.7234 -12.3571 -11.4213  -9.1022  -7.7654  -6.3239  -5.0899

          k = 0.3571 0.7386 0.0000 ( 11464 PWs)   bands (ev):

   -19.0603 -18.5615 -12.8285 -12.2967  -8.7981  -8.0913  -5.5831  -4.8290

          k = 0.3571-0.8617 0.0000 ( 11430 PWs)   bands (ev):

   -18.6789 -18.6789 -12.8118 -12.8118  -8.4458  -8.4458  -5.0064  -5.0064

          k = 0.4286 0.0000 0.0000 ( 11364 PWs)   bands (ev):

   -20.8899 -20.2607  -9.9087  -8.3286  -8.1594  -7.3586  -7.2978  -6.7468

          k = 0.4286 0.1231 0.0000 ( 11380 PWs)   bands (ev):

   -20.8206 -20.1955  -9.9263  -8.4154  -8.0649  -7.6190  -7.2078  -6.9743

          k = 0.4286 0.2462 0.0000 ( 11392 PWs)   bands (ev):

   -20.6160 -20.0045 -10.0481  -8.8024  -8.2147  -7.7850  -7.4138  -6.9433

          k = 0.4286 0.3693 0.0000 ( 11396 PWs)   bands (ev):

   -20.2876 -19.7038 -10.5121  -9.6458  -8.6725  -7.6816  -7.3327  -6.5221

          k = 0.4286 0.4924 0.0000 ( 11446 PWs)   bands (ev):

   -19.8598 -19.3284 -11.3526 -10.7127  -8.7489  -7.8158  -6.7360  -5.9858

          k = 0.4286 0.6155 0.0000 ( 11463 PWs)   bands (ev):

   -19.3793 -18.9460 -12.2181 -11.7395  -8.6290  -7.9319  -6.0509  -5.4212

          k = 0.4286 0.7386 0.0000 ( 11461 PWs)   bands (ev):

   -18.9338 -18.6762 -12.8166 -12.5420  -8.4431  -8.0736  -5.3933  -5.0031

          k = 0.4286-0.8617 0.0000 ( 11448 PWs)   bands (ev):

   -18.6606 -18.6606 -12.9424 -12.9424  -8.2482  -8.2482  -4.9739  -4.9739

          k =-0.5000 0.0000 0.0000 ( 11368 PWs)   bands (ev):

   -20.5914 -20.5914  -9.1189  -9.1189  -7.7520  -7.7520  -7.0631  -7.0631

          k =-0.5000 0.1231 0.0000 ( 11372 PWs)   bands (ev):

   -20.5239 -20.5239  -9.1668  -9.1668  -7.6595  -7.6595  -7.3096  -7.3096

          k =-0.5000 0.2462 0.0000 ( 11360 PWs)   bands (ev):

   -20.3253 -20.3253  -9.4090  -9.4090  -7.8336  -7.8336  -7.3865  -7.3865

          k =-0.5000 0.3693 0.0000 ( 11404 PWs)   bands (ev):

   -20.0094 -20.0094 -10.0782 -10.0782  -8.1731  -8.1731  -6.9483  -6.9483

          k =-0.5000 0.4924 0.0000 ( 11434 PWs)   bands (ev):

   -19.6049 -19.6049 -11.0518 -11.0518  -8.2486  -8.2486  -6.3782  -6.3782

          k =-0.5000 0.6155 0.0000 ( 11462 PWs)   bands (ev):

   -19.1683 -19.1683 -12.0089 -12.0089  -8.2278  -8.2278  -5.7463  -5.7463

          k =-0.5000 0.7386 0.0000 ( 11464 PWs)   bands (ev):

   -18.8030 -18.8030 -12.7188 -12.7188  -8.1937  -8.1937  -5.1956  -5.1956

          k =-0.5000-0.8617 0.0000 ( 11432 PWs)   bands (ev):

   -18.6539 -18.6539 -12.9870 -12.9870  -8.1788  -8.1788  -4.9619  -4.9619

     highest occupied level (ev):    -4.0623

!    total energy              =     -54.86804178 Ry
     estimated scf accuracy    <          4.4E-14 Ry

     The total energy is the sum of the following terms:
     one-electron contribution =    -445.04921481 Ry
     hartree contribution      =     225.79357351 Ry
     xc contribution           =     -18.64942006 Ry
     ewald contribution        =     183.03701958 Ry

     convergence has been achieved in   8 iterations

     negative rho (up, down):  9.564E-06 0.000E+00

     Forces acting on atoms (cartesian axes, Ry/au):

     atom    1 type  2   force =     0.00000363    0.00000000    0.00000000
     atom    2 type  1   force =    -0.00000355    0.00000000    0.00000000
     atom    3 type  2   force =     0.00000375    0.00000000    0.00000000
     atom    4 type  1   force =    -0.00000383    0.00000000    0.00000000

     Total force =     0.000007     Total SCF correction =     0.000000

     number of scf cycles    =   3
     number of bfgs steps    =   2

     energy   old            =     -54.8680373604 Ry
     energy   new            =     -54.8680417755 Ry

     CASE: energy  _new < energy  _old

     small trust_radius: resetting bfgs history

     new trust radius        =       0.0000038272 bohr
     new conv_thr            =            1.0E-12 Ry


ATOMIC_POSITIONS (crystal)
N            -0.0001669677        0.0000000000        0.5000000000
B             0.3335254708        0.0000000000        0.5000000000
N             0.4998330361        0.5000000000        0.5000000000
B             0.8335254608        0.5000000000        0.5000000000



     Writing output data file ./wfc-out/pwscf.save/
     NEW-OLD atomic charge density approx. for the potential

     Check: negative core charge=   -0.000004

     negative rho (up, down):  9.564E-06 0.000E+00

     total cpu time spent up to now is       39.5 secs

     Self-consistent Calculation

     iteration #  1     ecut=    60.00 Ry     beta= 0.70
     Davidson diagonalization with overlap
     ethr =  1.00E-06,  avg # of iterations =  1.0

     Threshold (ethr) on eigenvalues was too large:
     Diagonalizing with lowered threshold

     Davidson diagonalization with overlap
     ethr =  1.00E-14,  avg # of iterations =  9.4

     negative rho (up, down):  9.564E-06 0.000E+00

     total cpu time spent up to now is       41.4 secs

     total energy              =     -54.86804178 Ry
     estimated scf accuracy    <          1.6E-11 Ry

     iteration #  2     ecut=    60.00 Ry     beta= 0.70
     Davidson diagonalization with overlap
     ethr =  1.00E-13,  avg # of iterations =  2.0

     negative rho (up, down):  9.564E-06 0.000E+00

     total cpu time spent up to now is       42.0 secs

     End of self-consistent calculation

          k = 0.0000 0.0000 0.0000 ( 11399 PWs)   bands (ev):

   -21.7619 -18.6173 -12.9637  -9.3389  -8.2674  -5.4117  -5.3528  -4.9244

          k = 0.0000 0.1231 0.0000 ( 11385 PWs)   bands (ev):

   -21.6880 -18.5690 -12.9053  -9.2392  -8.5545  -5.7209  -5.5052  -4.8534

          k = 0.0000 0.2462 0.0000 ( 11387 PWs)   bands (ev):

   -21.4686 -18.4344 -12.7324  -9.2930  -8.9426  -6.5340  -5.9416  -4.6517

          k = 0.0000 0.3693 0.0000 ( 11378 PWs)   bands (ev):

   -21.1102 -18.2495 -12.4558 -10.2156  -8.4566  -7.6257  -6.6004  -4.3651

          k = 0.0000 0.4924 0.0000 ( 11374 PWs)   bands (ev):

   -20.6264 -18.0880 -12.1312 -11.0112  -8.8048  -7.7965  -7.4020  -4.1022

          k = 0.0000 0.6155 0.0000 ( 11374 PWs)   bands (ev):

   -20.0421 -18.0669 -12.0489 -11.1597  -9.9418  -8.2670  -6.9903  -4.0623

          k = 0.0000 0.7386 0.0000 ( 11398 PWs)   bands (ev):

   -19.4011 -18.2984 -12.0555 -10.9333 -10.6496  -9.1300  -6.0879  -4.4387

          k = 0.0000-0.8617 0.0000 ( 11436 PWs)   bands (ev):

   -18.7807 -18.7807 -11.6761 -11.6761  -9.9391  -9.9391  -5.1832  -5.1832

          k = 0.0714 0.0000 0.0000 ( 11380 PWs)   bands (ev):

   -21.7369 -18.6930 -12.8461  -9.3052  -8.2403  -5.4624  -5.4589  -5.0427

          k = 0.0714 0.1231 0.0000 ( 11381 PWs)   bands (ev):

   -21.6632 -18.6436 -12.7902  -9.2057  -8.5272  -5.8158  -5.5581  -4.9702

          k = 0.0714 0.2462 0.0000 ( 11371 PWs)   bands (ev):

   -21.4441 -18.5052 -12.6260  -9.2628  -8.9095  -6.6389  -5.9606  -4.7640

          k = 0.0714 0.3693 0.0000 ( 11370 PWs)   bands (ev):

   -21.0865 -18.3128 -12.3720 -10.1741  -8.4244  -7.7360  -6.5832  -4.4680

          k = 0.0714 0.4924 0.0000 ( 11383 PWs)   bands (ev):

   -20.6041 -18.1383 -12.1170 -10.9185  -8.9194  -7.7658  -7.3492  -4.1861

          k = 0.0714 0.6155 0.0000 ( 11405 PWs)   bands (ev):

   -20.0224 -18.0980 -12.1406 -10.9882 -10.0586  -8.1831  -6.9626  -4.1134

          k = 0.0714 0.7386 0.0000 ( 11389 PWs)   bands (ev):

   -19.3860 -18.3082 -12.1623 -11.0500 -10.4937  -9.0190  -6.0657  -4.4526

          k = 0.0714-0.8617 0.0000 ( 11402 PWs)   bands (ev):

   -18.7747 -18.7747 -11.7895 -11.7895  -9.8053  -9.8053  -5.1725  -5.1725

          k = 0.1429 0.0000 0.0000 ( 11382 PWs)   bands (ev):

   -21.6622 -18.9016 -12.5134  -9.2046  -8.1603  -5.7673  -5.6080  -5.3602

          k = 0.1429 0.1231 0.0000 ( 11401 PWs)   bands (ev):

   -21.5889 -18.8493 -12.4643  -9.1056  -8.4456  -6.0861  -5.7188  -5.2846

          k = 0.1429 0.2462 0.0000 ( 11374 PWs)   bands (ev):

   -21.3709 -18.7015 -12.3253  -9.1726  -8.8106  -6.9104  -6.0551  -5.0677

          k = 0.1429 0.3693 0.0000 ( 11374 PWs)   bands (ev):

   -21.0156 -18.4899 -12.1374 -10.0485  -8.3279  -8.0133  -6.5848  -4.7486

          k = 0.1429 0.4924 0.0000 ( 11407 PWs)   bands (ev):

   -20.5375 -18.2811 -12.0666 -10.6592  -9.2025  -7.6743  -7.2539  -4.4189

          k = 0.1429 0.6155 0.0000 ( 11399 PWs)   bands (ev):

   -19.9633 -18.1883 -12.2926 -10.6015 -10.3428  -7.9998  -6.8795  -4.2601

          k = 0.1429 0.7386 0.0000 ( 11423 PWs)   bands (ev):

   -19.3419 -18.3384 -12.3829 -11.3286 -10.1283  -8.7628  -6.0008  -4.4958

          k = 0.1429-0.8617 0.0000 ( 11414 PWs)   bands (ev):

   -18.7579 -18.7579 -12.0486 -12.0486  -9.4887  -9.4887  -5.1437  -5.1437

          k = 0.2143 0.0000 0.0000 ( 11392 PWs)   bands (ev):

   -21.5386 -19.2007 -12.0102  -9.0379  -8.0286  -6.2468  -5.8325  -5.8020

          k = 0.2143 0.1231 0.0000 ( 11408 PWs)   bands (ev):

   -21.4659 -19.1448 -11.9718  -8.9396  -8.3108  -6.5067  -5.9710  -5.7224

          k = 0.2143 0.2462 0.0000 ( 11383 PWs)   bands (ev):

   -21.2497 -18.9850 -11.8722  -9.0224  -8.6467  -7.2873  -6.2641  -5.4922

          k = 0.2143 0.3693 0.0000 ( 11398 PWs)   bands (ev):

   -20.8983 -18.7490 -11.7922  -9.8348  -8.3797  -8.1685  -6.6799  -5.1446

          k = 0.2143 0.4924 0.0000 ( 11410 PWs)   bands (ev):

   -20.4274 -18.4956 -11.9676 -10.2721  -9.5651  -7.5230  -7.2125  -4.7562

          k = 0.2143 0.6155 0.0000 ( 11402 PWs)   bands (ev):

   -19.8666 -18.3305 -12.3948 -10.6984 -10.1243  -7.8267  -6.7434  -4.4865

          k = 0.2143 0.7386 0.0000 ( 11435 PWs)   bands (ev):

   -19.2701 -18.3903 -12.5975 -11.6641  -9.6824  -8.4758  -5.8952  -4.5718

          k = 0.2143-0.8617 0.0000 ( 11446 PWs)   bands (ev):

   -18.7331 -18.7331 -12.3408 -12.3408  -9.1106  -9.1106  -5.1012  -5.1012

          k = 0.2857 0.0000 0.0000 ( 11396 PWs)   bands (ev):

   -21.3672 -19.5470 -11.3835  -8.8065  -7.8481  -6.8592  -6.2998  -6.1126

          k = 0.2857 0.1231 0.0000 ( 11410 PWs)   bands (ev):

   -21.2952 -19.4877 -11.3593  -8.7090  -8.1259  -7.0542  -6.2841  -6.2164

          k = 0.2857 0.2462 0.0000 ( 11408 PWs)   bands (ev):

   -21.0820 -19.3161 -11.3143  -8.8124  -8.4194  -7.7364  -6.5843  -5.9733

          k = 0.2857 0.3693 0.0000 ( 11396 PWs)   bands (ev):

   -20.7363 -19.0555 -11.3830  -9.5292  -8.7884  -7.9476  -6.9010  -5.5975

          k = 0.2857 0.4924 0.0000 ( 11410 PWs)   bands (ev):

   -20.2758 -18.7566 -11.8146  -9.9551  -9.7985  -7.3138  -7.2824  -5.1521

          k = 0.2857 0.6155 0.0000 ( 11425 PWs)   bands (ev):

   -19.7344 -18.5135 -12.4176 -11.0681  -9.6123  -7.7352  -6.5568  -4.7710

          k = 0.2857 0.7386 0.0000 ( 11431 PWs)   bands (ev):

   -19.1745 -18.4649 -12.7531 -11.9973  -9.2238  -8.2357  -5.7532  -4.6832

          k = 0.2857-0.8617 0.0000 ( 11454 PWs)   bands (ev):

   -18.7050 -18.7050 -12.6055 -12.6055  -8.7462  -8.7462  -5.0524  -5.0524

          k = 0.3571 0.0000 0.0000 ( 11396 PWs)   bands (ev):

   -21.1500 -19.9078 -10.6728  -8.5125  -7.6227  -7.5650  -6.8080  -6.4245

          k = 0.3571 0.1231 0.0000 ( 11392 PWs)   bands (ev):

   -21.0792 -19.8453 -10.6665  -8.4163  -7.8936  -7.7009  -6.7208  -6.6265

          k = 0.3571 0.2462 0.0000 ( 11384 PWs)   bands (ev):

   -20.8697 -19.6631 -10.6937  -8.5425  -8.2431  -8.1309  -6.9828  -6.4661

          k = 0.3571 0.3693 0.0000 ( 11400 PWs)   bands (ev):

   -20.5315 -19.3810 -10.9490  -9.2143  -9.1361  -7.6677  -7.2439  -6.0659

          k = 0.3571 0.4924 0.0000 ( 11427 PWs)   bands (ev):

   -20.0853 -19.0407 -11.6086 -10.3433  -9.2783  -7.4853  -7.0500  -5.5709

          k = 0.3571 0.6155 0.0000 ( 11448 PWs)   bands (ev):

   -19.5702 -18.7234 -12.3571 -11.4213  -9.1022  -7.7654  -6.3239  -5.0899

          k = 0.3571 0.7386 0.0000 ( 11464 PWs)   bands (ev):

   -19.0603 -18.5615 -12.8285 -12.2966  -8.7981  -8.0913  -5.5831  -4.8290

          k = 0.3571-0.8617 0.0000 ( 11430 PWs)   bands (ev):

   -18.6789 -18.6789 -12.8118 -12.8118  -8.4458  -8.4458  -5.0064  -5.0064

          k = 0.4286 0.0000 0.0000 ( 11364 PWs)   bands (ev):

   -20.8899 -20.2607  -9.9087  -8.3286  -8.1594  -7.3585  -7.2978  -6.7467

          k = 0.4286 0.1231 0.0000 ( 11380 PWs)   bands (ev):

   -20.8206 -20.1955  -9.9263  -8.4154  -8.0649  -7.6190  -7.2078  -6.9742

          k = 0.4286 0.2462 0.0000 ( 11392 PWs)   bands (ev):

   -20.6160 -20.0045 -10.0481  -8.8024  -8.2146  -7.7850  -7.4138  -6.9433

          k = 0.4286 0.3693 0.0000 ( 11396 PWs)   bands (ev):

   -20.2876 -19.7038 -10.5121  -9.6458  -8.6725  -7.6816  -7.3327  -6.5221

          k = 0.4286 0.4924 0.0000 ( 11446 PWs)   bands (ev):

   -19.8598 -19.3284 -11.3526 -10.7127  -8.7489  -7.8158  -6.7360  -5.9858

          k = 0.4286 0.6155 0.0000 ( 11463 PWs)   bands (ev):

   -19.3793 -18.9460 -12.2180 -11.7395  -8.6290  -7.9319  -6.0509  -5.4212

          k = 0.4286 0.7386 0.0000 ( 11461 PWs)   bands (ev):

   -18.9338 -18.6761 -12.8166 -12.5420  -8.4431  -8.0736  -5.3933  -5.0031

          k = 0.4286-0.8617 0.0000 ( 11448 PWs)   bands (ev):

   -18.6606 -18.6606 -12.9424 -12.9424  -8.2482  -8.2482  -4.9739  -4.9739

          k =-0.5000 0.0000 0.0000 ( 11368 PWs)   bands (ev):

   -20.5914 -20.5914  -9.1189  -9.1189  -7.7520  -7.7520  -7.0630  -7.0630

          k =-0.5000 0.1231 0.0000 ( 11372 PWs)   bands (ev):

   -20.5239 -20.5239  -9.1668  -9.1668  -7.6595  -7.6595  -7.3096  -7.3096

          k =-0.5000 0.2462 0.0000 ( 11360 PWs)   bands (ev):

   -20.3253 -20.3253  -9.4090  -9.4090  -7.8336  -7.8336  -7.3865  -7.3865

          k =-0.5000 0.3693 0.0000 ( 11404 PWs)   bands (ev):

   -20.0094 -20.0094 -10.0782 -10.0782  -8.1731  -8.1731  -6.9483  -6.9483

          k =-0.5000 0.4924 0.0000 ( 11434 PWs)   bands (ev):

   -19.6049 -19.6049 -11.0518 -11.0518  -8.2486  -8.2486  -6.3782  -6.3782

          k =-0.5000 0.6155 0.0000 ( 11462 PWs)   bands (ev):

   -19.1683 -19.1683 -12.0089 -12.0089  -8.2278  -8.2278  -5.7463  -5.7463

          k =-0.5000 0.7386 0.0000 ( 11464 PWs)   bands (ev):

   -18.8030 -18.8030 -12.7187 -12.7187  -8.1937  -8.1937  -5.1956  -5.1956

          k =-0.5000-0.8617 0.0000 ( 11432 PWs)   bands (ev):

   -18.6539 -18.6539 -12.9870 -12.9870  -8.1788  -8.1788  -4.9619  -4.9619

     highest occupied level (ev):    -4.0623

!    total energy              =     -54.86804178 Ry
     estimated scf accuracy    <          1.9E-13 Ry

     The total energy is the sum of the following terms:
     one-electron contribution =    -445.04921588 Ry
     hartree contribution      =     225.79357433 Ry
     xc contribution           =     -18.64942024 Ry
     ewald contribution        =     183.03702002 Ry

     convergence has been achieved in   2 iterations

     negative rho (up, down):  9.564E-06 0.000E+00

     Forces acting on atoms (cartesian axes, Ry/au):

     atom    1 type  2   force =    -0.00000241    0.00000000    0.00000000
     atom    2 type  1   force =     0.00000238    0.00000000    0.00000000
     atom    3 type  2   force =    -0.00000250    0.00000000    0.00000000
     atom    4 type  1   force =     0.00000253    0.00000000    0.00000000

     Total force =     0.000005     Total SCF correction =     0.000000

     bfgs converged in   4 scf cycles and   3 bfgs steps
     (criteria: energy <  1.0E-06 Ry, force <  1.0E-04 Ry/Bohr)

     End of BFGS Geometry Optimization

     Final energy   =     -54.8680417756 Ry

     File ./wfc-out/pwscf.bfgs deleted, as requested
Begin final coordinates

ATOMIC_POSITIONS (crystal)
N            -0.0001669677        0.0000000000        0.5000000000
B             0.3335254708        0.0000000000        0.5000000000
N             0.4998330361        0.5000000000        0.5000000000
B             0.8335254608        0.5000000000        0.5000000000
End final coordinates



     Writing output data file ./wfc-out/pwscf.save/
 
     init_run     :      0.63s CPU      0.71s WALL (       1 calls)
     electrons    :     24.45s CPU     36.78s WALL (       4 calls)
     update_pot   :      0.57s CPU      0.59s WALL (       3 calls)
     forces       :      0.67s CPU      0.68s WALL (       4 calls)

     Called by init_run:
     wfcinit      :      0.29s CPU      0.31s WALL (       1 calls)
     potinit      :      0.06s CPU      0.11s WALL (       1 calls)
     hinit0       :      0.14s CPU      0.14s WALL (       1 calls)

     Called by electrons:
     c_bands      :     20.41s CPU     27.94s WALL (      43 calls)
     sum_band     :      3.17s CPU      3.32s WALL (      43 calls)
     v_of_rho     :      0.49s CPU      0.52s WALL (      44 calls)
     newd         :      0.33s CPU      0.34s WALL (      44 calls)
     mix_rho      :      0.08s CPU      0.08s WALL (      43 calls)

     Called by c_bands:
     init_us_2    :      0.56s CPU      0.61s WALL (    5824 calls)
     cegterg      :     18.92s CPU     19.82s WALL (    2752 calls)

     Called by *egterg:
     cdiaghg      :      1.07s CPU      1.12s WALL (   11937 calls)
     h_psi        :     15.99s CPU     16.75s WALL (   12385 calls)
     s_psi        :      0.25s CPU      0.26s WALL (   12385 calls)
     g_psi        :      0.09s CPU      0.09s WALL (    9569 calls)

     Called by h_psi:
     h_psi:calbec :      0.69s CPU      0.72s WALL (   12385 calls)
     vloc_psi     :     14.90s CPU     15.61s WALL (   12385 calls)
     add_vuspsi   :      0.28s CPU      0.29s WALL (   12385 calls)

     General routines
     calbec       :      0.89s CPU      0.94s WALL (   16161 calls)
     fft          :      0.37s CPU      0.38s WALL (     614 calls)
     ffts         :      0.02s CPU      0.06s WALL (      87 calls)
     fftw         :     15.65s CPU     16.40s WALL (  176814 calls)
     interpolate  :      0.03s CPU      0.08s WALL (      44 calls)
 
     Parallel routines
     fft_scatt_xy :      1.83s CPU      1.92s WALL (  177515 calls)
     fft_scatt_yz :      6.95s CPU      7.29s WALL (  177515 calls)
 
     PWSCF        :     26.72s CPU   1m17.22s WALL

 
   This run was terminated on:  17:29: 7  12Dec2022            

=------------------------------------------------------------------------------=
   JOB DONE.
=------------------------------------------------------------------------------=
