1T-MoS2-46x30
8280 	 atoms 
2  atom types
0.0      253.84800719382483  xlo xhi
0.0      95.581365232395967  ylo yhi
0.0                      20  zlo zhi


Atoms 

     1   1   0.0                       0                       0      10.091766399999999
     2   1   0.0      2.7711011752128183      1.5944045266796629      9.9083476400000006
     3   2   0.0      1.7541881101979897   0.0015040037070460407      8.3820347399999999
     4   2   0.0      4.6891166469817884      1.5958133202622651      8.4343444499999993
     5   2   0.0      1.0169075242670702       1.595911813841757      11.617906899999999
     6   2   0.0      3.6004285142778758   0.0014086122875381648      11.565599499999999
     7   1   0.0                       0      3.1860455077465319      10.091766399999999
     8   1   0.0      2.7711011752128183      4.7804500344261944      9.9083476400000006
     9   2   0.0      1.7541881101979897      3.1875495114535783      8.3820347399999999
    10   2   0.0      4.6891166469817884      4.7818588280087972      8.4343444499999993
    11   2   0.0      1.0169075242670702      4.7819573215882896      11.617906899999999
    12   2   0.0      3.6004285142778758      3.1874541200340705      11.565599499999999
    13   1   0.0                       0      6.3720910154930639      10.091766399999999
    14   1   0.0      2.7711011752128183      7.9664955421727273      9.9083476400000006
    15   2   0.0      1.7541881101979897      6.3735950192001107      8.3820347399999999
    16   2   0.0      4.6891166469817884      7.9679043357553292      8.4343444499999993
    17   2   0.0      1.0169075242670702      7.9680028293348215      11.617906899999999
    18   2   0.0      3.6004285142778758      6.3734996277806024      11.565599499999999
    19   1   0.0                       0      9.5581365232395967      10.091766399999999
    20   1   0.0      2.7711011752128183      11.152541049919259      9.9083476400000006
    21   2   0.0      1.7541881101979897      9.5596405269466427      8.3820347399999999
    22   2   0.0      4.6891166469817884      11.153949843501861      8.4343444499999993
    23   2   0.0      1.0169075242670702      11.154048337081353      11.617906899999999
    24   2   0.0      3.6004285142778758      9.5595451355271326      11.565599499999999
    25   1   0.0                       0      12.744182030986128      10.091766399999999
    26   1   0.0      2.7711011752128183      14.338586557665792      9.9083476400000006
    27   2   0.0      1.7541881101979897      12.745686034693176      8.3820347399999999
    28   2   0.0      4.6891166469817884      14.339995351248394      8.4343444499999993
    29   2   0.0      1.0169075242670702      14.340093844827885      11.617906899999999
    30   2   0.0      3.6004285142778758      12.745590643273665      11.565599499999999
    31   1   0.0                       0      15.930227538732661      10.091766399999999
    32   1   0.0      2.7711011752128183      17.524632065412323      9.9083476400000006
    33   2   0.0      1.7541881101979897      15.931731542439707      8.3820347399999999
    34   2   0.0      4.6891166469817884      17.526040858994925      8.4343444499999993
    35   2   0.0      1.0169075242670702      17.526139352574418      11.617906899999999
    36   2   0.0      3.6004285142778758      15.931636151020198      11.565599499999999
    37   1   0.0                       0      19.116273046479193      10.091766399999999
    38   1   0.0      2.7711011752128183      20.710677573158854      9.9083476400000006
    39   2   0.0      1.7541881101979897      19.117777050186238      8.3820347399999999
    40   2   0.0      4.6891166469817884      20.712086366741456      8.4343444499999993
    41   2   0.0      1.0169075242670702      20.712184860320949      11.617906899999999
    42   2   0.0      3.6004285142778758      19.117681658766731      11.565599499999999
    43   1   0.0                       0      22.302318554225725      10.091766399999999
    44   1   0.0      2.7711011752128183      23.896723080905389      9.9083476400000006
    45   2   0.0      1.7541881101979897      22.303822557932772      8.3820347399999999
    46   2   0.0      4.6891166469817884      23.898131874487987      8.4343444499999993
    47   2   0.0      1.0169075242670702       23.89823036806748      11.617906899999999
    48   2   0.0      3.6004285142778758      22.303727166513262      11.565599499999999
    49   1   0.0                       0      25.488364061972256      10.091766399999999
    50   1   0.0      2.7711011752128183       27.08276858865192      9.9083476400000006
    51   2   0.0      1.7541881101979897      25.489868065679303      8.3820347399999999
    52   2   0.0      4.6891166469817884      27.084177382234522      8.4343444499999993
    53   2   0.0      1.0169075242670702      27.084275875814015      11.617906899999999
    54   2   0.0      3.6004285142778758      25.489772674259797      11.565599499999999
    55   1   0.0                       0       28.67440956971879      10.091766399999999
    56   1   0.0      2.7711011752128183      30.268814096398454      9.9083476400000006
    57   2   0.0      1.7541881101979897      28.675913573425834      8.3820347399999999
    58   2   0.0      4.6891166469817884      30.270222889981053      8.4343444499999993
    59   2   0.0      1.0169075242670702      30.270321383560546      11.617906899999999
    60   2   0.0      3.6004285142778758      28.675818182006328      11.565599499999999
    61   1   0.0                       0      31.860455077465321      10.091766399999999
    62   1   0.0      2.7711011752128183      33.454859604144978      9.9083476400000006
    63   2   0.0      1.7541881101979897      31.861959081172369      8.3820347399999999
    64   2   0.0      4.6891166469817884      33.456268397727591      8.4343444499999993
    65   2   0.0      1.0169075242670702      33.456366891307077      11.617906899999999
    66   2   0.0      3.6004285142778758      31.861863689752862      11.565599499999999
    67   1   0.0                       0      35.046500585211852      10.091766399999999
    68   1   0.0      2.7711011752128183       36.64090511189152      9.9083476400000006
    69   2   0.0      1.7541881101979897        35.0480045889189      8.3820347399999999
    70   2   0.0      4.6891166469817884      36.642313905474118      8.4343444499999993
    71   2   0.0      1.0169075242670702      36.642412399053619      11.617906899999999
    72   2   0.0      3.6004285142778758      35.047909197499393      11.565599499999999
    73   1   0.0                       0      38.232546092958387      10.091766399999999
    74   1   0.0      2.7711011752128183      39.826950619638048      9.9083476400000006
    75   2   0.0      1.7541881101979897      38.234050096665428      8.3820347399999999
    76   2   0.0      4.6891166469817884      39.828359413220646      8.4343444499999993
    77   2   0.0      1.0169075242670702      39.828457906800139      11.617906899999999
    78   2   0.0      3.6004285142778758      38.233954705245921      11.565599499999999
    79   1   0.0                       0      41.418591600704922      10.091766399999999
    80   1   0.0      2.7711011752128183      43.012996127384582      9.9083476400000006
    81   2   0.0      1.7541881101979897      41.420095604411962      8.3820347399999999
    82   2   0.0      4.6891166469817884      43.014404920967181      8.4343444499999993
    83   2   0.0      1.0169075242670702      43.014503414546674      11.617906899999999
    84   2   0.0      3.6004285142778758      41.420000212992456      11.565599499999999
    85   1   0.0                       0      44.604637108451449      10.091766399999999
    86   1   0.0      2.7711011752128183       46.19904163513111      9.9083476400000006
    87   2   0.0      1.7541881101979897       44.60614111215849      8.3820347399999999
    88   2   0.0      4.6891166469817884      46.200450428713715      8.4343444499999993
    89   2   0.0      1.0169075242670702      46.200548922293208      11.617906899999999
    90   2   0.0      3.6004285142778758      44.606045720738983      11.565599499999999
    91   1   0.0                       0      47.790682616197984      10.091766399999999
    92   1   0.0      2.7711011752128183      49.385087142877651      9.9083476400000006
    93   2   0.0      1.7541881101979897      47.792186619905024      8.3820347399999999
    94   2   0.0      4.6891166469817884       49.38649593646025      8.4343444499999993
    95   2   0.0      1.0169075242670702      49.386594430039743      11.617906899999999
    96   2   0.0      3.6004285142778758      47.792091228485518      11.565599499999999
    97   1   0.0                       0      50.976728123944511      10.091766399999999
    98   1   0.0      2.7711011752128183      52.571132650624179      9.9083476400000006
    99   2   0.0      1.7541881101979897      50.978232127651559      8.3820347399999999
   100   2   0.0      4.6891166469817884      52.572541444206777      8.4343444499999993
   101   2   0.0      1.0169075242670702      52.572639937786271      11.617906899999999
   102   2   0.0      3.6004285142778758      50.978136736232052      11.565599499999999
   103   1   0.0                       0      54.162773631691046      10.091766399999999
   104   1   0.0      2.7711011752128183      55.757178158370706      9.9083476400000006
   105   2   0.0      1.7541881101979897      54.164277635398086      8.3820347399999999
   106   2   0.0      4.6891166469817884      55.758586951953305      8.4343444499999993
   107   2   0.0      1.0169075242670702      55.758685445532805      11.617906899999999
   108   2   0.0      3.6004285142778758       54.16418224397858      11.565599499999999
   109   1   0.0                       0       57.34881913943758      10.091766399999999
   110   1   0.0      2.7711011752128183      58.943223666117241      9.9083476400000006
   111   2   0.0      1.7541881101979897      57.350323143144621      8.3820347399999999
   112   2   0.0      4.6891166469817884      58.944632459699839      8.4343444499999993
   113   2   0.0      1.0169075242670702       58.94473095327934      11.617906899999999
   114   2   0.0      3.6004285142778758      57.350227751725114      11.565599499999999
   115   1   0.0                       0      60.534864647184108      10.091766399999999
   116   1   0.0      2.7711011752128183      62.129269173863769      9.9083476400000006
   117   2   0.0      1.7541881101979897      60.536368650891148      8.3820347399999999
   118   2   0.0      4.6891166469817884      62.130677967446374      8.4343444499999993
   119   2   0.0      1.0169075242670702       62.13077646102586      11.617906899999999
   120   2   0.0      3.6004285142778758      60.536273259471642      11.565599499999999
   121   1   0.0                       0      63.720910154930642      10.091766399999999
   122   1   0.0      2.7711011752128183      65.315314681610303      9.9083476400000006
   123   2   0.0      1.7541881101979897       63.72241415863769      8.3820347399999999
   124   2   0.0      4.6891166469817884      65.316723475192902      8.4343444499999993
   125   2   0.0      1.0169075242670702      65.316821968772402      11.617906899999999
   126   2   0.0      3.6004285142778758      63.722318767218184      11.565599499999999
   127   1   0.0                       0      66.906955662677177      10.091766399999999
   128   1   0.0      2.7711011752128183      68.501360189356831      9.9083476400000006
   129   2   0.0      1.7541881101979897      66.908459666384218      8.3820347399999999
   130   2   0.0      4.6891166469817884      68.502768982939443      8.4343444499999993
   131   2   0.0      1.0169075242670702      68.502867476518929      11.617906899999999
   132   2   0.0      3.6004285142778758      66.908364274964711      11.565599499999999
   133   1   0.0                       0      70.093001170423705      10.091766399999999
   134   1   0.0      2.7711011752128183      71.687405697103372      9.9083476400000006
   135   2   0.0      1.7541881101979897      70.094505174130759      8.3820347399999999
   136   2   0.0      4.6891166469817884      71.688814490685985      8.4343444499999993
   137   2   0.0      1.0169075242670702      71.688912984265471      11.617906899999999
   138   2   0.0      3.6004285142778758      70.094409782711253      11.565599499999999
   139   1   0.0                       0      73.279046678170246      10.091766399999999
   140   1   0.0      2.7711011752128183      74.873451204849914      9.9083476400000006
   141   2   0.0      1.7541881101979897      73.280550681877301      8.3820347399999999
   142   2   0.0      4.6891166469817884      74.874859998432512      8.4343444499999993
   143   2   0.0      1.0169075242670702      74.874958492012013      11.617906899999999
   144   2   0.0      3.6004285142778758      73.280455290457795      11.565599499999999
   145   1   0.0                       0      76.465092185916774      10.091766399999999
   146   1   0.0      2.7711011752128183      78.059496712596427      9.9083476400000006
   147   2   0.0      1.7541881101979897      76.466596189623814      8.3820347399999999
   148   2   0.0      4.6891166469817884       78.06090550617904      8.4343444499999993
   149   2   0.0      1.0169075242670702      78.061003999758526      11.617906899999999
   150   2   0.0      3.6004285142778758      76.466500798204308      11.565599499999999
   151   1   0.0                       0      79.651137693663301      10.091766399999999
   152   1   0.0      2.7711011752128183      81.245542220342969      9.9083476400000006
   153   2   0.0      1.7541881101979897      79.652641697370356      8.3820347399999999
   154   2   0.0      4.6891166469817884      81.246951013925568      8.4343444499999993
   155   2   0.0      1.0169075242670702      81.247049507505068      11.617906899999999
   156   2   0.0      3.6004285142778758       79.65254630595085      11.565599499999999
   157   1   0.0                       0      82.837183201409843      10.091766399999999
   158   1   0.0      2.7711011752128183      84.431587728089497      9.9083476400000006
   159   2   0.0      1.7541881101979897      82.838687205116884      8.3820347399999999
   160   2   0.0      4.6891166469817884      84.432996521672109      8.4343444499999993
   161   2   0.0      1.0169075242670702      84.433095015251595      11.617906899999999
   162   2   0.0      3.6004285142778758      82.838591813697377      11.565599499999999
   163   1   0.0                       0      86.023228709156356      10.091766399999999
   164   1   0.0      2.7711011752128183      87.617633235836024      9.9083476400000006
   165   2   0.0      1.7541881101979897      86.024732712863411      8.3820347399999999
   166   2   0.0      4.6891166469817884      87.619042029418637      8.4343444499999993
   167   2   0.0      1.0169075242670702      87.619140522998123      11.617906899999999
   168   2   0.0      3.6004285142778758      86.024637321443905      11.565599499999999
   169   1   0.0                       0      89.209274216902898      10.091766399999999
   170   1   0.0      2.7711011752128183      90.803678743582566      9.9083476400000006
   171   2   0.0      1.7541881101979897      89.210778220609953      8.3820347399999999
   172   2   0.0      4.6891166469817884      90.805087537165164      8.4343444499999993
   173   2   0.0      1.0169075242670702      90.805186030744665      11.617906899999999
   174   2   0.0      3.6004285142778758      89.210682829190446      11.565599499999999
   175   1   0.0                       0       92.39531972464944      10.091766399999999
   176   1   0.0      2.7711011752128183      93.989724251329093      9.9083476400000006
   177   2   0.0      1.7541881101979897       92.39682372835648      8.3820347399999999
   178   2   0.0      4.6891166469817884      93.991133044911706      8.4343444499999993
   179   2   0.0      1.0169075242670702      93.991231538491192      11.617906899999999
   180   2   0.0      3.6004285142778758      92.396728336936974      11.565599499999999
   181   1   0.0       5.518434938996192                       0      10.091766399999999
   182   1   0.0      8.2895361142090085      1.5944045266796629      9.9083476400000006
   183   2   0.0      7.2726230491941815   0.0015040037070460407      8.3820347399999999
   184   2   0.0       10.20755158597798      1.5958133202622651      8.4343444499999993
   185   2   0.0      6.5353424632632624       1.595911813841757      11.617906899999999
   186   2   0.0      9.1188634532740664   0.0014086122875381648      11.565599499999999
   187   1   0.0       5.518434938996192      3.1860455077465319      10.091766399999999
   188   1   0.0      8.2895361142090085      4.7804500344261944      9.9083476400000006
   189   2   0.0      7.2726230491941815      3.1875495114535783      8.3820347399999999
   190   2   0.0       10.20755158597798      4.7818588280087972      8.4343444499999993
   191   2   0.0      6.5353424632632624      4.7819573215882896      11.617906899999999
   192   2   0.0      9.1188634532740664      3.1874541200340705      11.565599499999999
   193   1   0.0       5.518434938996192      6.3720910154930639      10.091766399999999
   194   1   0.0      8.2895361142090085      7.9664955421727273      9.9083476400000006
   195   2   0.0      7.2726230491941815      6.3735950192001107      8.3820347399999999
   196   2   0.0       10.20755158597798      7.9679043357553292      8.4343444499999993
   197   2   0.0      6.5353424632632624      7.9680028293348215      11.617906899999999
   198   2   0.0      9.1188634532740664      6.3734996277806024      11.565599499999999
   199   1   0.0       5.518434938996192      9.5581365232395967      10.091766399999999
   200   1   0.0      8.2895361142090085      11.152541049919259      9.9083476400000006
   201   2   0.0      7.2726230491941815      9.5596405269466427      8.3820347399999999
   202   2   0.0       10.20755158597798      11.153949843501861      8.4343444499999993
   203   2   0.0      6.5353424632632624      11.154048337081353      11.617906899999999
   204   2   0.0      9.1188634532740664      9.5595451355271326      11.565599499999999
   205   1   0.0       5.518434938996192      12.744182030986128      10.091766399999999
   206   1   0.0      8.2895361142090085      14.338586557665792      9.9083476400000006
   207   2   0.0      7.2726230491941815      12.745686034693176      8.3820347399999999
   208   2   0.0       10.20755158597798      14.339995351248394      8.4343444499999993
   209   2   0.0      6.5353424632632624      14.340093844827885      11.617906899999999
   210   2   0.0      9.1188634532740664      12.745590643273665      11.565599499999999
   211   1   0.0       5.518434938996192      15.930227538732661      10.091766399999999
   212   1   0.0      8.2895361142090085      17.524632065412323      9.9083476400000006
   213   2   0.0      7.2726230491941815      15.931731542439707      8.3820347399999999
   214   2   0.0       10.20755158597798      17.526040858994925      8.4343444499999993
   215   2   0.0      6.5353424632632624      17.526139352574418      11.617906899999999
   216   2   0.0      9.1188634532740664      15.931636151020198      11.565599499999999
   217   1   0.0       5.518434938996192      19.116273046479193      10.091766399999999
   218   1   0.0      8.2895361142090085      20.710677573158854      9.9083476400000006
   219   2   0.0      7.2726230491941815      19.117777050186238      8.3820347399999999
   220   2   0.0       10.20755158597798      20.712086366741456      8.4343444499999993
   221   2   0.0      6.5353424632632624      20.712184860320949      11.617906899999999
   222   2   0.0      9.1188634532740664      19.117681658766731      11.565599499999999
   223   1   0.0       5.518434938996192      22.302318554225725      10.091766399999999
   224   1   0.0      8.2895361142090085      23.896723080905389      9.9083476400000006
   225   2   0.0      7.2726230491941815      22.303822557932772      8.3820347399999999
   226   2   0.0       10.20755158597798      23.898131874487987      8.4343444499999993
   227   2   0.0      6.5353424632632624       23.89823036806748      11.617906899999999
   228   2   0.0      9.1188634532740664      22.303727166513262      11.565599499999999
   229   1   0.0       5.518434938996192      25.488364061972256      10.091766399999999
   230   1   0.0      8.2895361142090085       27.08276858865192      9.9083476400000006
   231   2   0.0      7.2726230491941815      25.489868065679303      8.3820347399999999
   232   2   0.0       10.20755158597798      27.084177382234522      8.4343444499999993
   233   2   0.0      6.5353424632632624      27.084275875814015      11.617906899999999
   234   2   0.0      9.1188634532740664      25.489772674259797      11.565599499999999
   235   1   0.0       5.518434938996192       28.67440956971879      10.091766399999999
   236   1   0.0      8.2895361142090085      30.268814096398454      9.9083476400000006
   237   2   0.0      7.2726230491941815      28.675913573425834      8.3820347399999999
   238   2   0.0       10.20755158597798      30.270222889981053      8.4343444499999993
   239   2   0.0      6.5353424632632624      30.270321383560546      11.617906899999999
   240   2   0.0      9.1188634532740664      28.675818182006328      11.565599499999999
   241   1   0.0       5.518434938996192      31.860455077465321      10.091766399999999
   242   1   0.0      8.2895361142090085      33.454859604144978      9.9083476400000006
   243   2   0.0      7.2726230491941815      31.861959081172369      8.3820347399999999
   244   2   0.0       10.20755158597798      33.456268397727591      8.4343444499999993
   245   2   0.0      6.5353424632632624      33.456366891307077      11.617906899999999
   246   2   0.0      9.1188634532740664      31.861863689752862      11.565599499999999
   247   1   0.0       5.518434938996192      35.046500585211852      10.091766399999999
   248   1   0.0      8.2895361142090085       36.64090511189152      9.9083476400000006
   249   2   0.0      7.2726230491941815        35.0480045889189      8.3820347399999999
   250   2   0.0       10.20755158597798      36.642313905474118      8.4343444499999993
   251   2   0.0      6.5353424632632624      36.642412399053619      11.617906899999999
   252   2   0.0      9.1188634532740664      35.047909197499393      11.565599499999999
   253   1   0.0       5.518434938996192      38.232546092958387      10.091766399999999
   254   1   0.0      8.2895361142090085      39.826950619638048      9.9083476400000006
   255   2   0.0      7.2726230491941815      38.234050096665428      8.3820347399999999
   256   2   0.0       10.20755158597798      39.828359413220646      8.4343444499999993
   257   2   0.0      6.5353424632632624      39.828457906800139      11.617906899999999
   258   2   0.0      9.1188634532740664      38.233954705245921      11.565599499999999
   259   1   0.0       5.518434938996192      41.418591600704922      10.091766399999999
   260   1   0.0      8.2895361142090085      43.012996127384582      9.9083476400000006
   261   2   0.0      7.2726230491941815      41.420095604411962      8.3820347399999999
   262   2   0.0       10.20755158597798      43.014404920967181      8.4343444499999993
   263   2   0.0      6.5353424632632624      43.014503414546674      11.617906899999999
   264   2   0.0      9.1188634532740664      41.420000212992456      11.565599499999999
   265   1   0.0       5.518434938996192      44.604637108451449      10.091766399999999
   266   1   0.0      8.2895361142090085       46.19904163513111      9.9083476400000006
   267   2   0.0      7.2726230491941815       44.60614111215849      8.3820347399999999
   268   2   0.0       10.20755158597798      46.200450428713715      8.4343444499999993
   269   2   0.0      6.5353424632632624      46.200548922293208      11.617906899999999
   270   2   0.0      9.1188634532740664      44.606045720738983      11.565599499999999
   271   1   0.0       5.518434938996192      47.790682616197984      10.091766399999999
   272   1   0.0      8.2895361142090085      49.385087142877651      9.9083476400000006
   273   2   0.0      7.2726230491941815      47.792186619905024      8.3820347399999999
   274   2   0.0       10.20755158597798       49.38649593646025      8.4343444499999993
   275   2   0.0      6.5353424632632624      49.386594430039743      11.617906899999999
   276   2   0.0      9.1188634532740664      47.792091228485518      11.565599499999999
   277   1   0.0       5.518434938996192      50.976728123944511      10.091766399999999
   278   1   0.0      8.2895361142090085      52.571132650624179      9.9083476400000006
   279   2   0.0      7.2726230491941815      50.978232127651559      8.3820347399999999
   280   2   0.0       10.20755158597798      52.572541444206777      8.4343444499999993
   281   2   0.0      6.5353424632632624      52.572639937786271      11.617906899999999
   282   2   0.0      9.1188634532740664      50.978136736232052      11.565599499999999
   283   1   0.0       5.518434938996192      54.162773631691046      10.091766399999999
   284   1   0.0      8.2895361142090085      55.757178158370706      9.9083476400000006
   285   2   0.0      7.2726230491941815      54.164277635398086      8.3820347399999999
   286   2   0.0       10.20755158597798      55.758586951953305      8.4343444499999993
   287   2   0.0      6.5353424632632624      55.758685445532805      11.617906899999999
   288   2   0.0      9.1188634532740664       54.16418224397858      11.565599499999999
   289   1   0.0       5.518434938996192       57.34881913943758      10.091766399999999
   290   1   0.0      8.2895361142090085      58.943223666117241      9.9083476400000006
   291   2   0.0      7.2726230491941815      57.350323143144621      8.3820347399999999
   292   2   0.0       10.20755158597798      58.944632459699839      8.4343444499999993
   293   2   0.0      6.5353424632632624       58.94473095327934      11.617906899999999
   294   2   0.0      9.1188634532740664      57.350227751725114      11.565599499999999
   295   1   0.0       5.518434938996192      60.534864647184108      10.091766399999999
   296   1   0.0      8.2895361142090085      62.129269173863769      9.9083476400000006
   297   2   0.0      7.2726230491941815      60.536368650891148      8.3820347399999999
   298   2   0.0       10.20755158597798      62.130677967446374      8.4343444499999993
   299   2   0.0      6.5353424632632624       62.13077646102586      11.617906899999999
   300   2   0.0      9.1188634532740664      60.536273259471642      11.565599499999999
   301   1   0.0       5.518434938996192      63.720910154930642      10.091766399999999
   302   1   0.0      8.2895361142090085      65.315314681610303      9.9083476400000006
   303   2   0.0      7.2726230491941815       63.72241415863769      8.3820347399999999
   304   2   0.0       10.20755158597798      65.316723475192902      8.4343444499999993
   305   2   0.0      6.5353424632632624      65.316821968772402      11.617906899999999
   306   2   0.0      9.1188634532740664      63.722318767218184      11.565599499999999
   307   1   0.0       5.518434938996192      66.906955662677177      10.091766399999999
   308   1   0.0      8.2895361142090085      68.501360189356831      9.9083476400000006
   309   2   0.0      7.2726230491941815      66.908459666384218      8.3820347399999999
   310   2   0.0       10.20755158597798      68.502768982939443      8.4343444499999993
   311   2   0.0      6.5353424632632624      68.502867476518929      11.617906899999999
   312   2   0.0      9.1188634532740664      66.908364274964711      11.565599499999999
   313   1   0.0       5.518434938996192      70.093001170423705      10.091766399999999
   314   1   0.0      8.2895361142090085      71.687405697103372      9.9083476400000006
   315   2   0.0      7.2726230491941815      70.094505174130759      8.3820347399999999
   316   2   0.0       10.20755158597798      71.688814490685985      8.4343444499999993
   317   2   0.0      6.5353424632632624      71.688912984265471      11.617906899999999
   318   2   0.0      9.1188634532740664      70.094409782711253      11.565599499999999
   319   1   0.0       5.518434938996192      73.279046678170246      10.091766399999999
   320   1   0.0      8.2895361142090085      74.873451204849914      9.9083476400000006
   321   2   0.0      7.2726230491941815      73.280550681877301      8.3820347399999999
   322   2   0.0       10.20755158597798      74.874859998432512      8.4343444499999993
   323   2   0.0      6.5353424632632624      74.874958492012013      11.617906899999999
   324   2   0.0      9.1188634532740664      73.280455290457795      11.565599499999999
   325   1   0.0       5.518434938996192      76.465092185916774      10.091766399999999
   326   1   0.0      8.2895361142090085      78.059496712596427      9.9083476400000006
   327   2   0.0      7.2726230491941815      76.466596189623814      8.3820347399999999
   328   2   0.0       10.20755158597798       78.06090550617904      8.4343444499999993
   329   2   0.0      6.5353424632632624      78.061003999758526      11.617906899999999
   330   2   0.0      9.1188634532740664      76.466500798204308      11.565599499999999
   331   1   0.0       5.518434938996192      79.651137693663301      10.091766399999999
   332   1   0.0      8.2895361142090085      81.245542220342969      9.9083476400000006
   333   2   0.0      7.2726230491941815      79.652641697370356      8.3820347399999999
   334   2   0.0       10.20755158597798      81.246951013925568      8.4343444499999993
   335   2   0.0      6.5353424632632624      81.247049507505068      11.617906899999999