2H-MoS2-46x30
8280 	 atoms 
2  atom types
0.0      253.84800719382483  xlo xhi
0.0      95.581365232395967  ylo yhi
0.0                      20  zlo zhi


Atoms 

     1   1   0.0                       0                       0      9.9986014964060761
     2   1   0.0           2.75651794916      1.5947210895999999      9.9951533751190329
     3   2  -0.0     0.91337439803999998            1.5976686133      8.4066210583906056
     4   2  -0.0      3.6910125949100001      3.1860291192000001      8.4029480183138556
     5   2  -0.0     0.91805453572999995            1.5937352533       11.59045505365887
     6   2  -0.0      3.6836612794199999   0.0047845483000000001      11.587038018449483
     7   1   0.0                       0      3.1860455077465324      9.9986014964060761
     8   1   0.0           2.75651794916      4.7807665973465321      9.9951533751190329
     9   2  -0.0     0.91337439803999998      4.7837141210465326      8.4066210583906056
    10   2  -0.0      3.6910125949100001      6.3720746269465325      8.4029480183138556
    11   2  -0.0     0.91805453572999995      4.7797807610465322       11.59045505365887
    12   2  -0.0      3.6836612794199999      3.1908300560465324      11.587038018449483
    13   1   0.0                       0      6.3720910154930648      9.9986014964060761
    14   1   0.0           2.75651794916      7.9668121050930649      9.9951533751190329
    15   2  -0.0     0.91337439803999998      7.9697596287930645      8.4066210583906056
    16   2  -0.0      3.6910125949100001      9.5581201346930644      8.4029480183138556
    17   2  -0.0     0.91805453572999995       7.965826268793065       11.59045505365887
    18   2  -0.0      3.6836612794199999      6.3768755637930647      11.587038018449483
    19   1   0.0                       0      9.5581365232395967      9.9986014964060761
    20   1   0.0           2.75651794916      11.152857612839597      9.9951533751190329
    21   2  -0.0     0.91337439803999998      11.155805136539596      8.4066210583906056
    22   2  -0.0      3.6910125949100001      12.744165642439597      8.4029480183138556
    23   2  -0.0     0.91805453572999995      11.151871776539597       11.59045505365887
    24   2  -0.0      3.6836612794199999      9.5629210715395967      11.587038018449483
    25   1   0.0                       0       12.74418203098613      9.9986014964060761
    26   1   0.0           2.75651794916       14.33890312058613      9.9951533751190329
    27   2  -0.0     0.91337439803999998      14.341850644286129      8.4066210583906056
    28   2  -0.0      3.6910125949100001       15.93021115018613      8.4029480183138556
    29   2  -0.0     0.91805453572999995       14.33791728428613       11.59045505365887
    30   2  -0.0      3.6836612794199999       12.74896657928613      11.587038018449483
    31   1   0.0                       0      15.930227538732662      9.9986014964060761
    32   1   0.0           2.75651794916      17.524948628332663      9.9951533751190329
    33   2  -0.0     0.91337439803999998      17.527896152032664      8.4066210583906056
    34   2  -0.0      3.6910125949100001      19.116256657932663      8.4029480183138556
    35   2  -0.0     0.91805453572999995      17.523962792032663       11.59045505365887
    36   2  -0.0      3.6836612794199999      15.935012087032662      11.587038018449483
    37   1   0.0                       0      19.116273046479193      9.9986014964060761
    38   1   0.0           2.75651794916      20.710994136079194      9.9951533751190329
    39   2  -0.0     0.91337439803999998      20.713941659779195      8.4066210583906056
    40   2  -0.0      3.6910125949100001      22.302302165679194      8.4029480183138556
    41   2  -0.0     0.91805453572999995      20.710008299779194       11.59045505365887
    42   2  -0.0      3.6836612794199999      19.121057594779195      11.587038018449483
    43   1   0.0                       0      22.302318554225728      9.9986014964060761
    44   1   0.0           2.75651794916      23.897039643825728      9.9951533751190329
    45   2  -0.0     0.91337439803999998       23.89998716752573      8.4066210583906056
    46   2  -0.0      3.6910125949100001      25.488347673425729      8.4029480183138556
    47   2  -0.0     0.91805453572999995      23.896053807525728       11.59045505365887
    48   2  -0.0      3.6836612794199999       22.30710310252573      11.587038018449483
    49   1   0.0                       0      25.488364061972259      9.9986014964060761
    50   1   0.0           2.75651794916      27.083085151572259      9.9951533751190329
    51   2  -0.0     0.91337439803999998      27.086032675272261      8.4066210583906056
    52   2  -0.0      3.6910125949100001       28.67439318117226      8.4029480183138556
    53   2  -0.0     0.91805453572999995      27.082099315272259       11.59045505365887
    54   2  -0.0      3.6836612794199999      25.493148610272261      11.587038018449483
    55   1   0.0                       0       28.67440956971879      9.9986014964060761
    56   1   0.0           2.75651794916       30.26913065931879      9.9951533751190329
    57   2  -0.0     0.91337439803999998      30.272078183018792      8.4066210583906056
    58   2  -0.0      3.6910125949100001      31.860438688918791      8.4029480183138556
    59   2  -0.0     0.91805453572999995       30.26814482301879       11.59045505365887
    60   2  -0.0      3.6836612794199999      28.679194118018792      11.587038018449483
    61   1   0.0                       0      31.860455077465325      9.9986014964060761
    62   1   0.0           2.75651794916      33.455176167065325      9.9951533751190329
    63   2  -0.0     0.91337439803999998      33.458123690765326      8.4066210583906056
    64   2  -0.0      3.6910125949100001      35.046484196665325      8.4029480183138556
    65   2  -0.0     0.91805453572999995      33.454190330765321       11.59045505365887
    66   2  -0.0      3.6836612794199999      31.865239625765327      11.587038018449483
    67   1   0.0                       0      35.046500585211859      9.9986014964060761
    68   1   0.0           2.75651794916       36.64122167481186      9.9951533751190329
    69   2  -0.0     0.91337439803999998      36.644169198511861      8.4066210583906056
    70   2  -0.0      3.6910125949100001       38.23252970441186      8.4029480183138556
    71   2  -0.0     0.91805453572999995      36.640235838511856       11.59045505365887
    72   2  -0.0      3.6836612794199999      35.051285133511861      11.587038018449483
    73   1   0.0                       0      38.232546092958387      9.9986014964060761
    74   1   0.0           2.75651794916      39.827267182558387      9.9951533751190329
    75   2  -0.0     0.91337439803999998      39.830214706258388      8.4066210583906056
    76   2  -0.0      3.6910125949100001      41.418575212158387      8.4029480183138556
    77   2  -0.0     0.91805453572999995      39.826281346258384       11.59045505365887
    78   2  -0.0      3.6836612794199999      38.237330641258389      11.587038018449483
    79   1   0.0                       0      41.418591600704922      9.9986014964060761
    80   1   0.0           2.75651794916      43.013312690304922      9.9951533751190329
    81   2  -0.0     0.91337439803999998      43.016260214004923      8.4066210583906056
    82   2  -0.0      3.6910125949100001      44.604620719904922      8.4029480183138556
    83   2  -0.0     0.91805453572999995      43.012326854004918       11.59045505365887
    84   2  -0.0      3.6836612794199999      41.423376149004923      11.587038018449483
    85   1   0.0                       0      44.604637108451456      9.9986014964060761
    86   1   0.0           2.75651794916      46.199358198051456      9.9951533751190329
    87   2  -0.0     0.91337439803999998      46.202305721751458      8.4066210583906056
    88   2  -0.0      3.6910125949100001      47.790666227651457      8.4029480183138556
    89   2  -0.0     0.91805453572999995      46.198372361751453       11.59045505365887
    90   2  -0.0      3.6836612794199999      44.609421656751458      11.587038018449483
    91   1   0.0                       0      47.790682616197984      9.9986014964060761
    92   1   0.0           2.75651794916      49.385403705797984      9.9951533751190329
    93   2  -0.0     0.91337439803999998      49.388351229497985      8.4066210583906056
    94   2  -0.0      3.6910125949100001      50.976711735397984      8.4029480183138556
    95   2  -0.0     0.91805453572999995       49.38441786949798       11.59045505365887
    96   2  -0.0      3.6836612794199999      47.795467164497985      11.587038018449483
    97   1   0.0                       0      50.976728123944518      9.9986014964060761
    98   1   0.0           2.75651794916      52.571449213544518      9.9951533751190329
    99   2  -0.0     0.91337439803999998       52.57439673724452      8.4066210583906056
   100   2  -0.0      3.6910125949100001      54.162757243144519      8.4029480183138556
   101   2  -0.0     0.91805453572999995      52.570463377244515       11.59045505365887
   102   2  -0.0      3.6836612794199999       50.98151267224452      11.587038018449483
   103   1   0.0                       0      54.162773631691053      9.9986014964060761
   104   1   0.0           2.75651794916      55.757494721291053      9.9951533751190329
   105   2  -0.0     0.91337439803999998      55.760442244991054      8.4066210583906056
   106   2  -0.0      3.6910125949100001      57.348802750891053      8.4029480183138556
   107   2  -0.0     0.91805453572999995       55.75650888499105       11.59045505365887
   108   2  -0.0      3.6836612794199999      54.167558179991055      11.587038018449483
   109   1   0.0                       0       57.34881913943758      9.9986014964060761
   110   1   0.0           2.75651794916      58.943540229037581      9.9951533751190329
   111   2  -0.0     0.91337439803999998      58.946487752737582      8.4066210583906056
   112   2  -0.0      3.6910125949100001      60.534848258637581      8.4029480183138556
   113   2  -0.0     0.91805453572999995      58.942554392737577       11.59045505365887
   114   2  -0.0      3.6836612794199999      57.353603687737582      11.587038018449483
   115   1   0.0                       0      60.534864647184115      9.9986014964060761
   116   1   0.0           2.75651794916      62.129585736784115      9.9951533751190329
   117   2  -0.0     0.91337439803999998      62.132533260484117      8.4066210583906056
   118   2  -0.0      3.6910125949100001      63.720893766384116      8.4029480183138556
   119   2  -0.0     0.91805453572999995      62.128599900484112       11.59045505365887
   120   2  -0.0      3.6836612794199999      60.539649195484117      11.587038018449483
   121   1   0.0                       0       63.72091015493065      9.9986014964060761
   122   1   0.0           2.75651794916       65.31563124453065      9.9951533751190329
   123   2  -0.0     0.91337439803999998      65.318578768230651      8.4066210583906056
   124   2  -0.0      3.6910125949100001       66.90693927413065      8.4029480183138556
   125   2  -0.0     0.91805453572999995      65.314645408230646       11.59045505365887
   126   2  -0.0      3.6836612794199999      63.725694703230651      11.587038018449483
   127   1   0.0                       0      66.906955662677177      9.9986014964060761
   128   1   0.0           2.75651794916      68.501676752277177      9.9951533751190329
   129   2  -0.0     0.91337439803999998      68.504624275977179      8.4066210583906056
   130   2  -0.0      3.6910125949100001      70.092984781877178      8.4029480183138556
   131   2  -0.0     0.91805453572999995      68.500690915977174       11.59045505365887
   132   2  -0.0      3.6836612794199999      66.911740210977172      11.587038018449483
   133   1   0.0                       0      70.093001170423719      9.9986014964060761
   134   1   0.0           2.75651794916      71.687722260023719      9.9951533751190329
   135   2  -0.0     0.91337439803999998       71.69066978372372      8.4066210583906056
   136   2  -0.0      3.6910125949100001      73.279030289623719      8.4029480183138556
   137   2  -0.0     0.91805453572999995      71.686736423723715       11.59045505365887
   138   2  -0.0      3.6836612794199999      70.097785718723713      11.587038018449483
   139   1   0.0                       0      73.279046678170246      9.9986014964060761
   140   1   0.0           2.75651794916      74.873767767770246      9.9951533751190329
   141   2  -0.0     0.91337439803999998      74.876715291470248      8.4066210583906056
   142   2  -0.0      3.6910125949100001      76.465075797370247      8.4029480183138556
   143   2  -0.0     0.91805453572999995      74.872781931470243       11.59045505365887
   144   2  -0.0      3.6836612794199999      73.283831226470241      11.587038018449483
   145   1   0.0                       0      76.465092185916774      9.9986014964060761
   146   1   0.0           2.75651794916      78.059813275516774      9.9951533751190329
   147   2  -0.0     0.91337439803999998      78.062760799216775      8.4066210583906056
   148   2  -0.0      3.6910125949100001      79.651121305116774      8.4029480183138556
   149   2  -0.0     0.91805453572999995       78.05882743921677       11.59045505365887
   150   2  -0.0      3.6836612794199999      76.469876734216768      11.587038018449483
   151   1   0.0                       0      79.651137693663316      9.9986014964060761
   152   1   0.0           2.75651794916      81.245858783263316      9.9951533751190329
   153   2  -0.0     0.91337439803999998      81.248806306963317      8.4066210583906056
   154   2  -0.0      3.6910125949100001      82.837166812863316      8.4029480183138556
   155   2  -0.0     0.91805453572999995      81.244872946963312       11.59045505365887
   156   2  -0.0      3.6836612794199999       79.65592224196331      11.587038018449483
   157   1   0.0                       0      82.837183201409843      9.9986014964060761
   158   1   0.0           2.75651794916      84.431904291009843      9.9951533751190329
   159   2  -0.0     0.91337439803999998      84.434851814709845      8.4066210583906056
   160   2  -0.0      3.6910125949100001      86.023212320609844      8.4029480183138556
   161   2  -0.0     0.91805453572999995       84.43091845470984       11.59045505365887
   162   2  -0.0      3.6836612794199999      82.841967749709838      11.587038018449483
   163   1   0.0                       0      86.023228709156371      9.9986014964060761
   164   1   0.0           2.75651794916      87.617949798756371      9.9951533751190329
   165   2  -0.0     0.91337439803999998      87.620897322456372      8.4066210583906056
   166   2  -0.0      3.6910125949100001      89.209257828356371      8.4029480183138556
   167   2  -0.0     0.91805453572999995      87.616963962456367       11.59045505365887
   168   2  -0.0      3.6836612794199999      86.028013257456365      11.587038018449483
   169   1   0.0                       0      89.209274216902912      9.9986014964060761
   170   1   0.0           2.75651794916      90.803995306502912      9.9951533751190329
   171   2  -0.0     0.91337439803999998      90.806942830202914      8.4066210583906056
   172   2  -0.0      3.6910125949100001      92.395303336102913      8.4029480183138556
   173   2  -0.0     0.91805453572999995      90.803009470202909       11.59045505365887
   174   2  -0.0      3.6836612794199999      89.214058765202907      11.587038018449483
   175   1   0.0                       0       92.39531972464944      9.9986014964060761
   176   1   0.0           2.75651794916       93.99004081424944      9.9951533751190329
   177   2  -0.0     0.91337439803999998      93.992988337949441      8.4066210583906056
   178   2  -0.0      3.6910125949100001       95.58134884384944      8.4029480183138556
   179   2  -0.0     0.91805453572999995      93.989054977949436       11.59045505365887
   180   2  -0.0      3.6836612794199999      92.400104272949434      11.587038018449483
   181   1   0.0       5.518434938996192                       0      9.9986014964060761
   182   1   0.0      8.2749528881561929      1.5947210895999999      9.9951533751190329
   183   2  -0.0      6.4318093370361922            1.5976686133      8.4066210583906056
   184   2  -0.0       9.209447533906193      3.1860291192000001      8.4029480183138556
   185   2  -0.0      6.4364894747261916            1.5937352533       11.59045505365887
   186   2  -0.0       9.202096218416191   0.0047845483000000001      11.587038018449483
   187   1   0.0       5.518434938996192      3.1860455077465324      9.9986014964060761
   188   1   0.0      8.2749528881561929      4.7807665973465321      9.9951533751190329
   189   2  -0.0      6.4318093370361922      4.7837141210465326      8.4066210583906056
   190   2  -0.0       9.209447533906193      6.3720746269465325      8.4029480183138556
   191   2  -0.0      6.4364894747261916      4.7797807610465322       11.59045505365887
   192   2  -0.0       9.202096218416191      3.1908300560465324      11.587038018449483
   193   1   0.0       5.518434938996192      6.3720910154930648      9.9986014964060761
   194   1   0.0      8.2749528881561929      7.9668121050930649      9.9951533751190329
   195   2  -0.0      6.4318093370361922      7.9697596287930645      8.4066210583906056
   196   2  -0.0       9.209447533906193      9.5581201346930644      8.4029480183138556
   197   2  -0.0      6.4364894747261916       7.965826268793065       11.59045505365887
   198   2  -0.0       9.202096218416191      6.3768755637930647      11.587038018449483
   199   1   0.0       5.518434938996192      9.5581365232395967      9.9986014964060761
   200   1   0.0      8.2749528881561929      11.152857612839597      9.9951533751190329
   201   2  -0.0      6.4318093370361922      11.155805136539596      8.4066210583906056
   202   2  -0.0       9.209447533906193      12.744165642439597      8.4029480183138556
   203   2  -0.0      6.4364894747261916      11.151871776539597       11.59045505365887
   204   2  -0.0       9.202096218416191      9.5629210715395967      11.587038018449483
   205   1   0.0       5.518434938996192       12.74418203098613      9.9986014964060761
   206   1   0.0      8.2749528881561929       14.33890312058613      9.9951533751190329
   207   2  -0.0      6.4318093370361922      14.341850644286129      8.4066210583906056
   208   2  -0.0       9.209447533906193       15.93021115018613      8.4029480183138556
   209   2  -0.0      6.4364894747261916       14.33791728428613       11.59045505365887
   210   2  -0.0       9.202096218416191       12.74896657928613      11.587038018449483
   211   1   0.0       5.518434938996192      15.930227538732662      9.9986014964060761
   212   1   0.0      8.2749528881561929      17.524948628332663      9.9951533751190329
   213   2  -0.0      6.4318093370361922      17.527896152032664      8.4066210583906056
   214   2  -0.0       9.209447533906193      19.116256657932663      8.4029480183138556
   215   2  -0.0      6.4364894747261916      17.523962792032663       11.59045505365887
   216   2  -0.0       9.202096218416191      15.935012087032662      11.587038018449483
   217   1   0.0       5.518434938996192      19.116273046479193      9.9986014964060761
   218   1   0.0      8.2749528881561929      20.710994136079194      9.9951533751190329
   219   2  -0.0      6.4318093370361922      20.713941659779195      8.4066210583906056
   220   2  -0.0       9.209447533906193      22.302302165679194      8.4029480183138556
   221   2  -0.0      6.4364894747261916      20.710008299779194       11.59045505365887
   222   2  -0.0       9.202096218416191      19.121057594779195      11.587038018449483
   223   1   0.0       5.518434938996192      22.302318554225728      9.9986014964060761
   224   1   0.0      8.2749528881561929      23.897039643825728      9.9951533751190329
   225   2  -0.0      6.4318093370361922       23.89998716752573      8.4066210583906056
   226   2  -0.0       9.209447533906193      25.488347673425729      8.4029480183138556
   227   2  -0.0      6.4364894747261916      23.896053807525728       11.59045505365887
   228   2  -0.0       9.202096218416191       22.30710310252573      11.587038018449483
   229   1   0.0       5.518434938996192      25.488364061972259      9.9986014964060761
   230   1   0.0      8.2749528881561929      27.083085151572259      9.9951533751190329
   231   2  -0.0      6.4318093370361922      27.086032675272261      8.4066210583906056
   232   2  -0.0       9.209447533906193       28.67439318117226      8.4029480183138556
   233   2  -0.0      6.4364894747261916      27.082099315272259       11.59045505365887
   234   2  -0.0       9.202096218416191      25.493148610272261      11.587038018449483
   235   1   0.0       5.518434938996192       28.67440956971879      9.9986014964060761
   236   1   0.0      8.2749528881561929       30.26913065931879      9.9951533751190329
   237   2  -0.0      6.4318093370361922      30.272078183018792      8.4066210583906056
   238   2  -0.0       9.209447533906193      31.860438688918791      8.4029480183138556
   239   2  -0.0      6.4364894747261916       30.26814482301879       11.59045505365887
   240   2  -0.0       9.202096218416191      28.679194118018792      11.587038018449483
   241   1   0.0       5.518434938996192      31.860455077465325      9.9986014964060761
   242   1   0.0      8.2749528881561929      33.455176167065325      9.9951533751190329
   243   2  -0.0      6.4318093370361922      33.458123690765326      8.4066210583906056
   244   2  -0.0       9.209447533906193      35.046484196665325      8.4029480183138556
   245   2  -0.0      6.4364894747261916      33.454190330765321       11.59045505365887
   246   2  -0.0       9.202096218416191      31.865239625765327      11.587038018449483
   247   1   0.0       5.518434938996192      35.046500585211859      9.9986014964060761
   248   1   0.0      8.2749528881561929       36.64122167481186      9.9951533751190329
   249   2  -0.0      6.4318093370361922      36.644169198511861      8.4066210583906056
   250   2  -0.0       9.209447533906193       38.23252970441186      8.4029480183138556
   251   2  -0.0      6.4364894747261916      36.640235838511856       11.59045505365887
   252   2  -0.0       9.202096218416191      35.051285133511861      11.587038018449483
   253   1   0.0       5.518434938996192      38.232546092958387      9.9986014964060761
   254   1   0.0      8.2749528881561929      39.827267182558387      9.9951533751190329
   255   2  -0.0      6.4318093370361922      39.830214706258388      8.4066210583906056
   256   2  -0.0       9.209447533906193      41.418575212158387      8.4029480183138556
   257   2  -0.0      6.4364894747261916      39.826281346258384       11.59045505365887
   258   2  -0.0       9.202096218416191      38.237330641258389      11.587038018449483
   259   1   0.0       5.518434938996192      41.418591600704922      9.9986014964060761
   260   1   0.0      8.2749528881561929      43.013312690304922      9.9951533751190329
   261   2  -0.0      6.4318093370361922      43.016260214004923      8.4066210583906056
   262   2  -0.0       9.209447533906193      44.604620719904922      8.4029480183138556
   263   2  -0.0      6.4364894747261916      43.012326854004918       11.59045505365887
   264   2  -0.0       9.202096218416191      41.423376149004923      11.587038018449483
   265   1   0.0       5.518434938996192      44.604637108451456      9.9986014964060761
   266   1   0.0      8.2749528881561929      46.199358198051456      9.9951533751190329
   267   2  -0.0      6.4318093370361922      46.202305721751458      8.4066210583906056
   268   2  -0.0       9.209447533906193      47.790666227651457      8.4029480183138556
   269   2  -0.0      6.4364894747261916      46.198372361751453       11.59045505365887
   270   2  -0.0       9.202096218416191      44.609421656751458      11.587038018449483
   271   1   0.0       5.518434938996192      47.790682616197984      9.9986014964060761
   272   1   0.0      8.2749528881561929      49.385403705797984      9.9951533751190329
   273   2  -0.0      6.4318093370361922      49.388351229497985      8.4066210583906056
   274   2  -0.0       9.209447533906193      50.976711735397984      8.4029480183138556
   275   2  -0.0      6.4364894747261916       49.38441786949798       11.59045505365887
   276   2  -0.0       9.202096218416191      47.795467164497985      11.587038018449483
   277   1   0.0       5.518434938996192      50.976728123944518      9.9986014964060761
   278   1   0.0      8.2749528881561929      52.571449213544518      9.9951533751190329
   279   2  -0.0      6.4318093370361922       52.57439673724452      8.4066210583906056
   280   2  -0.0       9.209447533906193      54.162757243144519      8.4029480183138556
   281   2  -0.0      6.4364894747261916      52.570463377244515       11.59045505365887
   282   2  -0.0       9.202096218416191       50.98151267224452      11.587038018449483
   283   1   0.0       5.518434938996192      54.162773631691053      9.9986014964060761
   284   1   0.0      8.2749528881561929      55.757494721291053      9.9951533751190329
   285   2  -0.0      6.4318093370361922      55.760442244991054      8.4066210583906056
   286   2  -0.0       9.209447533906193      57.348802750891053      8.4029480183138556
   287   2  -0.0      6.4364894747261916       55.75650888499105       11.59045505365887
   288   2  -0.0       9.202096218416191      54.167558179991055      11.587038018449483
   289   1   0.0       5.518434938996192       57.34881913943758      9.9986014964060761
   290   1   0.0      8.2749528881561929      58.943540229037581      9.9951533751190329
   291   2  -0.0      6.4318093370361922      58.946487752737582      8.4066210583906056
   292   2  -0.0       9.209447533906193      60.534848258637581      8.4029480183138556
   293   2  -0.0      6.4364894747261916      58.942554392737577       11.59045505365887
   294   2  -0.0       9.202096218416191      57.353603687737582      11.587038018449483
   295   1   0.0       5.518434938996192      60.534864647184115      9.9986014964060761
   296   1   0.0      8.2749528881561929      62.129585736784115      9.9951533751190329
   297   2  -0.0      6.4318093370361922      62.132533260484117      8.4066210583906056
   298   2  -0.0       9.209447533906193      63.720893766384116      8.4029480183138556
   299   2  -0.0      6.4364894747261916      62.128599900484112       11.59045505365887
   300   2  -0.0       9.202096218416191      60.539649195484117      11.587038018449483
   301   1   0.0       5.518434938996192       63.72091015493065      9.9986014964060761
   302   1   0.0      8.2749528881561929       65.31563124453065      9.9951533751190329
   303   2  -0.0      6.4318093370361922      65.318578768230651      8.4066210583906056
   304   2  -0.0       9.209447533906193       66.90693927413065      8.4029480183138556
   305   2  -0.0      6.4364894747261916      65.314645408230646       11.59045505365887
   306   2  -0.0       9.202096218416191      63.725694703230651      11.587038018449483
   307   1   0.0       5.518434938996192      66.906955662677177      9.9986014964060761
   308   1   0.0      8.2749528881561929      68.501676752277177      9.9951533751190329
   309   2  -0.0      6.4318093370361922      68.504624275977179      8.4066210583906056
   310   2  -0.0       9.209447533906193      70.092984781877178      8.4029480183138556
   311   2  -0.0      6.4364894747261916      68.500690915977174       11.59045505365887
   312   2  -0.0       9.202096218416191      66.911740210977172      11.587038018449483
   313   1   0.0       5.518434938996192      70.093001170423719      9.9986014964060761
   314   1   0.0      8.2749528881561929      71.687722260023719      9.9951533751190329
   315   2  -0.0      6.4318093370361922       71.69066978372372      8.4066210583906056
   316   2  -0.0       9.209447533906193      73.279030289623719      8.4029480183138556
   317   2  -0.0      6.4364894747261916      71.686736423723715       11.59045505365887
   318   2  -0.0       9.202096218416191      70.097785718723713      11.587038018449483
   319   1   0.0       5.518434938996192      73.279046678170246      9.9986014964060761
   320   1   0.0      8.2749528881561929      74.873767767770246      9.9951533751190329
   321   2  -0.0      6.4318093370361922      74.876715291470248      8.4066210583906056
   322   2  -0.0       9.209447533906193      76.465075797370247      8.4029480183138556
   323   2  -0.0      6.4364894747261916      74.872781931470243       11.59045505365887
   324   2  -0.0       9.202096218416191      73.283831226470241      11.587038018449483
   325   1   0.0       5.518434938996192      76.465092185916774      9.9986014964060761
   326   1   0.0      8.2749528881561929      78.059813275516774      9.9951533751190329
   327   2  -0.0      6.4318093370361922      78.062760799216775      8.4066210583906056
   328   2  -0.0       9.209447533906193      79.651121305116774      8.4029480183138556
   329   2  -0.0      6.4364894747261916       78.05882743921677       11.59045505365887
   330   2  -0.0       9.202096218416191      76.469876734216768      11.587038018449483
   331   1   0.0       5.518434938996192      79.651137693663316      9.9986014964060761
   332   1   0.0      8.2749528881561929      81.245858783263316      9.9951533751190329
   333   2  -0.0      6.4318093370361922      81.248806306963317      8.4066210583906056
   334   2  -0.0       9.209447533906193      82.837166812863316      8.4029480183138556
   335   2  -0.0      6.4364894747261916      81.244872946963312       11.59045505365887