    6    6    1    1
  0.7242000E+02  0.6390000E-09  0.3400000E-09  0.2000000E-08  0.5000000E-15
  1.000000000000000E-004
  CAR 
 unknown system                          
     36     20     22
 
  0.0000000E+00  0.6250000E-01  0.0000000E+00  0.5000000E-01
    1      -13.346695   1.000000
    2      -12.556505   1.000000
    3      -11.663521   1.000000
    4      -11.250007   1.000000
    5       -6.203268   1.000000
    6       -5.422890   1.000000
    7       -5.299861   1.000000
    8       -4.168044   1.000000
    9       -3.902488   1.000000
   10       -2.745237   1.000000
   11       -2.428175   1.000000
   12       -2.163840   1.000000
   13       -2.057417   1.000000
   14       -1.620215   1.000000
   15       -1.355013   1.000000
   16       -1.141002   1.000008
   17       -0.516443   0.732041
   18       -0.109277  -0.016467
   19        0.160857  -0.000053
   20        1.034937  -0.000000
   21        1.213381  -0.000000
   22        1.514781  -0.000000
 
  0.2000000E+00  0.6250000E-01  0.0000000E+00  0.5000000E-01
    1      -13.229089   1.000000
    2      -12.480457   1.000000
    3      -11.889924   1.000000
    4      -11.385973   1.000000
    5       -5.977154   1.000000
    6       -5.102042   1.000000
    7       -5.038623   1.000000
    8       -4.178859   1.000000
    9       -4.009815   1.000000
   10       -2.910036   1.000000
   11       -2.443587   1.000000
   12       -2.129549   1.000000
   13       -2.008166   1.000000
   14       -1.871034   1.000000
   15       -1.342843   1.000000
   16       -1.229544   1.000000
   17       -0.600818   0.962887
   18       -0.305766   0.019019
   19        0.079624  -0.000467
   20        0.704716  -0.000000
   21        1.122965  -0.000000
   22        1.420786  -0.000000
 
  0.4000000E+00  0.6250000E-01  0.0000000E+00  0.5000000E-01
    1      -12.902566   1.000000
    2      -12.373588   1.000000
    3      -12.297250   1.000000
    4      -11.662265   1.000000
    5       -5.457769   1.000000
    6       -4.755193   1.000000
    7       -4.686373   1.000000
    8       -4.279878   1.000000
    9       -3.643465   1.000000
   10       -3.067951   1.000000
   11       -2.704420   1.000000
   12       -2.322365   1.000000
   13       -2.023777   1.000000
   14       -1.896508   1.000000
   15       -1.621199   1.000000
   16       -1.434839   1.000000
   17       -0.854671   1.008578
   18       -0.738830   1.031816
   19        0.023658  -0.001688
   20        0.504784  -0.000000
   21        1.024249  -0.000000
   22        1.393202  -0.000000
 
 -0.4000000E+00  0.6250000E-01  0.0000000E+00  0.5000000E-01
    1      -12.904894   1.000000
    2      -12.367280   1.000000
    3      -12.296283   1.000000
    4      -11.666969   1.000000
    5       -5.448209   1.000000
    6       -4.774857   1.000000
    7       -4.659515   1.000000
    8       -4.296903   1.000000
    9       -3.655595   1.000000
   10       -3.126239   1.000000
   11       -2.703269   1.000000
   12       -2.204175   1.000000
   13       -2.014249   1.000000
   14       -1.880714   1.000000
   15       -1.675975   1.000000
   16       -1.415320   1.000000
   17       -0.925894   1.002352
   18       -0.775871   1.023806
   19        0.119318  -0.000169
   20        0.501468  -0.000000
   21        0.955882  -0.000000
   22        1.459390  -0.000000
 
 -0.2000000E+00  0.6250000E-01  0.0000000E+00  0.5000000E-01
    1      -13.229941   1.000000
    2      -12.478363   1.000000
    3      -11.883767   1.000000
    4      -11.392917   1.000000
    5       -5.974727   1.000000
    6       -5.109498   1.000000
    7       -5.037581   1.000000
    8       -4.171579   1.000000
    9       -3.996451   1.000000
   10       -2.957788   1.000000
   11       -2.415957   1.000000
   12       -2.184910   1.000000
   13       -2.041077   1.000000
   14       -1.789681   1.000000
   15       -1.399866   1.000000
   16       -1.194407   1.000001
   17       -0.601607   0.964223
   18       -0.373657   0.172544
   19        0.221517  -0.000008
   20        0.737820  -0.000000
   21        1.055073  -0.000000
   22        1.445348  -0.000000
 
  0.0000000E+00  0.1875000E+00  0.0000000E+00  0.5000000E-01
    1      -13.040839   1.000000
    2      -12.296212   1.000000
    3      -11.439512   1.000000
    4      -10.992620   1.000000
    5       -5.915493   1.000000
    6       -5.171738   1.000000
    7       -4.986427   1.000000
    8       -4.103097   1.000000
    9       -3.834614   1.000000
   10       -3.261537   1.000000
   11       -2.994213   1.000000
   12       -2.724358   1.000000
   13       -2.106884   1.000000
   14       -1.867059   1.000000
   15       -1.459752   1.000000
   16       -1.387749   1.000000
   17       -1.153792   1.000005
   18       -0.651607   1.020808
   19       -0.344914   0.093527
   20        0.380386  -0.000000
   21        0.777619  -0.000000
   22        1.422190  -0.000000
 
  0.2000000E+00  0.1875000E+00  0.0000000E+00  0.5000000E-01
    1      -12.926772   1.000000
    2      -12.225697   1.000000
    3      -11.649582   1.000000
    4      -11.128300   1.000000
    5       -5.655400   1.000000
    6       -4.936870   1.000000
    7       -4.741205   1.000000
    8       -4.040960   1.000000
    9       -3.977148   1.000000
   10       -3.289827   1.000000
   11       -3.044869   1.000000
   12       -2.704232   1.000000
   13       -2.125251   1.000000
   14       -1.955152   1.000000
   15       -1.672779   1.000000
   16       -1.318414   1.000000
   17       -1.221594   1.000000
   18       -0.812956   1.015634
   19       -0.479055   0.584095
   20        0.394040  -0.000000
   21        0.772805  -0.000000
   22        1.209856  -0.000000
 
  0.4000000E+00  0.1875000E+00  0.0000000E+00  0.5000000E-01
    1      -12.613987   1.000000
    2      -12.110663   1.000000
    3      -12.041526   1.000000
    4      -11.402390   1.000000
    5       -5.153714   1.000000
    6       -4.589146   1.000000
    7       -4.481298   1.000000
    8       -4.061940   1.000000
    9       -3.663633   1.000000
   10       -3.297025   1.000000
   11       -3.138208   1.000000
   12       -2.788995   1.000000
   13       -2.357281   1.000000
   14       -2.163036   1.000000
   15       -1.892690   1.000000
   16       -1.640747   1.000000
   17       -1.266354   1.000000
   18       -1.071637   1.000065
   19       -0.507211   0.697301
   20        0.327136  -0.000000
   21        0.809369  -0.000000
   22        1.099342  -0.000000
 
 -0.4000000E+00  0.1875000E+00  0.0000000E+00  0.5000000E-01
    1      -12.620658   1.000000
    2      -12.095242   1.000000
    3      -12.035917   1.000000
    4      -11.416147   1.000000
    5       -5.120146   1.000000
    6       -4.611034   1.000000
    7       -4.441054   1.000000
    8       -4.133659   1.000000
    9       -3.734691   1.000000
   10       -3.376429   1.000000
   11       -3.049948   1.000000
   12       -2.704218   1.000000
   13       -2.345012   1.000000
   14       -2.161529   1.000000
   15       -1.786552   1.000000
   16       -1.655211   1.000000
   17       -1.431246   1.000000
   18       -1.062611   1.000085
   19       -0.495900   0.652947
   20        0.305098  -0.000000
   21        0.789531  -0.000000
   22        1.150928  -0.000000
 
 -0.2000000E+00  0.1875000E+00  0.0000000E+00  0.5000000E-01
    1      -12.929344   1.000000
    2      -12.219437   1.000000
    3      -11.633087   1.000000
    4      -11.147240   1.000000
    5       -5.657218   1.000000
    6       -4.945539   1.000000
    7       -4.733614   1.000000
    8       -4.067277   1.000000
    9       -3.926159   1.000000
   10       -3.281356   1.000000
   11       -3.120335   1.000000
   12       -2.663725   1.000000
   13       -2.181989   1.000000
   14       -1.944791   1.000000
   15       -1.697209   1.000000
   16       -1.427337   1.000000
   17       -1.183775   1.000002
   18       -0.756321   1.028260
   19       -0.402163   0.269671
   20        0.279235  -0.000001
   21        0.925920  -0.000000
   22        1.270251  -0.000000
 
  0.0000000E+00  0.3125000E+00  0.0000000E+00  0.5000000E-01
    1      -12.513727   1.000000
    2      -11.838940   1.000000
    3      -11.113223   1.000000
    4      -10.561184   1.000000
    5       -5.579812   1.000000
    6       -4.896894   1.000000
    7       -4.812023   1.000000
    8       -4.421914   1.000000
    9       -4.261614   1.000000
   10       -3.835079   1.000000
   11       -3.630877   1.000000
   12       -3.285854   1.000000
   13       -2.874146   1.000000
   14       -2.298044   1.000000
   15       -2.081790   1.000000
   16       -1.635766   1.000000
   17       -1.248952   1.000000
   18       -0.543778   0.825262
   19       -0.336778   0.074907
   20        0.337259  -0.000000
   21        0.568181  -0.000000
   22        1.223206  -0.000000
 
  0.2000000E+00  0.3125000E+00  0.0000000E+00  0.5000000E-01
    1      -12.408088   1.000000
    2      -11.780951   1.000000
    3      -11.269848   1.000000
    4      -10.707928   1.000000
    5       -5.293733   1.000000
    6       -4.939645   1.000000
    7       -4.684827   1.000000
    8       -4.393015   1.000000
    9       -4.217837   1.000000
   10       -3.776361   1.000000
   11       -3.577345   1.000000
   12       -3.426305   1.000000
   13       -2.951381   1.000000
   14       -2.250485   1.000000
   15       -1.873946   1.000000
   16       -1.627220   1.000000
   17       -1.391388   1.000000
   18       -0.754279   1.028706
   19       -0.388113   0.219677
   20        0.428025  -0.000000
   21        0.606958  -0.000000
   22        1.023302  -0.000000
 
  0.4000000E+00  0.3125000E+00  0.0000000E+00  0.5000000E-01
    1      -12.127896   1.000000
    2      -11.670181   1.000000
    3      -11.600802   1.000000
    4      -10.972943   1.000000
    5       -5.067664   1.000000
    6       -4.863758   1.000000
    7       -4.504851   1.000000
    8       -4.262999   1.000000
    9       -4.038892   1.000000
   10       -3.892654   1.000000
   11       -3.514652   1.000000
   12       -3.201129   1.000000
   13       -2.890144   1.000000
   14       -2.338926   1.000000
   15       -2.104561   1.000000
   16       -1.675739   1.000000
   17       -1.384408   1.000000
   18       -1.162735   1.000004
   19       -0.540176   0.813896
   20        0.494839  -0.000000
   21        0.749575  -0.000000
   22        0.972749  -0.000000
 
 -0.4000000E+00  0.3125000E+00  0.0000000E+00  0.5000000E-01
    1      -12.136650   1.000000
    2      -11.661366   1.000000
    3      -11.580802   1.000000
    4      -10.992358   1.000000
    5       -5.058641   1.000000
    6       -4.861423   1.000000
    7       -4.498306   1.000000
    8       -4.295832   1.000000
    9       -4.118780   1.000000
   10       -3.849051   1.000000
   11       -3.510790   1.000000
   12       -3.094661   1.000000
   13       -2.931761   1.000000
   14       -2.314725   1.000000
   15       -2.113435   1.000000
   16       -1.719173   1.000000
   17       -1.443848   1.000000
   18       -1.131916   1.000011
   19       -0.591893   0.946714
   20        0.414604  -0.000000
   21        0.903477  -0.000000
   22        1.076079  -0.000000
 
 -0.2000000E+00  0.3125000E+00  0.0000000E+00  0.5000000E-01
    1      -12.411929   1.000000
    2      -11.771608   1.000000
    3      -11.251846   1.000000
    4      -10.729660   1.000000
    5       -5.353652   1.000000
    6       -4.926432   1.000000
    7       -4.676506   1.000000
    8       -4.376590   1.000000
    9       -4.190160   1.000000
   10       -3.738473   1.000000
   11       -3.645835   1.000000
   12       -3.350964   1.000000
   13       -2.858109   1.000000
   14       -2.321639   1.000000
   15       -2.137023   1.000000
   16       -1.682201   1.000000
   17       -1.276776   1.000000
   18       -0.689339   1.034542
   19       -0.459960   0.503764
   20        0.300730  -0.000001
   21        0.825324  -0.000000
   22        1.333437  -0.000000
 
  0.0000000E+00  0.4375000E+00  0.0000000E+00  0.5000000E-01
    1      -12.026949   1.000000
    2      -11.344339   1.000000
    3      -10.972981   1.000000
    4      -10.178835   1.000000
    5       -5.835953   1.000000
    6       -5.589682   1.000000
    7       -4.872210   1.000000
    8       -4.712622   1.000000
    9       -4.411293   1.000000
   10       -4.022590   1.000000
   11       -3.707140   1.000000
   12       -3.385164   1.000000
   13       -3.242556   1.000000
   14       -2.639211   1.000000
   15       -2.389762   1.000000
   16       -1.636416   1.000000
   17       -1.314651   1.000000
   18       -0.226873  -0.034776
   19        0.061537  -0.000722
   20        0.428734  -0.000000
   21        0.857352  -0.000000
   22        1.159050  -0.000000
 
  0.2000000E+00  0.4375000E+00  0.0000000E+00  0.5000000E-01
    1      -11.932353   1.000000
    2      -11.318685   1.000000
    3      -11.030364   1.000000
    4      -10.347002   1.000000
    5       -5.820805   1.000000
    6       -5.534439   1.000000
    7       -5.050515   1.000000
    8       -4.597344   1.000000
    9       -4.492081   1.000000
   10       -3.903929   1.000000
   11       -3.727389   1.000000
   12       -3.347678   1.000000
   13       -2.999541   1.000000
   14       -2.529047   1.000000
   15       -2.094839   1.000000
   16       -1.688168   1.000000
   17       -1.392348   1.000000
   18       -0.509325   0.705382
   19        0.101234  -0.000271
   20        0.535378  -0.000000
   21        0.759157  -0.000000
   22        1.104218  -0.000000
 
  0.4000000E+00  0.4375000E+00  0.0000000E+00  0.5000000E-01
    1      -11.696981   1.000000
    2      -11.267927   1.000000
    3      -11.208109   1.000000
    4      -10.605145   1.000000
    5       -5.799253   1.000000
    6       -5.659163   1.000000
    7       -5.171846   1.000000
    8       -4.741873   1.000000
    9       -4.202469   1.000000
   10       -3.671486   1.000000
   11       -3.539530   1.000000
   12       -3.140649   1.000000
   13       -2.797268   1.000000
   14       -2.372937   1.000000
   15       -2.039123   1.000000
   16       -1.617710   1.000000
   17       -1.341932   1.000000
   18       -1.091269   1.000037
   19       -0.103146  -0.015227
   20        0.562558  -0.000000
   21        0.838069  -0.000000
   22        1.188807  -0.000000
 
 -0.4000000E+00  0.4375000E+00  0.0000000E+00  0.5000000E-01
    1      -11.701184   1.000000
    2      -11.272882   1.000000
    3      -11.187515   1.000000
    4      -10.616203   1.000000
    5       -5.800718   1.000000
    6       -5.685071   1.000000
    7       -5.118752   1.000000
    8       -4.779500   1.000000
    9       -4.191340   1.000000
   10       -3.697059   1.000000
   11       -3.461654   1.000000
   12       -3.220971   1.000000
   13       -2.715174   1.000000
   14       -2.406490   1.000000
   15       -2.072150   1.000000
   16       -1.638344   1.000000
   17       -1.366326   1.000000
   18       -1.058285   1.000095
   19       -0.159690  -0.027789
   20        0.587988  -0.000000
   21        0.961374  -0.000000
   22        1.140100  -0.000000
 
 -0.2000000E+00  0.4375000E+00  0.0000000E+00  0.5000000E-01
    1      -11.934629   1.000000
    2      -11.312206   1.000000
    3      -11.024907   1.000000
    4      -10.355293   1.000000
    5       -5.839344   1.000000
    6       -5.574432   1.000000
    7       -4.981088   1.000000
    8       -4.661980   1.000000
    9       -4.451474   1.000000
   10       -3.795174   1.000000
   11       -3.672408   1.000000
   12       -3.476371   1.000000
   13       -3.003145   1.000000
   14       -2.490918   1.000000
   15       -2.238888   1.000000
   16       -1.717865   1.000000
   17       -1.318707   1.000000
   18       -0.500068   0.669496
   19       -0.026114  -0.004530
   20        0.596216  -0.000000
   21        0.893471  -0.000000
   22        1.206282  -0.000000
