 vasp.5.4.4.18Apr17-6-g9f103f2a35 (build Sep 16 2021 13:51:27) complex          
  
 executed on             LinuxIFC date 2023.07.17  17:10:54
 running on    8 total cores
 distrk:  each k-point on    8 cores,    1 groups
 distr:  one band on NCORES_PER_BAND=   4 cores,    2 groups


--------------------------------------------------------------------------------------------------------


 INCAR:
 POTCAR:   PAW_PBE Mo 08Apr2002                   
 POTCAR:   PAW_PBE Te 08Apr2002                   
 POTCAR:   PAW_PBE Mo 08Apr2002                   
   VRHFIN =Mo: 4p5s4d                                                           
   LEXCH  = PE                                                                  
   EATOM  =   217.5180 eV,   15.9871 Ry                                         
                                                                                
   TITEL  = PAW_PBE Mo 08Apr2002                                                
   LULTRA =        F    use ultrasoft PP ?                                      
   IUNSCR =        1    unscreen: 0-lin 1-nonlin 2-no                           
   RPACOR =    2.200    partial core radius                                     
   POMASS =   95.940; ZVAL   =    6.000    mass and valenz                      
   RCORE  =    2.750    outmost cutoff radius                                   
   RWIGS  =    2.750; RWIGS  =    1.455    wigner-seitz radius (au A)           
   ENMAX  =  224.584; ENMIN  =  168.438 eV                                      
   RCLOC  =    2.111    cutoff for local pot                                    
   LCOR   =        T    correct aug charges                                     
   LPAW   =        T    paw PP                                                  
   EAUG   =  345.278                                                            
   DEXC   =    -.088                                                            
   RMAX   =    3.077    core radius for proj-oper                               
   RAUG   =    1.300    factor for augmentation sphere                          
   RDEP   =    2.815    radius for radial grids                                 
   QCUT   =   -4.063; QGAM   =    8.126    optimization parameters              
                                                                                
   Description                                                                  
     l     E      TYP  RCUT    TYP  RCUT                                        
     2   .000     23  2.500                                                     
     2   .000     23  2.500                                                     
     0   .000     23  2.600                                                     
     0  1.000     23  2.600                                                     
     1   .400     23  2.750                                                     
     1  2.000     23  2.750                                                     
     3   .000      7   .000                                                     
  local pseudopotential read in
  partial core-charges read in
  atomic valenz-charges read in
  non local Contribution for L=           2  read in
    real space projection operators read in
  non local Contribution for L=           2  read in
    real space projection operators read in
  non local Contribution for L=           0  read in
    real space projection operators read in
  non local Contribution for L=           0  read in
    real space projection operators read in
  non local Contribution for L=           1  read in
    real space projection operators read in
  non local Contribution for L=           1  read in
    real space projection operators read in
    PAW grid and wavefunctions read in
 
   number of l-projection  operators is LMAX  =           6
   number of lm-projection operators is LMMAX =          18
 
 POTCAR:   PAW_PBE Te 08Apr2002                   
   VRHFIN =Te: s2p4                                                             
   LEXCH  = PE                                                                  
   EATOM  =   223.2721 eV,   16.4100 Ry                                         
                                                                                
   TITEL  = PAW_PBE Te 08Apr2002                                                
   LULTRA =        F    use ultrasoft PP ?                                      
   IUNSCR =        1    unscreen: 0-lin 1-nonlin 2-no                           
   RPACOR =    2.200    partial core radius                                     
   POMASS =  127.600; ZVAL   =    6.000    mass and valenz                      
   RCORE  =    2.300    outmost cutoff radius                                   
   RWIGS  =    2.900; RWIGS  =    1.535    wigner-seitz radius (au A)           
   ENMAX  =  174.982; ENMIN  =  131.236 eV                                      
   ICORE  =        3    local potential                                         
   LCOR   =        T    correct aug charges                                     
   LPAW   =        T    paw PP                                                  
   EAUG   =  368.792                                                            
   DEXC   =    -.169                                                            
   RMAX   =    3.486    core radius for proj-oper                               
   RAUG   =    1.300    factor for augmentation sphere                          
   RDEP   =    2.397    radius for radial grids                                 
   QCUT   =   -3.586; QGAM   =    7.172    optimization parameters              
                                                                                
   Description                                                                  
     l     E      TYP  RCUT    TYP  RCUT                                        
     0   .000     23  2.300                                                     
     0   .000     23  2.300                                                     
     1   .000     23  2.300                                                     
     1   .000     23  2.300                                                     
     2   .000     23  2.300                                                     
     3  -.100     23  2.300                                                     
  local pseudopotential read in
  partial core-charges read in
  atomic valenz-charges read in
  non local Contribution for L=           0  read in
    real space projection operators read in
  non local Contribution for L=           0  read in
    real space projection operators read in
  non local Contribution for L=           1  read in
    real space projection operators read in
  non local Contribution for L=           1  read in
    real space projection operators read in
  non local Contribution for L=           2  read in
    real space projection operators read in
    PAW grid and wavefunctions read in
 
   number of l-projection  operators is LMAX  =           5
   number of lm-projection operators is LMMAX =          13
 
 PAW_PBE Mo 08Apr2002                   :
 energy of atom  1       EATOM= -217.5180
 kinetic energy error for atom=    0.0303 (will be added to EATOM!!)
 PAW_PBE Te 08Apr2002                   :
 energy of atom  2       EATOM= -223.2721
 kinetic energy error for atom=    0.0041 (will be added to EATOM!!)
 
 
 POSCAR: Mo Te                                   
  positions in cartesian coordinates
  No initial velocities read in
 exchange correlation table for  LEXCH =        8
   RHO(1)=    0.500       N(1)  =     2000
   RHO(2)=  100.500       N(2)  =     4000
 


--------------------------------------------------------------------------------------------------------


 ion  position               nearest neighbor table
   1  0.041  0.026  0.498-   4 2.68   4 2.69   6 2.71   5 2.77   2 2.87   2 2.87   3 2.91
   2  0.401  0.525  0.507-   4 2.73   6 2.74   3 2.80   5 2.81   3 2.85   1 2.87   1 2.87   5 3.39
                             6 3.50
   3  0.646  0.014  0.425-   2 2.80   2 2.85   1 2.91   5 3.28   4 3.61   4 3.63
   4  0.139  0.522  0.399-   1 2.68   1 2.69   2 2.73   3 3.61   3 3.63
   5  0.715  0.182  0.585-   1 2.77   2 2.81   6 3.19   3 3.28   6 3.33   2 3.39
   6  0.204  0.231  0.618-   1 2.71   2 2.74   5 3.19   5 3.33   2 3.50
 

IMPORTANT INFORMATION: All symmetrisations will be switched off!
NOSYMM: (Re-)initialisation of all symmetry stuff for point group C_1.

 
 
 KPOINTS: KPOINTS created by Atomic Simulation Env

Automatic generation of k-mesh.
Space group operators:
 irot       det(A)        alpha          n_x          n_y          n_z        tau_x        tau_y        tau_z
    1     1.000000     0.000001     1.000000     0.000000     0.000000     0.000000     0.000000     0.000000
 
 Subroutine IBZKPT returns following result:
 ===========================================
 
 Found     20 irreducible k-points:
 
 Following reciprocal coordinates:
            Coordinates               Weight
  0.000000  0.062500  0.000000      2.000000
  0.200000  0.062500  0.000000      2.000000
  0.400000  0.062500  0.000000      2.000000
 -0.400000  0.062500  0.000000      2.000000
 -0.200000  0.062500  0.000000      2.000000
  0.000000  0.187500  0.000000      2.000000
  0.200000  0.187500  0.000000      2.000000
  0.400000  0.187500  0.000000      2.000000
 -0.400000  0.187500  0.000000      2.000000
 -0.200000  0.187500  0.000000      2.000000
  0.000000  0.312500  0.000000      2.000000
  0.200000  0.312500  0.000000      2.000000
  0.400000  0.312500  0.000000      2.000000
 -0.400000  0.312500  0.000000      2.000000
 -0.200000  0.312500  0.000000      2.000000
  0.000000  0.437500  0.000000      2.000000
  0.200000  0.437500  0.000000      2.000000
  0.400000  0.437500  0.000000      2.000000
 -0.400000  0.437500  0.000000      2.000000
 -0.200000  0.437500  0.000000      2.000000
 
 Following cartesian coordinates:
            Coordinates               Weight
  0.000000  0.018382  0.000000      2.000000
  0.031299  0.018382  0.000000      2.000000
  0.062598  0.018382  0.000000      2.000000
 -0.062598  0.018382  0.000000      2.000000
 -0.031299  0.018382  0.000000      2.000000
  0.000000  0.055147  0.000000      2.000000
  0.031299  0.055147  0.000000      2.000000
  0.062598  0.055147  0.000000      2.000000
 -0.062598  0.055147  0.000000      2.000000
 -0.031299  0.055147  0.000000      2.000000
  0.000000  0.091912  0.000000      2.000000
  0.031299  0.091912  0.000000      2.000000
  0.062598  0.091912  0.000000      2.000000
 -0.062598  0.091912  0.000000      2.000000
 -0.031299  0.091912  0.000000      2.000000
  0.000000  0.128676  0.000000      2.000000
  0.031299  0.128676  0.000000      2.000000
  0.062598  0.128676  0.000000      2.000000
 -0.062598  0.128676  0.000000      2.000000
 -0.031299  0.128676  0.000000      2.000000
 


--------------------------------------------------------------------------------------------------------




 Dimension of arrays:
   k-points           NKPTS =     20   k-points in BZ     NKDIM =     20   number of bands    NBANDS=     22
   number of dos      NEDOS =    301   number of ions     NIONS =      6
   non local maximal  LDIM  =      6   non local SUM 2l+1 LMDIM =     18
   total plane-waves  NPLWV =  56448
   max r-space proj   IRMAX =      1   max aug-charges    IRDMAX=   8539
   dimension x,y,z NGX =    32 NGY =   18 NGZ =   98
   dimension x,y,z NGXF=    64 NGYF=   36 NGZF=  196
   support grid    NGXF=    64 NGYF=   36 NGZF=  196
   ions per type =               2   4
   NGX,Y,Z   is equivalent  to a cutoff of   8.33,  8.80,  8.15 a.u.
   NGXF,Y,Z  is equivalent  to a cutoff of  16.65, 17.60, 16.29 a.u.

 SYSTEM =  unknown system                          
 POSCAR =  Mo Te                                   

 Startparameter for this run:
   NWRITE =      2    write-flag & timer
   PREC   = accura    normal or accurate (medium, high low for compatibility)
   ISTART =      1    job   : 0-new  1-cont  2-samecut
   ICHARG =      0    charge: 1-file 2-atom 10-const
   ISPIN  =      1    spin polarized calculation?
   LNONCOLLINEAR =      F non collinear calculations
   LSORBIT =      F    spin-orbit coupling
   INIWAV =      1    electr: 0-lowe 1-rand  2-diag
   LASPH  =      F    aspherical Exc in radial PAW
   METAGGA=      F    non-selfconsistent MetaGGA calc.

 Electronic Relaxation 1
   ENCUT  =  224.6 eV  16.51 Ry    4.06 a.u.   7.81  4.15 24.44*2*pi/ulx,y,z
   ENINI  =  224.6     initial cutoff
   ENAUG  =  368.8 eV  augmentation charge cutoff
   NELM   =     60;   NELMIN=  2; NELMDL=  0     # of ELM steps 
   EDIFF  = 0.1E-03   stopping-criterion for ELM
   LREAL  =      F    real-space projection
   NLSPLINE    = F    spline interpolate recip. space projectors
   LCOMPAT=      F    compatible to vasp.4.4
   GGA_COMPAT  = T    GGA compatible to vasp.4.4-vasp.4.6
   LMAXPAW     = -100 max onsite density
   LMAXMIX     =    2 max onsite mixed and CHGCAR
   VOSKOWN=      0    Vosko Wilk Nusair interpolation
   ROPT   =    0.00000   0.00000
 Ionic relaxation
   EDIFFG = 0.1E-02   stopping-criterion for IOM
   NSW    =      0    number of steps for IOM
   NBLOCK =      1;   KBLOCK =      1    inner block; outer block 
   IBRION =     -1    ionic relax: 0-MD 1-quasi-New 2-CG
   NFREE  =      0    steps in history (QN), initial steepest desc. (CG)
   ISIF   =      2    stress and relaxation
   IWAVPR =     10    prediction:  0-non 1-charg 2-wave 3-comb
   ISYM   =      0    0-nonsym 1-usesym 2-fastsym
   LCORR  =      T    Harris-Foulkes like correction to forces

   POTIM  = 0.5000    time-step for ionic-motion
   TEIN   =    0.0    initial temperature
   TEBEG  =    0.0;   TEEND  =   0.0 temperature during run
   SMASS  =  -3.00    Nose mass-parameter (am)
   estimated Nose-frequenzy (Omega)   =  0.10E-29 period in steps =****** mass=  -0.933E-27a.u.
   SCALEE = 1.0000    scale energy and forces
   NPACO  =    256;   APACO  = 16.0  distance and # of slots for P.C.
   PSTRESS=    0.0 pullay stress

  Mass of Ions in am
   POMASS =  95.94127.60
  Ionic Valenz
   ZVAL   =   6.00  6.00
  Atomic Wigner-Seitz radii
   RWIGS  =  -1.00 -1.00
  virtual crystal weights 
   VCA    =   1.00  1.00
   NELECT =      36.0000    total number of electrons
   NUPDOWN=      -1.0000    fix difference up-down

 DOS related values:
   EMIN   =  10.00;   EMAX   =-10.00  energy-range for DOS
   EFERMI =   0.00
   ISMEAR =     1;   SIGMA  =   0.20  broadening in eV -4-tet -1-fermi 0-gaus

 Electronic relaxation 2 (details)
   IALGO  =     38    algorithm
   LDIAG  =      T    sub-space diagonalisation (order eigenvalues)
   LSUBROT=      F    optimize rotation matrix (better conditioning)
   TURBO    =      0    0=normal 1=particle mesh
   IRESTART =      0    0=no restart 2=restart with 2 vectors
   NREBOOT  =      0    no. of reboots
   NMIN     =      0    reboot dimension
   EREF     =   0.00    reference energy to select bands
   IMIX   =      4    mixing-type and parameters
     AMIX     =   0.40;   BMIX     =  1.00
     AMIX_MAG =   1.60;   BMIX_MAG =  1.00
     AMIN     =   0.10
     WC   =   100.;   INIMIX=   1;  MIXPRE=   1;  MAXMIX= -45

 Intra band minimization:
   WEIMIN = 0.0000     energy-eigenvalue tresh-hold
   EBREAK =  0.11E-05  absolut break condition
   DEPER  =   0.30     relativ break condition  

   TIME   =   0.40     timestep for ELM

  volume/ion in A,a.u.               =      72.42       488.71
  Fermi-wavevector in a.u.,A,eV,Ry     =   0.713684  1.348667  6.930050  0.509344
  Thomas-Fermi vector in A             =   1.801386
 
 Write flags
   LWAVE        =      T    write WAVECAR
   LDOWNSAMPLE  =      F    k-point downsampling of WAVECAR
   LCHARG       =      T    write CHGCAR
   LVTOT        =      F    write LOCPOT, total local potential
   LVHAR        =      F    write LOCPOT, Hartree potential only
   LELF         =      F    write electronic localiz. function (ELF)
   LORBIT       =      0    0 simple, 1 ext, 2 COOP (PROOUT), +10 PAW based schemes


 Dipole corrections
   LMONO  =      F    monopole corrections only (constant potential shift)
   LDIPOL =      F    correct potential (dipole corrections)
   IDIPOL =      0    1-x, 2-y, 3-z, 4-all directions 
   EPSILON=  1.0000000 bulk dielectric constant

 Exchange correlation treatment:
   GGA     =    PE    GGA type
   LEXCH   =     8    internal setting for exchange type
   VOSKOWN=      0    Vosko Wilk Nusair interpolation
   LHFCALC =     F    Hartree Fock is set to
   LHFONE  =     F    Hartree Fock one center treatment
   AEXX    =    0.0000 exact exchange contribution

 Linear response parameters
   LEPSILON=     F    determine dielectric tensor
   LRPA    =     F    only Hartree local field effects (RPA)
   LNABLA  =     F    use nabla operator in PAW spheres
   LVEL    =     F    velocity operator in full k-point grid
   LINTERFAST=   F  fast interpolation
   KINTER  =     0    interpolate to denser k-point grid
   CSHIFT  =0.1000    complex shift for real part using Kramers Kronig
   OMEGAMAX=  -1.0    maximum frequency
   DEG_THRESHOLD= 0.2000000E-02 threshold for treating states as degnerate
   RTIME   =   -0.100 relaxation time in fs
  (WPLASMAI=    0.000 imaginary part of plasma frequency in eV, 0.658/RTIME)
   DFIELD  = 0.0000000 0.0000000 0.0000000 field for delta impulse in time
 
 Orbital magnetization related:
   ORBITALMAG=     F  switch on orbital magnetization
   LCHIMAG   =     F  perturbation theory with respect to B field
   DQ        =  0.001000  dq finite difference perturbation B field
   LLRAUG    =     F  two centre corrections for induced B field



--------------------------------------------------------------------------------------------------------


 Static calculation
 charge density and potential will be updated during run
 non-spin polarized calculation
 Variant of blocked Davidson
 Davidson routine will perform the subspace rotation
 perform sub-space diagonalisation
    after iterative eigenvector-optimisation
 modified Broyden-mixing scheme, WC =      100.0
 initial mixing is a Kerker type mixing with AMIX =  0.4000 and BMIX =      1.0000
 Hartree-type preconditioning will be used
 using additional bands            4
 reciprocal scheme for non local part
 use partial core corrections
 calculate Harris-corrections to forces 
   (improved forces if not selfconsistent)
 use gradient corrections 
 use of overlap-Matrix (Vanderbilt PP)
 Methfessel and Paxton  Order N= 1 SIGMA  =   0.20


--------------------------------------------------------------------------------------------------------


  energy-cutoff  :      224.58
  volume of cell :      434.52
      direct lattice vectors                 reciprocal lattice vectors
     6.390000000  0.000000000  0.000000000     0.156494523  0.000000000  0.000000000
     0.000000000  3.400000000  0.000000000     0.000000000  0.294117647  0.000000000
     0.000000000  0.000000000 20.000000000     0.000000000  0.000000000  0.050000000

  length of vectors
     6.390000000  3.400000000 20.000000000     0.156494523  0.294117647  0.050000000


 
 old parameters found on file WAVECAR:
  energy-cutoff  :      224.58
  volume of cell :      434.52
      direct lattice vectors                 reciprocal lattice vectors
     6.390000000  0.000000000  0.000000000     0.156494523  0.000000000  0.000000000
     0.000000000  3.400000000  0.000000000     0.000000000  0.294117647  0.000000000
     0.000000000  0.000000000 20.000000000     0.000000000  0.000000000  0.050000000

  length of vectors

 
 k-points in units of 2pi/SCALE and weight: KPOINTS created by Atomic Simulation Env
   0.00000000  0.01838235  0.00000000       0.050
   0.03129890  0.01838235  0.00000000       0.050
   0.06259781  0.01838235  0.00000000       0.050
  -0.06259781  0.01838235  0.00000000       0.050
  -0.03129890  0.01838235  0.00000000       0.050
   0.00000000  0.05514706  0.00000000       0.050
   0.03129890  0.05514706  0.00000000       0.050
   0.06259781  0.05514706  0.00000000       0.050
  -0.06259781  0.05514706  0.00000000       0.050
  -0.03129890  0.05514706  0.00000000       0.050
   0.00000000  0.09191176  0.00000000       0.050
   0.03129890  0.09191176  0.00000000       0.050
   0.06259781  0.09191176  0.00000000       0.050
  -0.06259781  0.09191176  0.00000000       0.050
  -0.03129890  0.09191176  0.00000000       0.050
   0.00000000  0.12867647  0.00000000       0.050
   0.03129890  0.12867647  0.00000000       0.050
   0.06259781  0.12867647  0.00000000       0.050
  -0.06259781  0.12867647  0.00000000       0.050
  -0.03129890  0.12867647  0.00000000       0.050
 
 k-points in reciprocal lattice and weights: KPOINTS created by Atomic Simulation Env
   0.00000000  0.06250000  0.00000000       0.050
   0.20000000  0.06250000  0.00000000       0.050
   0.40000000  0.06250000  0.00000000       0.050
  -0.40000000  0.06250000  0.00000000       0.050
  -0.20000000  0.06250000  0.00000000       0.050
   0.00000000  0.18750000  0.00000000       0.050
   0.20000000  0.18750000  0.00000000       0.050
   0.40000000  0.18750000  0.00000000       0.050
  -0.40000000  0.18750000  0.00000000       0.050
  -0.20000000  0.18750000  0.00000000       0.050
   0.00000000  0.31250000  0.00000000       0.050
   0.20000000  0.31250000  0.00000000       0.050
   0.40000000  0.31250000  0.00000000       0.050
  -0.40000000  0.31250000  0.00000000       0.050
  -0.20000000  0.31250000  0.00000000       0.050
   0.00000000  0.43750000  0.00000000       0.050
   0.20000000  0.43750000  0.00000000       0.050
   0.40000000  0.43750000  0.00000000       0.050
  -0.40000000  0.43750000  0.00000000       0.050
  -0.20000000  0.43750000  0.00000000       0.050
 
 position of ions in fractional coordinates (direct lattice) 
   0.04069281  0.02565401  0.49756650
   0.40085131  0.52529165  0.50672440
   0.64605551  0.01426255  0.42534471
   0.13912212  0.52162724  0.39852648
   0.71541943  0.18170320  0.58526741
   0.20419959  0.23146134  0.61755436
 
 position of ions in cartesian coordinates  (Angst):
   0.26002708  0.08722363  9.95133000
   2.56143989  1.78599163 10.13448799
   4.12829473  0.04849267  8.50689412
   0.88899036  1.77353263  7.97052958
   4.57153017  0.61779087 11.70534818
   1.30483535  0.78696857 12.35108722
 


--------------------------------------------------------------------------------------------------------


 k-point  1 :   0.0000 0.0625 0.0000  plane waves:    3299
 k-point  2 :   0.2000 0.0625 0.0000  plane waves:    3311
 k-point  3 :   0.4000 0.0625 0.0000  plane waves:    3313
 k-point  4 :  -0.4000 0.0625 0.0000  plane waves:    3313
 k-point  5 :  -0.2000 0.0625 0.0000  plane waves:    3311
 k-point  6 :   0.0000 0.1875 0.0000  plane waves:    3286
 k-point  7 :   0.2000 0.1875 0.0000  plane waves:    3300
 k-point  8 :   0.4000 0.1875 0.0000  plane waves:    3327
 k-point  9 :  -0.4000 0.1875 0.0000  plane waves:    3327
 k-point 10 :  -0.2000 0.1875 0.0000  plane waves:    3300
 k-point 11 :   0.0000 0.3125 0.0000  plane waves:    3336
 k-point 12 :   0.2000 0.3125 0.0000  plane waves:    3330
 k-point 13 :   0.4000 0.3125 0.0000  plane waves:    3327
 k-point 14 :  -0.4000 0.3125 0.0000  plane waves:    3327
 k-point 15 :  -0.2000 0.3125 0.0000  plane waves:    3330
 k-point 16 :   0.0000 0.4375 0.0000  plane waves:    3354
 k-point 17 :   0.2000 0.4375 0.0000  plane waves:    3340
 k-point 18 :   0.4000 0.4375 0.0000  plane waves:    3328
 k-point 19 :  -0.4000 0.4375 0.0000  plane waves:    3328
 k-point 20 :  -0.2000 0.4375 0.0000  plane waves:    3340

 maximum and minimum number of plane-waves per node :       849      807

 maximum number of plane-waves:      3354
 maximum index in each direction: 
   IXMAX=    8   IYMAX=    4   IZMAX=   24
   IXMIN=   -8   IYMIN=   -4   IZMIN=  -24


 parallel 3D FFT for wavefunctions:
    minimum data exchange during FFTs selected (reduces bandwidth)
 parallel 3D FFT for charge:
    minimum data exchange during FFTs selected (reduces bandwidth)


 total amount of memory used by VASP MPI-rank0    44065. kBytes
=======================================================================

   base      :      30000. kBytes
   nonl-proj :       4895. kBytes
   fftplans  :       2331. kBytes
   grid      :       3753. kBytes
   one-center:         31. kBytes
   wavefun   :       3055. kBytes
 
     INWAV:  cpu time    0.0603: real time    0.0912
 Broyden mixing: mesh for mixing (old mesh)
   NGX = 15   NGY =  9   NGZ = 49
  (NGX  = 64   NGY  = 36   NGZ  =196)
  gives a total of   6615 points

 charge density for first step will be calculated from the start-wavefunctions


--------------------------------------------------------------------------------------------------------


 Maximum index for augmentation-charges         1029 (set IRDMAX)


--------------------------------------------------------------------------------------------------------


 initial charge from wavefunction
 First call to EWALD:  gamma=   0.234
 Maximum number of real-space cells 3x 6x 1
 Maximum number of reciprocal cells 2x 2x 6

    FEWALD:  cpu time    0.0023: real time    0.0023


--------------------------------------- Iteration      1(   1)  ---------------------------------------


    POTLOK:  cpu time    0.1042: real time    1.1888
    SETDIJ:  cpu time    0.0102: real time    0.0230
     EDDAV:  cpu time    0.2424: real time    0.2471
       DOS:  cpu time    0.0011: real time    0.0014
    CHARGE:  cpu time    0.0256: real time    0.0257
    MIXING:  cpu time    0.0062: real time    0.0063
    --------------------------------------------
      LOOP:  cpu time    0.3897: real time    1.4923

 eigenvalue-minimisations  :   880
 total energy-change (2. order) :-0.3435947E+02  (-0.2856356E+00)
 number of electron      36.0000000 magnetization 
 augmentation part       -2.4395140 magnetization 

 Broyden mixing:
  rms(total) = 0.97288E-01    rms(broyden)= 0.97219E-01
  rms(prec ) = 0.14404E+00
  weight for this iteration     100.00

 Free energy of the ion-electron system (eV)
  ---------------------------------------------------
  alpha Z        PSCENC =        20.39049130
  Ewald energy   TEWEN  =      3198.74681811
  -Hartree energ DENC   =     -4465.16264800
  -exchange      EXHF   =         0.00000000
  -V(xc)+E(xc)   XCENC  =      -232.83903933
  PAW double counting   =       918.39315835     -624.49422013
  entropy T*S    EENTRO =        -0.01533251
  eigenvalues    EBANDS =      -177.42613644
  atomic energy  EATOM  =      1328.04743990
  Solvation  Ediel_sol  =         0.00000000
  ---------------------------------------------------
  free energy    TOTEN  =       -34.35946875 eV

  energy without entropy =      -34.34413624  energy(sigma->0) =      -34.35435791


--------------------------------------------------------------------------------------------------------




--------------------------------------- Iteration      1(   2)  ---------------------------------------


    POTLOK:  cpu time    0.0169: real time    0.0170
    SETDIJ:  cpu time    0.0016: real time    0.0016
     EDDAV:  cpu time    0.2926: real time    0.2933
       DOS:  cpu time    0.0011: real time    0.0011
    CHARGE:  cpu time    0.0234: real time    0.0235
    MIXING:  cpu time    0.0008: real time    0.0008
    --------------------------------------------
      LOOP:  cpu time    0.3364: real time    0.3372

 eigenvalue-minimisations  :  1224
 total energy-change (2. order) : 0.6619647E-01  (-0.7060296E-01)
 number of electron      36.0000000 magnetization 
 augmentation part       -2.3313281 magnetization 

 Broyden mixing:
  rms(total) = 0.98476E-01    rms(broyden)= 0.98422E-01
  rms(prec ) = 0.12780E+00
  weight for this iteration     100.00

 eigenvalues of (default mixing * dielectric matrix)
  average eigenvalue GAMMA=   0.4719
  0.4719

 Free energy of the ion-electron system (eV)
  ---------------------------------------------------
  alpha Z        PSCENC =        20.39049130
  Ewald energy   TEWEN  =      3198.74681811
  -Hartree energ DENC   =     -4462.03708802
  -exchange      EXHF   =         0.00000000
  -V(xc)+E(xc)   XCENC  =      -232.80247015
  PAW double counting   =       915.66137912     -621.75754953
  entropy T*S    EENTRO =        -0.01095607
  eigenvalues    EBANDS =      -180.53133695
  atomic energy  EATOM  =      1328.04743990
  Solvation  Ediel_sol  =         0.00000000
  ---------------------------------------------------
  free energy    TOTEN  =       -34.29327228 eV

  energy without entropy =      -34.28231621  energy(sigma->0) =      -34.28962026


--------------------------------------------------------------------------------------------------------




--------------------------------------- Iteration      1(   3)  ---------------------------------------


    POTLOK:  cpu time    0.0155: real time    0.0155
    SETDIJ:  cpu time    0.0016: real time    0.0016
     EDDAV:  cpu time    0.3048: real time    0.3056
       DOS:  cpu time    0.0011: real time    0.0011
    CHARGE:  cpu time    0.0235: real time    0.0235
    MIXING:  cpu time    0.0008: real time    0.0009
    --------------------------------------------
      LOOP:  cpu time    0.3472: real time    0.3481

 eigenvalue-minimisations  :  1288
 total energy-change (2. order) : 0.1620066E-01  (-0.3807920E-01)
 number of electron      36.0000000 magnetization 
 augmentation part       -2.3916008 magnetization 

 Broyden mixing:
  rms(total) = 0.84933E-01    rms(broyden)= 0.84826E-01
  rms(prec ) = 0.11051E+00
  weight for this iteration     100.00

 eigenvalues of (default mixing * dielectric matrix)
  average eigenvalue GAMMA=   0.6373
  0.9695  0.3052

 Free energy of the ion-electron system (eV)
  ---------------------------------------------------
  alpha Z        PSCENC =        20.39049130
  Ewald energy   TEWEN  =      3198.74681811
  -Hartree energ DENC   =     -4462.85967250
  -exchange      EXHF   =         0.00000000
  -V(xc)+E(xc)   XCENC  =      -232.83458020
  PAW double counting   =       917.49216970     -623.58237803
  entropy T*S    EENTRO =        -0.01779545
  eigenvalues    EBANDS =      -179.65956446
  atomic energy  EATOM  =      1328.04743990
  Solvation  Ediel_sol  =         0.00000000
  ---------------------------------------------------
  free energy    TOTEN  =       -34.27707162 eV

  energy without entropy =      -34.25927618  energy(sigma->0) =      -34.27113981


--------------------------------------------------------------------------------------------------------




--------------------------------------- Iteration      1(   4)  ---------------------------------------


    POTLOK:  cpu time    0.0155: real time    0.0156
    SETDIJ:  cpu time    0.0016: real time    0.0016
     EDDAV:  cpu time    0.3156: real time    0.3163
       DOS:  cpu time    0.0011: real time    0.0011
    CHARGE:  cpu time    0.0251: real time    0.0252
    MIXING:  cpu time    0.0009: real time    0.0009
    --------------------------------------------
      LOOP:  cpu time    0.3596: real time    0.3606

 eigenvalue-minimisations  :  1268
 total energy-change (2. order) : 0.1470579E-01  (-0.1749451E-01)
 number of electron      36.0000000 magnetization 
 augmentation part       -2.4198676 magnetization 

 Broyden mixing:
  rms(total) = 0.40110E-01    rms(broyden)= 0.39988E-01
  rms(prec ) = 0.52860E-01
  weight for this iteration     100.00

 eigenvalues of (default mixing * dielectric matrix)
  average eigenvalue GAMMA=   0.7966
  1.6100  0.5194  0.2605

 Free energy of the ion-electron system (eV)
  ---------------------------------------------------
  alpha Z        PSCENC =        20.39049130
  Ewald energy   TEWEN  =      3198.74681811
  -Hartree energ DENC   =     -4462.81349442
  -exchange      EXHF   =         0.00000000
  -V(xc)+E(xc)   XCENC  =      -232.84699352
  PAW double counting   =       918.05589711     -624.14322986
  entropy T*S    EENTRO =        -0.01408165
  eigenvalues    EBANDS =      -179.68521281
  atomic energy  EATOM  =      1328.04743990
  Solvation  Ediel_sol  =         0.00000000
  ---------------------------------------------------
  free energy    TOTEN  =       -34.26236584 eV

  energy without entropy =      -34.24828419  energy(sigma->0) =      -34.25767195


--------------------------------------------------------------------------------------------------------




--------------------------------------- Iteration      1(   5)  ---------------------------------------


    POTLOK:  cpu time    0.0162: real time    0.0163
    SETDIJ:  cpu time    0.0016: real time    0.0016
     EDDAV:  cpu time    0.2903: real time    0.2910
       DOS:  cpu time    0.0011: real time    0.0011
    CHARGE:  cpu time    0.0234: real time    0.0235
    MIXING:  cpu time    0.0008: real time    0.0009
    --------------------------------------------
      LOOP:  cpu time    0.3336: real time    0.3344

 eigenvalue-minimisations  :  1208
 total energy-change (2. order) : 0.5480090E-02  (-0.3948128E-02)
 number of electron      36.0000000 magnetization 
 augmentation part       -2.3892232 magnetization 

 Broyden mixing:
  rms(total) = 0.92619E-02    rms(broyden)= 0.92086E-02
  rms(prec ) = 0.11399E-01
  weight for this iteration     100.00

 eigenvalues of (default mixing * dielectric matrix)
  average eigenvalue GAMMA=   0.8609
  1.5835  1.1175  0.4836  0.2589

 Free energy of the ion-electron system (eV)
  ---------------------------------------------------
  alpha Z        PSCENC =        20.39049130
  Ewald energy   TEWEN  =      3198.74681811
  -Hartree energ DENC   =     -4462.00874811
  -exchange      EXHF   =         0.00000000
  -V(xc)+E(xc)   XCENC  =      -232.84008670
  PAW double counting   =       917.44850632     -623.53941241
  entropy T*S    EENTRO =        -0.01560626
  eigenvalues    EBANDS =      -180.48628789
  atomic energy  EATOM  =      1328.04743990
  Solvation  Ediel_sol  =         0.00000000
  ---------------------------------------------------
  free energy    TOTEN  =       -34.25688575 eV

  energy without entropy =      -34.24127948  energy(sigma->0) =      -34.25168366


--------------------------------------------------------------------------------------------------------




--------------------------------------- Iteration      1(   6)  ---------------------------------------


    POTLOK:  cpu time    0.0155: real time    0.0155
    SETDIJ:  cpu time    0.0016: real time    0.0016
     EDDAV:  cpu time    0.2783: real time    0.2793
       DOS:  cpu time    0.0011: real time    0.0011
    CHARGE:  cpu time    0.0234: real time    0.0235
    MIXING:  cpu time    0.0009: real time    0.0009
    --------------------------------------------
      LOOP:  cpu time    0.3208: real time    0.3219

 eigenvalue-minimisations  :  1150
 total energy-change (2. order) :-0.3451991E-04  (-0.3294875E-03)
 number of electron      36.0000000 magnetization 
 augmentation part       -2.3939874 magnetization 

 Broyden mixing:
  rms(total) = 0.40300E-02    rms(broyden)= 0.40274E-02
  rms(prec ) = 0.48784E-02
  weight for this iteration     100.00

 eigenvalues of (default mixing * dielectric matrix)
  average eigenvalue GAMMA=   0.9491
  1.5701  1.5701  0.8550  0.4909  0.2591

 Free energy of the ion-electron system (eV)
  ---------------------------------------------------
  alpha Z        PSCENC =        20.39049130
  Ewald energy   TEWEN  =      3198.74681811
  -Hartree energ DENC   =     -4462.02627885
  -exchange      EXHF   =         0.00000000
  -V(xc)+E(xc)   XCENC  =      -232.84725361
  PAW double counting   =       917.77857014     -623.87128034
  entropy T*S    EENTRO =        -0.01563388
  eigenvalues    EBANDS =      -180.45979304
  atomic energy  EATOM  =      1328.04743990
  Solvation  Ediel_sol  =         0.00000000
  ---------------------------------------------------
  free energy    TOTEN  =       -34.25692026 eV

  energy without entropy =      -34.24128639  energy(sigma->0) =      -34.25170897


--------------------------------------------------------------------------------------------------------




--------------------------------------- Iteration      1(   7)  ---------------------------------------


    POTLOK:  cpu time    0.0155: real time    0.0156
    SETDIJ:  cpu time    0.0016: real time    0.0016
     EDDAV:  cpu time    0.2498: real time    0.2504
       DOS:  cpu time    0.0011: real time    0.0011
    CHARGE:  cpu time    0.0235: real time    0.0235
    MIXING:  cpu time    0.0009: real time    0.0009
    --------------------------------------------
      LOOP:  cpu time    0.2924: real time    0.2931

 eigenvalue-minimisations  :   986
 total energy-change (2. order) :-0.1271037E-03  (-0.4168372E-04)
 number of electron      36.0000000 magnetization 
 augmentation part       -2.3964893 magnetization 

 Broyden mixing:
  rms(total) = 0.19875E-02    rms(broyden)= 0.19866E-02
  rms(prec ) = 0.28098E-02
  weight for this iteration     100.00

 eigenvalues of (default mixing * dielectric matrix)
  average eigenvalue GAMMA=   1.0616
  2.1612  1.4799  1.1459  0.2591  0.4939  0.8297

 Free energy of the ion-electron system (eV)
  ---------------------------------------------------
  alpha Z        PSCENC =        20.39049130
  Ewald energy   TEWEN  =      3198.74681811
  -Hartree energ DENC   =     -4461.93440128
  -exchange      EXHF   =         0.00000000
  -V(xc)+E(xc)   XCENC  =      -232.85109853
  PAW double counting   =       917.90048713     -623.99456637
  entropy T*S    EENTRO =        -0.01558984
  eigenvalues    EBANDS =      -180.54662778
  atomic energy  EATOM  =      1328.04743990
  Solvation  Ediel_sol  =         0.00000000
  ---------------------------------------------------
  free energy    TOTEN  =       -34.25704737 eV

  energy without entropy =      -34.24145753  energy(sigma->0) =      -34.25185076


--------------------------------------------------------------------------------------------------------




--------------------------------------- Iteration      1(   8)  ---------------------------------------


    POTLOK:  cpu time    0.0155: real time    0.0156
    SETDIJ:  cpu time    0.0017: real time    0.0018
     EDDAV:  cpu time    0.1835: real time    0.1839
       DOS:  cpu time    0.0011: real time    0.0011
    CHARGE:  cpu time    0.0234: real time    0.0235
    MIXING:  cpu time    0.0010: real time    0.0010
    --------------------------------------------
      LOOP:  cpu time    0.2262: real time    0.2267

 eigenvalue-minimisations  :   608
 total energy-change (2. order) :-0.1159364E-03  (-0.7392560E-05)
 number of electron      36.0000000 magnetization 
 augmentation part       -2.3958606 magnetization 

 Broyden mixing:
  rms(total) = 0.82979E-03    rms(broyden)= 0.82952E-03
  rms(prec ) = 0.14183E-02
  weight for this iteration     100.00

 eigenvalues of (default mixing * dielectric matrix)
  average eigenvalue GAMMA=   1.1745
  2.6167  1.6935  0.2591  0.4931  1.2834  0.9379  0.9379

 Free energy of the ion-electron system (eV)
  ---------------------------------------------------
  alpha Z        PSCENC =        20.39049130
  Ewald energy   TEWEN  =      3198.74681811
  -Hartree energ DENC   =     -4461.81368052
  -exchange      EXHF   =         0.00000000
  -V(xc)+E(xc)   XCENC  =      -232.85320308
  PAW double counting   =       917.93511696     -624.03056421
  entropy T*S    EENTRO =        -0.01557942
  eigenvalues    EBANDS =      -180.66400235
  atomic energy  EATOM  =      1328.04743990
  Solvation  Ediel_sol  =         0.00000000
  ---------------------------------------------------
  free energy    TOTEN  =       -34.25716330 eV

  energy without entropy =      -34.24158388  energy(sigma->0) =      -34.25197016


--------------------------------------------------------------------------------------------------------




--------------------------------------- Iteration      1(   9)  ---------------------------------------


    POTLOK:  cpu time    0.0155: real time    0.0155
    SETDIJ:  cpu time    0.0016: real time    0.0016
     EDDAV:  cpu time    0.1725: real time    0.1729
       DOS:  cpu time    0.0011: real time    0.0011
    CHARGE:  cpu time    0.0235: real time    0.0236
    MIXING:  cpu time    0.0010: real time    0.0010
    --------------------------------------------
      LOOP:  cpu time    0.2152: real time    0.2157

 eigenvalue-minimisations  :   542
 total energy-change (2. order) :-0.1269881E-03  (-0.3563864E-05)
 number of electron      36.0000000 magnetization 
 augmentation part       -2.3955367 magnetization 

 Broyden mixing:
  rms(total) = 0.49454E-03    rms(broyden)= 0.49435E-03
  rms(prec ) = 0.87319E-03
  weight for this iteration     100.00

 eigenvalues of (default mixing * dielectric matrix)
  average eigenvalue GAMMA=   1.3250
  3.1370  2.2154  0.2591  0.4929  1.3041  1.3041  1.0046  0.8824

 Free energy of the ion-electron system (eV)
  ---------------------------------------------------
  alpha Z        PSCENC =        20.39049130
  Ewald energy   TEWEN  =      3198.74681811
  -Hartree energ DENC   =     -4461.71783997
  -exchange      EXHF   =         0.00000000
  -V(xc)+E(xc)   XCENC  =      -232.85515368
  PAW double counting   =       917.96836625     -624.06481691
  entropy T*S    EENTRO =        -0.01558091
  eigenvalues    EBANDS =      -180.75701438
  atomic energy  EATOM  =      1328.04743990
  Solvation  Ediel_sol  =         0.00000000
  ---------------------------------------------------
  free energy    TOTEN  =       -34.25729029 eV

  energy without entropy =      -34.24170938  energy(sigma->0) =      -34.25209666


--------------------------------------------------------------------------------------------------------




--------------------------------------- Iteration      1(  10)  ---------------------------------------


    POTLOK:  cpu time    0.0155: real time    0.0155
    SETDIJ:  cpu time    0.0017: real time    0.0017
     EDDAV:  cpu time    0.1751: real time    0.1755
       DOS:  cpu time    0.0011: real time    0.0011
    CHARGE:  cpu time    0.0235: real time    0.0236
    MIXING:  cpu time    0.0011: real time    0.0011
    --------------------------------------------
      LOOP:  cpu time    0.2180: real time    0.2185

 eigenvalue-minimisations  :   560
 total energy-change (2. order) :-0.1321846E-03  (-0.2599637E-05)
 number of electron      36.0000000 magnetization 
 augmentation part       -2.3958489 magnetization 

 Broyden mixing:
  rms(total) = 0.24926E-03    rms(broyden)= 0.24911E-03
  rms(prec ) = 0.47411E-03
  weight for this iteration     100.00

 eigenvalues of (default mixing * dielectric matrix)
  average eigenvalue GAMMA=   1.4383
  3.6499  2.4985  1.5599  1.5599  0.2591  0.4929  1.0305  1.0305  0.8638

 Free energy of the ion-electron system (eV)
  ---------------------------------------------------
  alpha Z        PSCENC =        20.39049130
  Ewald energy   TEWEN  =      3198.74681811
  -Hartree energ DENC   =     -4461.64860684
  -exchange      EXHF   =         0.00000000
  -V(xc)+E(xc)   XCENC  =      -232.85694298
  PAW double counting   =       918.00477556     -624.10152999
  entropy T*S    EENTRO =        -0.01559026
  eigenvalues    EBANDS =      -180.82427728
  atomic energy  EATOM  =      1328.04743990
  Solvation  Ediel_sol  =         0.00000000
  ---------------------------------------------------
  free energy    TOTEN  =       -34.25742248 eV

  energy without entropy =      -34.24183221  energy(sigma->0) =      -34.25222572


--------------------------------------------------------------------------------------------------------




--------------------------------------- Iteration      1(  11)  ---------------------------------------


    POTLOK:  cpu time    0.0155: real time    0.0156
    SETDIJ:  cpu time    0.0016: real time    0.0016
     EDDAV:  cpu time    0.1711: real time    0.1715
       DOS:  cpu time    0.0011: real time    0.0011
    --------------------------------------------
      LOOP:  cpu time    0.1893: real time    0.1898

 eigenvalue-minimisations  :   506
 total energy-change (2. order) :-0.6634274E-04  (-0.1471499E-05)
 number of electron      36.0000000 magnetization 
 augmentation part       -2.3958489 magnetization 

 Free energy of the ion-electron system (eV)
  ---------------------------------------------------
  alpha Z        PSCENC =        20.39049130
  Ewald energy   TEWEN  =      3198.74681811
  -Hartree energ DENC   =     -4461.61511951
  -exchange      EXHF   =         0.00000000
  -V(xc)+E(xc)   XCENC  =      -232.85749064
  PAW double counting   =       918.00966702     -624.10638375
  entropy T*S    EENTRO =        -0.01558971
  eigenvalues    EBANDS =      -180.85732153
  atomic energy  EATOM  =      1328.04743990
  Solvation  Ediel_sol  =         0.00000000
  ---------------------------------------------------
  free energy    TOTEN  =       -34.25748882 eV

  energy without entropy =      -34.24189911  energy(sigma->0) =      -34.25229225


--------------------------------------------------------------------------------------------------------




 average (electrostatic) potential at core
  the test charge radii are     1.2296  1.1897
  (the norm of the test charge is              1.0000)
       1 -43.8357       2 -44.0090       3 -94.8945       4 -95.0168       5 -95.2102
       6 -95.2603
 
 
 
 E-fermi :  -0.4591     XC(G=0):  -4.2590     alpha+bet : -4.3244


 k-point     1 :       0.0000    0.0625    0.0000
  band No.  band energies     occupation 
      1     -13.3467      2.00000
      2     -12.5565      2.00000
      3     -11.6635      2.00000
      4     -11.2500      2.00000
      5      -6.2033      2.00000
      6      -5.4229      2.00000
      7      -5.2999      2.00000
      8      -4.1680      2.00000
      9      -3.9025      2.00000
     10      -2.7452      2.00000
     11      -2.4282      2.00000
     12      -2.1638      2.00000
     13      -2.0574      2.00000
     14      -1.6202      2.00000
     15      -1.3550      2.00000
     16      -1.1410      2.00002
     17      -0.5164      1.46408
     18      -0.1093     -0.03293
     19       0.1609     -0.00011
     20       1.0349     -0.00000
     21       1.2134     -0.00000
     22       1.5148     -0.00000

 k-point     2 :       0.2000    0.0625    0.0000
  band No.  band energies     occupation 
      1     -13.2291      2.00000
      2     -12.4805      2.00000
      3     -11.8899      2.00000
      4     -11.3860      2.00000
      5      -5.9772      2.00000
      6      -5.1020      2.00000
      7      -5.0386      2.00000
      8      -4.1789      2.00000
      9      -4.0098      2.00000
     10      -2.9100      2.00000
     11      -2.4436      2.00000
     12      -2.1295      2.00000
     13      -2.0082      2.00000
     14      -1.8710      2.00000
     15      -1.3428      2.00000
     16      -1.2295      2.00000
     17      -0.6008      1.92577
     18      -0.3058      0.03804
     19       0.0796     -0.00093
     20       0.7047     -0.00000
     21       1.1230     -0.00000
     22       1.4208     -0.00000

 k-point     3 :       0.4000    0.0625    0.0000
  band No.  band energies     occupation 
      1     -12.9026      2.00000
      2     -12.3736      2.00000
      3     -12.2972      2.00000
      4     -11.6623      2.00000
      5      -5.4578      2.00000
      6      -4.7552      2.00000
      7      -4.6864      2.00000
      8      -4.2799      2.00000
      9      -3.6435      2.00000
     10      -3.0680      2.00000
     11      -2.7044      2.00000
     12      -2.3224      2.00000
     13      -2.0238      2.00000
     14      -1.8965      2.00000
     15      -1.6212      2.00000
     16      -1.4348      2.00000
     17      -0.8547      2.01716
     18      -0.7388      2.06363
     19       0.0237     -0.00338
     20       0.5048     -0.00000
     21       1.0242     -0.00000
     22       1.3932     -0.00000

 k-point     4 :      -0.4000    0.0625    0.0000
  band No.  band energies     occupation 
      1     -12.9049      2.00000
      2     -12.3673      2.00000
      3     -12.2963      2.00000
      4     -11.6670      2.00000
      5      -5.4482      2.00000
      6      -4.7749      2.00000
      7      -4.6595      2.00000
      8      -4.2969      2.00000
      9      -3.6556      2.00000
     10      -3.1262      2.00000
     11      -2.7033      2.00000
     12      -2.2042      2.00000
     13      -2.0142      2.00000
     14      -1.8807      2.00000
     15      -1.6760      2.00000
     16      -1.4153      2.00000
     17      -0.9259      2.00470
     18      -0.7759      2.04761
     19       0.1193     -0.00034
     20       0.5015     -0.00000
     21       0.9559     -0.00000
     22       1.4594     -0.00000

 k-point     5 :      -0.2000    0.0625    0.0000
  band No.  band energies     occupation 
      1     -13.2299      2.00000
      2     -12.4784      2.00000
      3     -11.8838      2.00000
      4     -11.3929      2.00000
      5      -5.9747      2.00000
      6      -5.1095      2.00000
      7      -5.0376      2.00000
      8      -4.1716      2.00000
      9      -3.9965      2.00000
     10      -2.9578      2.00000
     11      -2.4160      2.00000
     12      -2.1849      2.00000
     13      -2.0411      2.00000
     14      -1.7897      2.00000
     15      -1.3999      2.00000
     16      -1.1944      2.00000
     17      -0.6016      1.92845
     18      -0.3737      0.34509
     19       0.2215     -0.00002
     20       0.7378     -0.00000
     21       1.0551     -0.00000
     22       1.4453     -0.00000

 k-point     6 :       0.0000    0.1875    0.0000
  band No.  band energies     occupation 
      1     -13.0408      2.00000
      2     -12.2962      2.00000
      3     -11.4395      2.00000
      4     -10.9926      2.00000
      5      -5.9155      2.00000
      6      -5.1717      2.00000
      7      -4.9864      2.00000
      8      -4.1031      2.00000
      9      -3.8346      2.00000
     10      -3.2615      2.00000
     11      -2.9942      2.00000
     12      -2.7244      2.00000
     13      -2.1069      2.00000
     14      -1.8671      2.00000
     15      -1.4598      2.00000
     16      -1.3877      2.00000
     17      -1.1538      2.00001
     18      -0.6516      2.04162
     19      -0.3449      0.18705
     20       0.3804     -0.00000
     21       0.7776     -0.00000
     22       1.4222     -0.00000

 k-point     7 :       0.2000    0.1875    0.0000
  band No.  band energies     occupation 
      1     -12.9268      2.00000
      2     -12.2257      2.00000
      3     -11.6496      2.00000
      4     -11.1283      2.00000
      5      -5.6554      2.00000
      6      -4.9369      2.00000
      7      -4.7412      2.00000
      8      -4.0410      2.00000
      9      -3.9771      2.00000
     10      -3.2898      2.00000
     11      -3.0449      2.00000
     12      -2.7042      2.00000
     13      -2.1253      2.00000
     14      -1.9552      2.00000
     15      -1.6728      2.00000
     16      -1.3184      2.00000
     17      -1.2216      2.00000
     18      -0.8130      2.03127
     19      -0.4791      1.16819
     20       0.3940     -0.00000
     21       0.7728     -0.00000
     22       1.2099     -0.00000

 k-point     8 :       0.4000    0.1875    0.0000
  band No.  band energies     occupation 
      1     -12.6140      2.00000
      2     -12.1107      2.00000
      3     -12.0415      2.00000
      4     -11.4024      2.00000
      5      -5.1537      2.00000
      6      -4.5891      2.00000
      7      -4.4813      2.00000
      8      -4.0619      2.00000
      9      -3.6636      2.00000
     10      -3.2970      2.00000
     11      -3.1382      2.00000
     12      -2.7890      2.00000
     13      -2.3573      2.00000
     14      -2.1630      2.00000
     15      -1.8927      2.00000
     16      -1.6407      2.00000
     17      -1.2664      2.00000
     18      -1.0716      2.00013
     19      -0.5072      1.39460
     20       0.3271     -0.00000
     21       0.8094     -0.00000
     22       1.0993     -0.00000

 k-point     9 :      -0.4000    0.1875    0.0000
  band No.  band energies     occupation 
      1     -12.6207      2.00000
      2     -12.0952      2.00000
      3     -12.0359      2.00000
      4     -11.4161      2.00000
      5      -5.1201      2.00000
      6      -4.6110      2.00000
      7      -4.4411      2.00000
      8      -4.1337      2.00000
      9      -3.7347      2.00000
     10      -3.3764      2.00000
     11      -3.0499      2.00000
     12      -2.7042      2.00000
     13      -2.3450      2.00000
     14      -2.1615      2.00000
     15      -1.7866      2.00000
     16      -1.6552      2.00000
     17      -1.4312      2.00000
     18      -1.0626      2.00017
     19      -0.4959      1.30589
     20       0.3051     -0.00000
     21       0.7895     -0.00000
     22       1.1509     -0.00000

 k-point    10 :      -0.2000    0.1875    0.0000
  band No.  band energies     occupation 
      1     -12.9293      2.00000
      2     -12.2194      2.00000
      3     -11.6331      2.00000
      4     -11.1472      2.00000
      5      -5.6572      2.00000
      6      -4.9455      2.00000
      7      -4.7336      2.00000
      8      -4.0673      2.00000
      9      -3.9262      2.00000
     10      -3.2814      2.00000
     11      -3.1203      2.00000
     12      -2.6637      2.00000
     13      -2.1820      2.00000
     14      -1.9448      2.00000
     15      -1.6972      2.00000
     16      -1.4273      2.00000
     17      -1.1838      2.00000
     18      -0.7563      2.05652
     19      -0.4022      0.53934
     20       0.2792     -0.00000
     21       0.9259     -0.00000
     22       1.2703     -0.00000

 k-point    11 :       0.0000    0.3125    0.0000
  band No.  band energies     occupation 
      1     -12.5137      2.00000
      2     -11.8389      2.00000
      3     -11.1132      2.00000
      4     -10.5612      2.00000
      5      -5.5798      2.00000
      6      -4.8969      2.00000
      7      -4.8120      2.00000
      8      -4.4219      2.00000
      9      -4.2616      2.00000
     10      -3.8351      2.00000
     11      -3.6309      2.00000
     12      -3.2859      2.00000
     13      -2.8741      2.00000
     14      -2.2980      2.00000
     15      -2.0818      2.00000
     16      -1.6358      2.00000
     17      -1.2490      2.00000
     18      -0.5438      1.65052
     19      -0.3368      0.14981
     20       0.3373     -0.00000
     21       0.5682     -0.00000
     22       1.2232     -0.00000

 k-point    12 :       0.2000    0.3125    0.0000
  band No.  band energies     occupation 
      1     -12.4081      2.00000
      2     -11.7810      2.00000
      3     -11.2698      2.00000
      4     -10.7079      2.00000
      5      -5.2937      2.00000
      6      -4.9396      2.00000
      7      -4.6848      2.00000
      8      -4.3930      2.00000
      9      -4.2178      2.00000
     10      -3.7764      2.00000
     11      -3.5773      2.00000
     12      -3.4263      2.00000
     13      -2.9514      2.00000
     14      -2.2505      2.00000
     15      -1.8739      2.00000
     16      -1.6272      2.00000
     17      -1.3914      2.00000
     18      -0.7543      2.05741
     19      -0.3881      0.43935
     20       0.4280     -0.00000
     21       0.6070     -0.00000
     22       1.0233     -0.00000

 k-point    13 :       0.4000    0.3125    0.0000
  band No.  band energies     occupation 
      1     -12.1279      2.00000
      2     -11.6702      2.00000
      3     -11.6008      2.00000
      4     -10.9729      2.00000
      5      -5.0677      2.00000
      6      -4.8638      2.00000
      7      -4.5049      2.00000
      8      -4.2630      2.00000
      9      -4.0389      2.00000
     10      -3.8927      2.00000
     11      -3.5147      2.00000
     12      -3.2011      2.00000
     13      -2.8901      2.00000
     14      -2.3389      2.00000
     15      -2.1046      2.00000
     16      -1.6757      2.00000
     17      -1.3844      2.00000
     18      -1.1627      2.00001
     19      -0.5402      1.62779
     20       0.4948     -0.00000
     21       0.7496     -0.00000
     22       0.9727     -0.00000

 k-point    14 :      -0.4000    0.3125    0.0000
  band No.  band energies     occupation 
      1     -12.1366      2.00000
      2     -11.6614      2.00000
      3     -11.5808      2.00000
      4     -10.9924      2.00000
      5      -5.0586      2.00000
      6      -4.8614      2.00000
      7      -4.4983      2.00000
      8      -4.2958      2.00000
      9      -4.1188      2.00000
     10      -3.8491      2.00000
     11      -3.5108      2.00000
     12      -3.0947      2.00000
     13      -2.9318      2.00000
     14      -2.3147      2.00000
     15      -2.1134      2.00000
     16      -1.7192      2.00000
     17      -1.4438      2.00000
     18      -1.1319      2.00002
     19      -0.5919      1.89343
     20       0.4146     -0.00000
     21       0.9035     -0.00000
     22       1.0761     -0.00000

 k-point    15 :      -0.2000    0.3125    0.0000
  band No.  band energies     occupation 
      1     -12.4119      2.00000
      2     -11.7716      2.00000
      3     -11.2518      2.00000
      4     -10.7297      2.00000
      5      -5.3537      2.00000
      6      -4.9264      2.00000
      7      -4.6765      2.00000
      8      -4.3766      2.00000
      9      -4.1902      2.00000
     10      -3.7385      2.00000
     11      -3.6458      2.00000
     12      -3.3510      2.00000
     13      -2.8581      2.00000
     14      -2.3216      2.00000
     15      -2.1370      2.00000
     16      -1.6822      2.00000
     17      -1.2768      2.00000
     18      -0.6893      2.06908
     19      -0.4600      1.00753
     20       0.3007     -0.00000
     21       0.8253     -0.00000
     22       1.3334     -0.00000

 k-point    16 :       0.0000    0.4375    0.0000
  band No.  band energies     occupation 
      1     -12.0269      2.00000
      2     -11.3443      2.00000
      3     -10.9730      2.00000
      4     -10.1788      2.00000
      5      -5.8360      2.00000
      6      -5.5897      2.00000
      7      -4.8722      2.00000
      8      -4.7126      2.00000
      9      -4.4113      2.00000
     10      -4.0226      2.00000
     11      -3.7071      2.00000
     12      -3.3852      2.00000
     13      -3.2426      2.00000
     14      -2.6392      2.00000
     15      -2.3898      2.00000
     16      -1.6364      2.00000
     17      -1.3147      2.00000
     18      -0.2269     -0.06955
     19       0.0615     -0.00144
     20       0.4287     -0.00000
     21       0.8574     -0.00000
     22       1.1591     -0.00000

 k-point    17 :       0.2000    0.4375    0.0000
  band No.  band energies     occupation 
      1     -11.9324      2.00000
      2     -11.3187      2.00000
      3     -11.0304      2.00000
      4     -10.3470      2.00000
      5      -5.8208      2.00000
      6      -5.5344      2.00000
      7      -5.0505      2.00000
      8      -4.5973      2.00000
      9      -4.4921      2.00000
     10      -3.9039      2.00000
     11      -3.7274      2.00000
     12      -3.3477      2.00000
     13      -2.9995      2.00000
     14      -2.5290      2.00000
     15      -2.0948      2.00000
     16      -1.6882      2.00000
     17      -1.3923      2.00000
     18      -0.5093      1.41076
     19       0.1012     -0.00054
     20       0.5354     -0.00000
     21       0.7592     -0.00000
     22       1.1042     -0.00000

 k-point    18 :       0.4000    0.4375    0.0000
  band No.  band energies     occupation 
      1     -11.6970      2.00000
      2     -11.2679      2.00000
      3     -11.2081      2.00000
      4     -10.6051      2.00000
      5      -5.7993      2.00000
      6      -5.6592      2.00000
      7      -5.1718      2.00000
      8      -4.7419      2.00000
      9      -4.2025      2.00000
     10      -3.6715      2.00000
     11      -3.5395      2.00000
     12      -3.1406      2.00000
     13      -2.7973      2.00000
     14      -2.3729      2.00000
     15      -2.0391      2.00000
     16      -1.6177      2.00000
     17      -1.3419      2.00000
     18      -1.0913      2.00007
     19      -0.1031     -0.03045
     20       0.5626     -0.00000
     21       0.8381     -0.00000
     22       1.1888     -0.00000

 k-point    19 :      -0.4000    0.4375    0.0000
  band No.  band energies     occupation 
      1     -11.7012      2.00000
      2     -11.2729      2.00000
      3     -11.1875      2.00000
      4     -10.6162      2.00000
      5      -5.8007      2.00000
      6      -5.6851      2.00000
      7      -5.1188      2.00000
      8      -4.7795      2.00000
      9      -4.1913      2.00000
     10      -3.6971      2.00000
     11      -3.4617      2.00000
     12      -3.2210      2.00000
     13      -2.7152      2.00000
     14      -2.4065      2.00000
     15      -2.0722      2.00000
     16      -1.6383      2.00000
     17      -1.3663      2.00000
     18      -1.0583      2.00019
     19      -0.1597     -0.05558
     20       0.5880     -0.00000
     21       0.9614     -0.00000
     22       1.1401     -0.00000

 k-point    20 :      -0.2000    0.4375    0.0000
  band No.  band energies     occupation 
      1     -11.9346      2.00000
      2     -11.3122      2.00000
      3     -11.0249      2.00000
      4     -10.3553      2.00000
      5      -5.8393      2.00000
      6      -5.5744      2.00000
      7      -4.9811      2.00000
      8      -4.6620      2.00000
      9      -4.4515      2.00000
     10      -3.7952      2.00000
     11      -3.6724      2.00000
     12      -3.4764      2.00000
     13      -3.0031      2.00000
     14      -2.4909      2.00000
     15      -2.2389      2.00000
     16      -1.7179      2.00000
     17      -1.3187      2.00000
     18      -0.5001      1.33899
     19      -0.0261     -0.00906
     20       0.5962     -0.00000
     21       0.8935     -0.00000
     22       1.2063     -0.00000


--------------------------------------------------------------------------------------------------------


 soft charge-density along one line, spin component           1
         0         1         2         3         4         5         6         7         8         9
 total charge-density along one line
 
 pseudopotential strength for first ion, spin component:           1
 -9.205   0.016   0.004   0.001   0.001   0.020  -0.001  -0.000
  0.016  -9.221  -0.000  -0.006  -0.003  -0.001   0.022   0.000
  0.004  -0.000  -9.193   0.004  -0.017  -0.000   0.000   0.020
  0.001  -0.006   0.004  -9.199   0.008   0.000   0.001  -0.000
  0.001  -0.003  -0.017   0.008  -9.223  -0.000   0.000   0.001
  0.020  -0.001  -0.000   0.000  -0.000   0.104   0.000   0.000
 -0.001   0.022   0.000   0.001   0.000   0.000   0.104   0.000
 -0.000   0.000   0.020  -0.000   0.001   0.000   0.000   0.104
  0.000   0.001  -0.000   0.020  -0.001   0.000  -0.000   0.000
 -0.000   0.000   0.001  -0.001   0.021   0.000  -0.000  -0.000
  0.005   0.001   0.000  -0.009  -0.011  -0.000   0.000   0.001
 -0.001   0.000   0.000   0.002   0.002   0.000  -0.000  -0.000
 -0.010  -0.003   0.004   0.001   0.005   0.000   0.000  -0.000
  0.001  -0.003   0.004  -0.005   0.003   0.000   0.000   0.000
 -0.005   0.001   0.010   0.004  -0.011   0.000   0.000  -0.000
  0.007   0.000  -0.003  -0.000  -0.004  -0.000   0.000   0.000
 -0.000   0.003  -0.003   0.005  -0.002  -0.000  -0.000   0.000
  0.004  -0.000  -0.006  -0.004   0.008  -0.000  -0.000   0.000
 total augmentation occupancy for first ion, spin component:           1
  1.071   0.061   0.003  -0.008   0.012   0.525  -0.021   0.007   0.054  -0.008  -0.036   0.011   0.073  -0.014   0.004  -0.016
  0.061   0.972  -0.007  -0.017  -0.011  -0.020   0.607   0.033   0.004  -0.003   0.006  -0.008  -0.069   0.029  -0.002   0.009
  0.003  -0.007   1.087  -0.015  -0.060   0.006   0.033   0.603   0.003  -0.059  -0.055  -0.006   0.013  -0.015  -0.037  -0.000
 -0.008  -0.017  -0.015   0.927  -0.006   0.054   0.005   0.004   0.620   0.023  -0.026  -0.016  -0.017   0.004   0.028   0.002
  0.012  -0.011  -0.060  -0.006   0.852  -0.008  -0.002  -0.055   0.022   0.508   0.060  -0.026  -0.005   0.028  -0.023   0.002
  0.525  -0.020   0.006   0.054  -0.008   0.396  -0.088   0.021   0.085  -0.016  -0.003   0.004   0.092  -0.002   0.034  -0.016
 -0.021   0.607   0.033   0.005  -0.002  -0.088   0.634   0.064   0.020   0.007   0.081  -0.019  -0.094   0.054   0.000   0.016
  0.007   0.033   0.603   0.004  -0.055   0.021   0.064   0.512   0.009  -0.036   0.095  -0.030   0.018   0.010  -0.002  -0.002
  0.054   0.004   0.003   0.620   0.022   0.085   0.020   0.009   0.652   0.037  -0.036  -0.004  -0.002   0.039   0.029   0.000
 -0.008  -0.003  -0.059   0.023   0.508  -0.016   0.007  -0.036   0.037   0.466   0.043  -0.017   0.004   0.056  -0.048   0.000
 -0.036   0.006  -0.055  -0.026   0.060  -0.003   0.081   0.095  -0.036   0.043   1.143  -0.145   0.032  -0.019   0.066  -0.005
  0.011  -0.008  -0.006  -0.016  -0.026   0.004  -0.019  -0.030  -0.004  -0.017  -0.145   0.027  -0.004   0.002  -0.003   0.001
  0.073  -0.069   0.013  -0.017  -0.005   0.092  -0.094   0.018  -0.002   0.004   0.032  -0.004   0.131   0.024  -0.001  -0.020
 -0.014   0.029  -0.015   0.004   0.028  -0.002   0.054   0.010   0.039   0.056  -0.019   0.002   0.024   0.184  -0.001  -0.003
  0.004  -0.002  -0.037   0.028  -0.023   0.034   0.000  -0.002   0.029  -0.048   0.066  -0.003  -0.001  -0.001   0.173  -0.000
 -0.016   0.009  -0.000   0.002   0.002  -0.016   0.016  -0.002   0.000   0.000  -0.005   0.001  -0.020  -0.003  -0.000   0.003
  0.002  -0.006   0.005  -0.003  -0.003   0.000  -0.009  -0.000  -0.008  -0.009   0.003  -0.000  -0.003  -0.027   0.000   0.000
 -0.003   0.000   0.010  -0.001  -0.001  -0.006   0.000   0.002  -0.003   0.006  -0.010   0.001  -0.000   0.000  -0.024   0.000


------------------------ aborting loop because EDIFF is reached ----------------------------------------


    CHARGE:  cpu time    0.0242: real time    0.0242
    FORLOC:  cpu time    0.0022: real time    0.0022
    FORNL :  cpu time    0.1035: real time    0.1037
    STRESS:  cpu time    0.1495: real time    0.1500
    FORCOR:  cpu time    0.0443: real time    0.0446
    FORHAR:  cpu time    0.0052: real time    0.0052
    MIXING:  cpu time    0.0011: real time    0.0011
    OFIELD:  cpu time    0.0000: real time    0.0000

  FORCE on cell =-STRESS in cart. coord.  units (eV):
  Direction    XX          YY          ZZ          XY          YZ          ZX
  --------------------------------------------------------------------------------------
  Alpha Z    20.39049    20.39049    20.39049
  Ewald    4192.80179  4177.60412 -5171.65975    -1.26609     0.77814     0.92320
  Hartree  4399.38376  4411.37567 -4349.18408    -0.40927     0.67951     2.26863
  E(xc)    -149.78799  -148.74186  -151.42400     0.13551     0.12068     0.00487
  Local   -9136.75037 -9128.44501  8968.47159     2.66995    -0.85468    -3.26652
  n-local   397.62330   388.79374   406.57491    -0.42563    -1.59545    -1.98013
  augment   -86.46441   -84.78696   -88.68690     0.01031     0.40072     0.42883
  Kinetic   362.13246   361.14433   364.63424    -0.46956    -0.13298     1.58437
  Fock        0.00000     0.00000     0.00000     0.00000     0.00000     0.00000
  -------------------------------------------------------------------------------------
  Total      -0.67098    -2.66547    -0.88349     0.24522    -0.60406    -0.03675
  in kB      -2.47404    -9.82821    -3.25764     0.90420    -2.22730    -0.13551
  external pressure =       -5.19 kB  Pullay stress =        0.00 kB


 VOLUME and BASIS-vectors are now :
 -----------------------------------------------------------------------------
  energy-cutoff  :      224.58
  volume of cell :      434.52
      direct lattice vectors                 reciprocal lattice vectors
     6.390000000  0.000000000  0.000000000     0.156494523  0.000000000  0.000000000
     0.000000000  3.400000000  0.000000000     0.000000000  0.294117647  0.000000000
     0.000000000  0.000000000 20.000000000     0.000000000  0.000000000  0.050000000

  length of vectors
     6.390000000  3.400000000 20.000000000     0.156494523  0.294117647  0.050000000


 FORCES acting on ions
    electron-ion (+dipol)            ewald-force                    non-local-force                 convergence-correction
 -----------------------------------------------------------------------------------------------
   0.399E+02 0.899E+01 0.183E+02   -.386E+02 -.845E+01 -.190E+02   -.126E+01 -.328E+00 0.576E+00   0.174E-03 -.302E-03 0.184E-02
   -.349E+02 -.102E+02 -.206E+02   0.335E+02 0.966E+01 0.193E+02   0.142E+01 0.591E+00 0.124E+01   -.176E-02 0.442E-04 0.105E-03
   -.114E+02 0.312E+00 0.350E+03   0.113E+02 -.762E+00 -.356E+03   0.378E-01 0.559E+00 0.627E+01   0.672E-03 -.357E-04 0.357E-02
   0.637E+01 -.309E+00 0.457E+03   -.615E+01 0.377E+00 -.461E+03   -.119E+00 -.146E+00 0.413E+01   -.702E-03 -.774E-04 0.622E-02
   -.140E+01 0.732E+00 -.349E+03   0.154E+01 -.966E+00 0.354E+03   -.336E+00 0.132E+00 -.471E+01   0.102E-02 -.882E-04 -.102E-02
   0.163E+01 -.697E+00 -.459E+03   -.160E+01 0.146E+00 0.462E+03   0.100E+00 0.372E+00 -.364E+01   -.346E-03 0.197E-03 -.158E-02
 -----------------------------------------------------------------------------------------------
   0.162E+00 -.118E+01 -.389E+01   -.222E-15 0.738E-14 0.000E+00   -.160E+00 0.118E+01 0.388E+01   -.946E-03 -.262E-03 0.914E-02
 
 
 POSITION                                       TOTAL-FORCE (eV/Angst)
 -----------------------------------------------------------------------------------
      0.26003      0.08722      9.95133         0.066402      0.210649     -0.149516
      2.56144      1.78599     10.13449         0.030923      0.040105     -0.048728
      4.12829      0.04849      8.50689        -0.123463      0.108061      0.053061
      0.88899      1.77353      7.97053         0.092893     -0.077289      0.153530
      4.57153      0.61779     11.70535        -0.193477     -0.102494      0.121566
      1.30484      0.78697     12.35109         0.126722     -0.179033     -0.129913
 -----------------------------------------------------------------------------------
    total drift:                                0.001339      0.000339     -0.001628


--------------------------------------------------------------------------------------------------------



  FREE ENERGIE OF THE ION-ELECTRON SYSTEM (eV)
  ---------------------------------------------------
  free  energy   TOTEN  =       -34.25748882 eV

  energy  without entropy=      -34.24189911  energy(sigma->0) =      -34.25229225
 


--------------------------------------------------------------------------------------------------------


    POTLOK:  cpu time    0.0172: real time    0.0173


--------------------------------------------------------------------------------------------------------


 writing wavefunctions
     LOOP+:  cpu time    3.9153: real time    5.1254
    4ORBIT:  cpu time    0.0000: real time    0.0000

 total amount of memory used by VASP MPI-rank0    44065. kBytes
=======================================================================

   base      :      30000. kBytes
   nonl-proj :       4895. kBytes
   fftplans  :       2331. kBytes
   grid      :       3753. kBytes
   one-center:         31. kBytes
   wavefun   :       3055. kBytes
 
  
  
 General timing and accounting informations for this job:
 ========================================================
  
                  Total CPU time used (sec):        4.872
                            User time (sec):        4.606
                          System time (sec):        0.266
                         Elapsed time (sec):        9.212
  
                   Maximum memory used (kb):      169268.
                   Average memory used (kb):           0.
  
                          Minor page faults:        52922
                          Major page faults:          113
                 Voluntary context switches:         3958
