 running on  192 total cores
 distrk:  each k-point on  192 cores,    1 groups
 distr:  one band on   24 cores,    8 groups
 using from now: INCAR     
 vasp.5.4.4.18Apr17-6-g9f103f2a35 (build Feb 21 2024 19:30:58) complex          
  
 POSCAR found type information on POSCAR  S  Pb
 POSCAR found :  2 types and      12 ions
 scaLAPACK will be used
 WARNING: PSMAXN for non-local potential too small
 LDA part: xc-table for Pade appr. of Perdew
 found WAVECAR, reading the header
  number of k-points has changed, file:    25 present:    40
  trying to continue reading WAVECAR, but it might fail
 WARNING: stress and forces are not correct
 POSCAR, INCAR and KPOINTS ok, starting setup
 FFT: planning ...
 reading WAVECAR
 the WAVECAR file was read successfully
 charge-density read from file: unknown                                 
 entering main loop
       N       E                     dE             d eps       ncg     rms          rms(c)
DAV:   1    -0.399132930466E+02   -0.39913E+02   -0.71859E+02  4496   0.672E+01
DAV:   2    -0.514235237892E+02   -0.11510E+02   -0.11337E+02  4096   0.279E+01
DAV:   3    -0.517703282494E+02   -0.34680E+00   -0.34442E+00  4416   0.598E+00
DAV:   4    -0.517799670697E+02   -0.96388E-02   -0.96046E-02  4312   0.954E-01
DAV:   5    -0.517803088440E+02   -0.34177E-03   -0.33967E-03  4472   0.156E-01
DAV:   6    -0.517803301651E+02   -0.21321E-04   -0.21313E-04  4176   0.285E-02
DAV:   7    -0.517803317749E+02   -0.16098E-05   -0.16096E-05  3200   0.465E-03
DAV:   8    -0.517803319931E+02   -0.21820E-06   -0.21804E-06  2784   0.125E-03
   1 F= -.51780332E+02 E0= -.51780332E+02  d E =0.000000E+00
 writing wavefunctions
