
     Program BANDS v.6.6 starts on 11May2023 at 15:32: 4 

     This program is part of the open-source Quantum ESPRESSO suite
     for quantum simulation of materials; please cite
         "P. Giannozzi et al., J. Phys.:Condens. Matter 21 395502 (2009);
         "P. Giannozzi et al., J. Phys.:Condens. Matter 29 465901 (2017);
          URL http://www.quantum-espresso.org", 
     in publications or presentations arising from this work. More details at
     http://www.quantum-espresso.org/quote

     Parallel version (MPI), running on     4 processors

     MPI processes distributed on     1 nodes
     R & G space division:  proc/nbgrp/npool/nimage =       4
     Fft bands division:     nmany     =       1

     Reading xml data from directory:

     wfc-out/pb.save/
     file Pb.pbe-dn-kjpaw_psl.0.2.2.UPF: wavefunction(s)  6S renormalized

     IMPORTANT: XC functional enforced from input :
     Exchange-correlation= PBE
                           (   1   4   3   4   0   0   0)
     Any further DFT definition will be discarded
     Please, verify this is what you really want

 
     Parallelization info
     --------------------
     sticks:   dense  smooth     PW     G-vecs:    dense   smooth      PW
     Min         144     142     46                 2270     2218     409
     Max         147     144     47                 2279     2219     411
     Sum         583     571    187                 9089     8873    1639
 

     Check: negative core charge=   -0.000003
     Reading collected, re-writing distributed wavefunctions
     high-symmetry point:  0.0000 0.0000 0.0000   x coordinate   0.0000
     high-symmetry point:  0.0000 0.0000 1.0000   x coordinate   1.0000
     high-symmetry point:  0.0000 0.5000 1.0000   x coordinate   1.5000
     high-symmetry point:  0.5000 0.5000 0.5000   x coordinate   2.2071
     high-symmetry point:  0.0000 0.0000 0.0000   x coordinate   3.0731
     high-symmetry point:  1.0000 0.0000 1.0000   x coordinate   4.4873

     Plottable bands (eV) written to file bands.dat.gnu
     Bands written to file bands.dat

 **************************************************************************

                    xk=(   0.00000,   0.00000,   0.00000  )

     point group C_1 (1)    
     there are  1 classes
     the character table:

       E    
A      1.00

     the symmetry operations in each class and the name of the first element:

     E        1
                                                                 

     Band symmetry, C_1 (1)     point group:

     e(  1 -  3) =     -5.81420  eV     3   -->   3 A              
     e(  4 -  5) =     -5.67525  eV     2   -->   2 A              
     e(  6 -  6) =     -0.49674  eV     1   --> A              
     e(  7 -  9) =     18.67666  eV     3   -->   3 A              
     e( 10 - 10) =     21.37444  eV     1   --> A              
     e( 11 - 11) =     22.58019  eV     1   --> A              
     e( 12 - 13) =     23.75980  eV     2   -->   2 A              

 **************************************************************************

 **************************************************************************

                    xk=(   0.00000,   0.00000,   0.02000  )

     Band symmetry, C_1 (1)     point group:

     e(  1 -  1) =     -5.81436  eV     1   --> A              
     e(  2 -  3) =     -5.81391  eV     2   -->   2 A              
     e(  4 -  4) =     -5.67541  eV     1   --> A              
     e(  5 -  5) =     -5.67513  eV     1   --> A              
     e(  6 -  6) =     -0.49418  eV     1   --> A              
     e(  7 -  7) =     18.65593  eV     1   --> A              
     e(  8 -  9) =     18.66393  eV     2   -->   2 A              
     e( 10 - 10) =     21.36092  eV     1   --> A              
     e( 11 - 11) =     22.60366  eV     1   --> A              
     e( 12 - 12) =     23.77733  eV     1   --> A              
     e( 13 - 13) =     23.77783  eV     1   --> A              

 **************************************************************************

 **************************************************************************

                    xk=(   0.00000,   0.00000,   0.04000  )

     Band symmetry, C_1 (1)     point group:

     e(  1 -  1) =     -5.81485  eV     1   --> A              
     e(  2 -  3) =     -5.81305  eV     2   -->   2 A              
     e(  4 -  4) =     -5.67591  eV     1   --> A              
     e(  5 -  5) =     -5.67477  eV     1   --> A              
     e(  6 -  6) =     -0.48650  eV     1   --> A              
     e(  7 -  7) =     18.59522  eV     1   --> A              
     e(  8 -  9) =     18.62622  eV     2   -->   2 A              
     e( 10 - 10) =     21.32156  eV     1   --> A              
     e( 11 - 11) =     22.67235  eV     1   --> A              
     e( 12 - 13) =     23.82509  eV     2   -->   2 A              

 **************************************************************************

 **************************************************************************

                    xk=(   0.00000,   0.00000,   0.06000  )

     Band symmetry, C_1 (1)     point group:

     e(  1 -  1) =     -5.81565  eV     1   --> A              
     e(  2 -  3) =     -5.81163  eV     2   -->   2 A              
     e(  4 -  4) =     -5.67673  eV     1   --> A              
     e(  5 -  5) =     -5.67417  eV     1   --> A              
     e(  6 -  6) =     -0.47369  eV     1   --> A              
     e(  7 -  7) =     18.49843  eV     1   --> A              
     e(  8 -  9) =     18.56497  eV     2   -->   2 A              
     e( 10 - 10) =     21.25960  eV     1   --> A              
     e( 11 - 11) =     22.78143  eV     1   --> A              
     e( 12 - 13) =     23.90324  eV     2   -->   2 A              

 **************************************************************************

 **************************************************************************

                    xk=(   0.00000,   0.00000,   0.08000  )

     Band symmetry, C_1 (1)     point group:

     e(  1 -  1) =     -5.81677  eV     1   --> A              
     e(  2 -  3) =     -5.80965  eV     2   -->   2 A              
     e(  4 -  4) =     -5.67788  eV     1   --> A              
     e(  5 -  5) =     -5.67333  eV     1   --> A              
     e(  6 -  6) =     -0.45575  eV     1   --> A              
     e(  7 -  7) =     18.37091  eV     1   --> A              
     e(  8 -  9) =     18.48227  eV     2   -->   2 A              
     e( 10 - 10) =     21.17915  eV     1   --> A              
     e( 11 - 11) =     22.92368  eV     1   --> A              
     e( 12 - 13) =     24.00934  eV     2   -->   2 A              

 **************************************************************************

 **************************************************************************

                    xk=(   0.00000,   0.00000,   0.10000  )

     Band symmetry, C_1 (1)     point group:

     e(  1 -  1) =     -5.81821  eV     1   --> A              
     e(  2 -  3) =     -5.80712  eV     2   -->   2 A              
     e(  4 -  4) =     -5.67937  eV     1   --> A              
     e(  5 -  5) =     -5.67226  eV     1   --> A              
     e(  6 -  6) =     -0.43269  eV     1   --> A              
     e(  7 -  7) =     18.21828  eV     1   --> A              
     e(  8 -  9) =     18.38068  eV     2   -->   2 A              
     e( 10 - 10) =     21.08456  eV     1   --> A              
     e( 11 - 11) =     23.08953  eV     1   --> A              
     e( 12 - 13) =     24.14101  eV     2   -->   2 A              

 **************************************************************************

 **************************************************************************

                    xk=(   0.00000,   0.00000,   0.12000  )

     Band symmetry, C_1 (1)     point group:

     e(  1 -  1) =     -5.81996  eV     1   --> A              
     e(  2 -  3) =     -5.80403  eV     2   -->   2 A              
     e(  4 -  4) =     -5.68118  eV     1   --> A              
     e(  5 -  5) =     -5.67096  eV     1   --> A              
     e(  6 -  6) =     -0.40450  eV     1   --> A              
     e(  7 -  7) =     18.04573  eV     1   --> A              
     e(  8 -  9) =     18.26292  eV     2   -->   2 A              
     e( 10 - 10) =     20.97966  eV     1   --> A              
     e( 11 - 11) =     23.26526  eV     1   --> A              
     e( 12 - 13) =     24.29551  eV     2   -->   2 A              

 **************************************************************************

 **************************************************************************

                    xk=(   0.00000,   0.00000,   0.14000  )

     Band symmetry, C_1 (1)     point group:

     e(  1 -  1) =     -5.82201  eV     1   --> A              
     e(  2 -  3) =     -5.80042  eV     2   -->   2 A              
     e(  4 -  4) =     -5.68332  eV     1   --> A              
     e(  5 -  5) =     -5.66944  eV     1   --> A              
     e(  6 -  6) =     -0.37119  eV     1   --> A              
     e(  7 -  7) =     17.85760  eV     1   --> A              
     e(  8 -  9) =     18.13168  eV     2   -->   2 A              
     e( 10 - 10) =     20.86762  eV     1   --> A              
     e( 11 - 11) =     23.42570  eV     1   --> A              
     e( 12 - 13) =     24.47016  eV     2   -->   2 A              

 **************************************************************************

 **************************************************************************

                    xk=(   0.00000,   0.00000,   0.16000  )

     Band symmetry, C_1 (1)     point group:

     e(  1 -  1) =     -5.82435  eV     1   --> A              
     e(  2 -  3) =     -5.79627  eV     2   -->   2 A              
     e(  4 -  4) =     -5.68580  eV     1   --> A              
     e(  5 -  5) =     -5.66770  eV     1   --> A              
     e(  6 -  6) =     -0.33274  eV     1   --> A              
     e(  7 -  7) =     17.65735  eV     1   --> A              
     e(  8 -  9) =     17.98940  eV     2   -->   2 A              
     e( 10 - 10) =     20.75095  eV     1   --> A              
     e( 11 - 11) =     23.51651  eV     1   --> A              
     e( 12 - 12) =     24.66040  eV     1   --> A              
     e( 13 - 13) =     24.66194  eV     1   --> A              

 **************************************************************************

 **************************************************************************

                    xk=(   0.00000,   0.00000,   0.18000  )

     Band symmetry, C_1 (1)     point group:

     e(  1 -  1) =     -5.82697  eV     1   --> A              
     e(  2 -  3) =     -5.79162  eV     2   -->   2 A              
     e(  4 -  4) =     -5.68860  eV     1   --> A              
     e(  5 -  5) =     -5.66575  eV     1   --> A              
     e(  6 -  6) =     -0.28916  eV     1   --> A              
     e(  7 -  7) =     17.44767  eV     1   --> A              
     e(  8 -  9) =     17.83841  eV     2   -->   2 A              
     e( 10 - 10) =     20.63155  eV     1   --> A              
     e( 11 - 11) =     23.45893  eV     1   --> A              
     e( 12 - 12) =     24.62797  eV     1   --> A              
     e( 13 - 13) =     24.86964  eV     1   --> A              

 **************************************************************************

 **************************************************************************

                    xk=(   0.00000,   0.00000,   0.20000  )

     Band symmetry, C_1 (1)     point group:

     e(  1 -  1) =     -5.82987  eV     1   --> A              
     e(  2 -  3) =     -5.78647  eV     2   -->   2 A              
     e(  4 -  4) =     -5.69172  eV     1   --> A              
     e(  5 -  5) =     -5.66359  eV     1   --> A              
     e(  6 -  6) =     -0.24046  eV     1   --> A              
     e(  7 -  7) =     17.23054  eV     1   --> A              
     e(  8 -  9) =     17.68064  eV     2   -->   2 A              
     e( 10 - 10) =     20.51088  eV     1   --> A              
     e( 11 - 11) =     23.25310  eV     1   --> A              
     e( 12 - 12) =     24.76531  eV     1   --> A              
     e( 13 - 13) =     25.09063  eV     1   --> A              

 **************************************************************************

 **************************************************************************

                    xk=(   0.00000,   0.00000,   0.22000  )

     Band symmetry, C_1 (1)     point group:

     e(  1 -  1) =     -5.83303  eV     1   --> A              
     e(  2 -  3) =     -5.78084  eV     2   -->   2 A              
     e(  4 -  4) =     -5.69517  eV     1   --> A              
     e(  5 -  5) =     -5.66124  eV     1   --> A              
     e(  6 -  6) =     -0.18662  eV     1   --> A              
     e(  7 -  7) =     17.00742  eV     1   --> A              
     e(  8 -  9) =     17.51774  eV     2   -->   2 A              
     e( 10 - 10) =     20.38997  eV     1   --> A              
     e( 11 - 11) =     22.97160  eV     1   --> A              
     e( 12 - 12) =     24.99417  eV     1   --> A              
     e( 13 - 13) =     25.32235  eV     1   --> A              

 **************************************************************************

 **************************************************************************

                    xk=(   0.00000,   0.00000,   0.24000  )

     Band symmetry, C_1 (1)     point group:

     e(  1 -  1) =     -5.83643  eV     1   --> A              
     e(  2 -  3) =     -5.77475  eV     2   -->   2 A              
     e(  4 -  4) =     -5.69894  eV     1   --> A              
     e(  5 -  5) =     -5.65870  eV     1   --> A              
     e(  6 -  6) =     -0.12766  eV     1   --> A              
     e(  7 -  7) =     16.77936  eV     1   --> A              
     e(  8 -  9) =     17.35128  eV     2   -->   2 A              
     e( 10 - 10) =     20.26981  eV     1   --> A              
     e( 11 - 11) =     22.66062  eV     1   --> A              
     e( 12 - 12) =     25.26810  eV     1   --> A              
     e( 13 - 13) =     25.55378  eV     1   --> A              

 **************************************************************************

 **************************************************************************

                    xk=(   0.00000,   0.00000,   0.26000  )

     Band symmetry, C_1 (1)     point group:

     e(  1 -  1) =     -5.84008  eV     1   --> A              
     e(  2 -  3) =     -5.76822  eV     2   -->   2 A              
     e(  4 -  4) =     -5.70301  eV     1   --> A              
     e(  5 -  5) =     -5.65598  eV     1   --> A              
     e(  6 -  6) =     -0.06358  eV     1   --> A              
     e(  7 -  7) =     16.54710  eV     1   --> A              
     e(  8 -  9) =     17.18247  eV     2   -->   2 A              
     e( 10 - 10) =     20.15098  eV     1   --> A              
     e( 11 - 11) =     22.33986  eV     1   --> A              
     e( 12 - 12) =     25.56756  eV     1   --> A              
     e( 13 - 13) =     25.79519  eV     1   --> A              

 **************************************************************************

 **************************************************************************

                    xk=(   0.00000,   0.00000,   0.28000  )

     Band symmetry, C_1 (1)     point group:

     e(  1 -  1) =     -5.84393  eV     1   --> A              
     e(  2 -  3) =     -5.76128  eV     2   -->   2 A              
     e(  4 -  4) =     -5.70739  eV     1   --> A              
     e(  5 -  5) =     -5.65310  eV     1   --> A              
     e(  6 -  6) =      0.00560  eV     1   --> A              
     e(  7 -  7) =     16.31113  eV     1   --> A              
     e(  8 -  9) =     17.01231  eV     2   -->   2 A              
     e( 10 - 10) =     20.03395  eV     1   --> A              
     e( 11 - 11) =     22.01790  eV     1   --> A              
     e( 12 - 12) =     25.88380  eV     1   --> A              
     e( 13 - 13) =     26.01916  eV     1   --> A              

 **************************************************************************

 **************************************************************************

                    xk=(   0.00000,   0.00000,   0.30000  )

     Band symmetry, C_1 (1)     point group:

     e(  1 -  1) =     -5.84800  eV     1   --> A              
     e(  2 -  3) =     -5.75394  eV     2   -->   2 A              
     e(  4 -  4) =     -5.71207  eV     1   --> A              
     e(  5 -  5) =     -5.65006  eV     1   --> A              
     e(  6 -  6) =      0.07989  eV     1   --> A              
     e(  7 -  7) =     16.07176  eV     1   --> A              
     e(  8 -  9) =     16.84169  eV     2   -->   2 A              
     e( 10 - 10) =     19.91911  eV     1   --> A              
     e( 11 - 11) =     21.69942  eV     1   --> A              
     e( 12 - 12) =     26.21232  eV     1   --> A              
     e( 13 - 13) =     26.26736  eV     1   --> A              

 **************************************************************************

 **************************************************************************

                    xk=(   0.00000,   0.00000,   0.32000  )

     Band symmetry, C_1 (1)     point group:

     e(  1 -  1) =     -5.85225  eV     1   --> A              
     e(  2 -  3) =     -5.74624  eV     2   -->   2 A              
     e(  4 -  4) =     -5.71704  eV     1   --> A              
     e(  5 -  5) =     -5.64688  eV     1   --> A              
     e(  6 -  6) =      0.15926  eV     1   --> A              
     e(  7 -  7) =     15.82919  eV     1   --> A              
     e(  8 -  9) =     16.67144  eV     2   -->   2 A              
     e( 10 - 10) =     19.80676  eV     1   --> A              
     e( 11 - 11) =     21.38674  eV     1   --> A              
     e( 12 - 12) =     26.52293  eV     1   --> A              
     e( 13 - 13) =     26.55790  eV     1   --> A              

 **************************************************************************

 **************************************************************************

                    xk=(   0.00000,   0.00000,   0.34000  )

     Band symmetry, C_1 (1)     point group:

     e(  1 -  1) =     -5.85668  eV     1   --> A              
     e(  2 -  3) =     -5.73819  eV     2   -->   2 A              
     e(  4 -  4) =     -5.72227  eV     1   --> A              
     e(  5 -  5) =     -5.64356  eV     1   --> A              
     e(  6 -  6) =      0.24370  eV     1   --> A              
     e(  7 -  7) =     15.58351  eV     1   --> A              
     e(  8 -  9) =     16.50215  eV     2   -->   2 A              
     e( 10 - 10) =     19.69696  eV     1   --> A              
     e( 11 - 11) =     21.08169  eV     1   --> A              
     e( 12 - 12) =     26.78514  eV     1   --> A              
     e( 13 - 13) =     26.89066  eV     1   --> A              

 **************************************************************************

 **************************************************************************

                    xk=(   0.00000,   0.00000,   0.36000  )

     Band symmetry, C_1 (1)     point group:

     e(  1 -  1) =     -5.86125  eV     1   --> A              
     e(  2 -  3) =     -5.72984  eV     2   -->   2 A              
     e(  4 -  4) =     -5.72777  eV     1   --> A              
     e(  5 -  5) =     -5.64013  eV     1   --> A              
     e(  6 -  6) =      0.33318  eV     1   --> A              
     e(  7 -  7) =     15.33477  eV     1   --> A              
     e(  8 -  9) =     16.33448  eV     2   -->   2 A              
     e( 10 - 10) =     19.59021  eV     1   --> A              
     e( 11 - 11) =     20.78549  eV     1   --> A              
     e( 12 - 12) =     27.05341  eV     1   --> A              
     e( 13 - 13) =     27.16704  eV     1   --> A              

 **************************************************************************

 **************************************************************************

                    xk=(   0.00000,   0.00000,   0.38000  )

     Band symmetry, C_1 (1)     point group:

     e(  1 -  1) =     -5.86596  eV     1   --> A              
     e(  2 -  2) =     -5.73351  eV     1   --> A              
     e(  3 -  4) =     -5.72119  eV     2   -->   2 A              
     e(  5 -  5) =     -5.63659  eV     1   --> A              
     e(  6 -  6) =      0.42768  eV     1   --> A              
     e(  7 -  7) =     15.08300  eV     1   --> A              
     e(  8 -  9) =     16.16893  eV     2   -->   2 A              
     e( 10 - 10) =     19.48657  eV     1   --> A              
     e( 11 - 11) =     20.49908  eV     1   --> A              
     e( 12 - 12) =     27.32771  eV     1   --> A              
     e( 13 - 13) =     27.42827  eV     1   --> A              

 **************************************************************************

 **************************************************************************

                    xk=(   0.00000,   0.00000,   0.40000  )

     Band symmetry, C_1 (1)     point group:

     e(  1 -  1) =     -5.87079  eV     1   --> A              
     e(  2 -  2) =     -5.73947  eV     1   --> A              
     e(  3 -  4) =     -5.71230  eV     2   -->   2 A              
     e(  5 -  5) =     -5.63297  eV     1   --> A              
     e(  6 -  6) =      0.52715  eV     1   --> A              
     e(  7 -  7) =     14.82821  eV     1   --> A              
     e(  8 -  9) =     16.00578  eV     2   -->   2 A              
     e( 10 - 10) =     19.38598  eV     1   --> A              
     e( 11 - 11) =     20.22298  eV     1   --> A              
     e( 12 - 12) =     27.61738  eV     1   --> A              
     e( 13 - 13) =     27.61919  eV     1   --> A              

 **************************************************************************

 **************************************************************************

                    xk=(   0.00000,   0.00000,   0.42000  )

     Band symmetry, C_1 (1)     point group:

     e(  1 -  1) =     -5.87571  eV     1   --> A              
     e(  2 -  2) =     -5.74564  eV     1   --> A              
     e(  3 -  4) =     -5.70320  eV     2   -->   2 A              
     e(  5 -  5) =     -5.62926  eV     1   --> A              
     e(  6 -  6) =      0.63157  eV     1   --> A              
     e(  7 -  7) =     14.57044  eV     1   --> A              
     e(  8 -  9) =     15.84548  eV     2   -->   2 A              
     e( 10 - 10) =     19.28861  eV     1   --> A              
     e( 11 - 11) =     19.95775  eV     1   --> A              
     e( 12 - 13) =     27.76068  eV     2   -->   2 A              

 **************************************************************************

 **************************************************************************

                    xk=(   0.00000,   0.00000,   0.44000  )

     Band symmetry, C_1 (1)     point group:

     e(  1 -  1) =     -5.88071  eV     1   --> A              
     e(  2 -  2) =     -5.75199  eV     1   --> A              
     e(  3 -  4) =     -5.69391  eV     2   -->   2 A              
     e(  5 -  5) =     -5.62549  eV     1   --> A              
     e(  6 -  6) =      0.74088  eV     1   --> A              
     e(  7 -  7) =     14.30976  eV     1   --> A              
     e(  8 -  9) =     15.68839  eV     2   -->   2 A              
     e( 10 - 10) =     19.19450  eV     1   --> A              
     e( 11 - 11) =     19.70375  eV     1   --> A              
     e( 12 - 13) =     27.89580  eV     2   -->   2 A              

 **************************************************************************

 **************************************************************************

                    xk=(   0.00000,   0.00000,   0.46000  )

     Band symmetry, C_1 (1)     point group:

     e(  1 -  1) =     -5.88577  eV     1   --> A              
     e(  2 -  2) =     -5.75850  eV     1   --> A              
     e(  3 -  4) =     -5.68446  eV     2   -->   2 A              
     e(  5 -  5) =     -5.62168  eV     1   --> A              
     e(  6 -  6) =      0.85504  eV     1   --> A              
     e(  7 -  7) =     14.04629  eV     1   --> A              
     e(  8 -  9) =     15.53481  eV     2   -->   2 A              
     e( 10 - 10) =     19.10384  eV     1   --> A              
     e( 11 - 11) =     19.46139  eV     1   --> A              
     e( 12 - 13) =     28.03310  eV     2   -->   2 A              

 **************************************************************************

 **************************************************************************

                    xk=(   0.00000,   0.00000,   0.48000  )

     Band symmetry, C_1 (1)     point group:

     e(  1 -  1) =     -5.89087  eV     1   --> A              
     e(  2 -  2) =     -5.76514  eV     1   --> A              
     e(  3 -  4) =     -5.67491  eV     2   -->   2 A              
     e(  5 -  5) =     -5.61783  eV     1   --> A              
     e(  6 -  6) =      0.97396  eV     1   --> A              
     e(  7 -  7) =     13.78019  eV     1   --> A              
     e(  8 -  9) =     15.38500  eV     2   -->   2 A              
     e( 10 - 10) =     19.01641  eV     1   --> A              
     e( 11 - 11) =     19.23046  eV     1   --> A              
     e( 12 - 13) =     28.17439  eV     2   -->   2 A              

 **************************************************************************

 **************************************************************************

                    xk=(   0.00000,   0.00000,   0.50000  )

     Band symmetry, C_1 (1)     point group:

     e(  1 -  1) =     -5.89598  eV     1   --> A              
     e(  2 -  2) =     -5.77190  eV     1   --> A              
     e(  3 -  4) =     -5.66528  eV     2   -->   2 A              
     e(  5 -  5) =     -5.61397  eV     1   --> A              
     e(  6 -  6) =      1.09759  eV     1   --> A              
     e(  7 -  7) =     13.51169  eV     1   --> A              
     e(  8 -  9) =     15.23928  eV     2   -->   2 A              
     e( 10 - 10) =     18.93277  eV     1   --> A              
     e( 11 - 11) =     19.01126  eV     1   --> A              
     e( 12 - 13) =     28.32031  eV     2   -->   2 A              

 **************************************************************************

 **************************************************************************

                    xk=(   0.00000,   0.00000,   0.52000  )

     Band symmetry, C_1 (1)     point group:

     e(  1 -  1) =     -5.90109  eV     1   --> A              
     e(  2 -  2) =     -5.77873  eV     1   --> A              
     e(  3 -  4) =     -5.65561  eV     2   -->   2 A              
     e(  5 -  5) =     -5.61010  eV     1   --> A              
     e(  6 -  6) =      1.22584  eV     1   --> A              
     e(  7 -  7) =     13.24104  eV     1   --> A              
     e(  8 -  9) =     15.09773  eV     2   -->   2 A              
     e( 10 - 10) =     18.80348  eV     1   --> A              
     e( 11 - 11) =     18.85173  eV     1   --> A              
     e( 12 - 13) =     28.47074  eV     2   -->   2 A              

 **************************************************************************

 **************************************************************************

                    xk=(   0.00000,   0.00000,   0.54000  )

     Band symmetry, C_1 (1)     point group:

     e(  1 -  1) =     -5.90618  eV     1   --> A              
     e(  2 -  2) =     -5.78561  eV     1   --> A              
     e(  3 -  4) =     -5.64593  eV     2   -->   2 A              
     e(  5 -  5) =     -5.60624  eV     1   --> A              
     e(  6 -  6) =      1.35860  eV     1   --> A              
     e(  7 -  7) =     12.96860  eV     1   --> A              
     e(  8 -  9) =     14.96063  eV     2   -->   2 A              
     e( 10 - 10) =     18.60723  eV     1   --> A              
     e( 11 - 11) =     18.77448  eV     1   --> A              
     e( 12 - 13) =     28.62579  eV     2   -->   2 A              

 **************************************************************************

 **************************************************************************

                    xk=(   0.00000,   0.00000,   0.56000  )

     Band symmetry, C_1 (1)     point group:

     e(  1 -  1) =     -5.91122  eV     1   --> A              
     e(  2 -  2) =     -5.79251  eV     1   --> A              
     e(  3 -  4) =     -5.63630  eV     2   -->   2 A              
     e(  5 -  5) =     -5.60242  eV     1   --> A              
     e(  6 -  6) =      1.49576  eV     1   --> A              
     e(  7 -  7) =     12.69474  eV     1   --> A              
     e(  8 -  9) =     14.82816  eV     2   -->   2 A              
     e( 10 - 10) =     18.42225  eV     1   --> A              
     e( 11 - 11) =     18.70063  eV     1   --> A              
     e( 12 - 13) =     28.78538  eV     2   -->   2 A              

 **************************************************************************

 **************************************************************************

                    xk=(   0.00000,   0.00000,   0.58000  )

     Band symmetry, C_1 (1)     point group:

     e(  1 -  1) =     -5.91620  eV     1   --> A              
     e(  2 -  2) =     -5.79940  eV     1   --> A              
     e(  3 -  4) =     -5.62674  eV     2   -->   2 A              
     e(  5 -  5) =     -5.59864  eV     1   --> A              
     e(  6 -  6) =      1.63718  eV     1   --> A              
     e(  7 -  7) =     12.41989  eV     1   --> A              
     e(  8 -  9) =     14.70049  eV     2   -->   2 A              
     e( 10 - 10) =     18.24831  eV     1   --> A              
     e( 11 - 11) =     18.63019  eV     1   --> A              
     e( 12 - 13) =     28.94935  eV     2   -->   2 A              

 **************************************************************************

 **************************************************************************

                    xk=(   0.00000,   0.00000,   0.60000  )

     Band symmetry, C_1 (1)     point group:

     e(  1 -  1) =     -5.92110  eV     1   --> A              
     e(  2 -  2) =     -5.80624  eV     1   --> A              
     e(  3 -  4) =     -5.61730  eV     2   -->   2 A              
     e(  5 -  5) =     -5.59491  eV     1   --> A              
     e(  6 -  6) =      1.78271  eV     1   --> A              
     e(  7 -  7) =     12.14452  eV     1   --> A              
     e(  8 -  9) =     14.57779  eV     2   -->   2 A              
     e( 10 - 10) =     18.08514  eV     1   --> A              
     e( 11 - 11) =     18.56313  eV     1   --> A              
     e( 12 - 13) =     29.11753  eV     2   -->   2 A              

 **************************************************************************

 **************************************************************************

                    xk=(   0.00000,   0.00000,   0.62000  )

     Band symmetry, C_1 (1)     point group:

     e(  1 -  1) =     -5.92590  eV     1   --> A              
     e(  2 -  2) =     -5.81302  eV     1   --> A              
     e(  3 -  4) =     -5.60801  eV     2   -->   2 A              
     e(  5 -  5) =     -5.59126  eV     1   --> A              
     e(  6 -  6) =      1.93216  eV     1   --> A              
     e(  7 -  7) =     11.86915  eV     1   --> A              
     e(  8 -  9) =     14.46019  eV     2   -->   2 A              
     e( 10 - 10) =     17.93224  eV     1   --> A              
     e( 11 - 11) =     18.49946  eV     1   --> A              
     e( 12 - 13) =     29.28967  eV     2   -->   2 A              

 **************************************************************************

 **************************************************************************

                    xk=(   0.00000,   0.00000,   0.64000  )

     Band symmetry, C_1 (1)     point group:

     e(  1 -  1) =     -5.93058  eV     1   --> A              
     e(  2 -  2) =     -5.81968  eV     1   --> A              
     e(  3 -  4) =     -5.59891  eV     2   -->   2 A              
     e(  5 -  5) =     -5.58770  eV     1   --> A              
     e(  6 -  6) =      2.08532  eV     1   --> A              
     e(  7 -  7) =     11.59431  eV     1   --> A              
     e(  8 -  9) =     14.34783  eV     2   -->   2 A              
     e( 10 - 10) =     17.78952  eV     1   --> A              
     e( 11 - 11) =     18.43910  eV     1   --> A              
     e( 12 - 13) =     29.46547  eV     2   -->   2 A              

 **************************************************************************

 **************************************************************************

                    xk=(   0.00000,   0.00000,   0.66000  )

     Band symmetry, C_1 (1)     point group:

     e(  1 -  1) =     -5.93511  eV     1   --> A              
     e(  2 -  2) =     -5.82620  eV     1   --> A              
     e(  3 -  4) =     -5.59005  eV     2   -->   2 A              
     e(  5 -  5) =     -5.58424  eV     1   --> A              
     e(  6 -  6) =      2.24193  eV     1   --> A              
     e(  7 -  7) =     11.32061  eV     1   --> A              
     e(  8 -  9) =     14.24087  eV     2   -->   2 A              
     e( 10 - 10) =     17.65682  eV     1   --> A              
     e( 11 - 11) =     18.38217  eV     1   --> A              
     e( 12 - 13) =     29.64482  eV     2   -->   2 A              

 **************************************************************************

 **************************************************************************

                    xk=(   0.00000,   0.00000,   0.68000  )

     Band symmetry, C_1 (1)     point group:

     e(  1 -  1) =     -5.93950  eV     1   --> A              
     e(  2 -  2) =     -5.83255  eV     1   --> A              
     e(  3 -  4) =     -5.58145  eV     2   -->   2 A              
     e(  5 -  5) =     -5.58089  eV     1   --> A              
     e(  6 -  6) =      2.40170  eV     1   --> A              
     e(  7 -  7) =     11.04867  eV     1   --> A              
     e(  8 -  9) =     14.13940  eV     2   -->   2 A              
     e( 10 - 10) =     17.53362  eV     1   --> A              
     e( 11 - 11) =     18.32860  eV     1   --> A              
     e( 12 - 13) =     29.82727  eV     2   -->   2 A              

 **************************************************************************

 **************************************************************************

                    xk=(   0.00000,   0.00000,   0.70000  )

     Band symmetry, C_1 (1)     point group:

     e(  1 -  1) =     -5.94370  eV     1   --> A              
     e(  2 -  2) =     -5.83870  eV     1   --> A              
     e(  3 -  3) =     -5.57767  eV     1   --> A              
     e(  4 -  5) =     -5.57316  eV     2   -->   2 A              
     e(  6 -  6) =      2.56425  eV     1   --> A              
     e(  7 -  7) =     10.77917  eV     1   --> A              
     e(  8 -  9) =     14.04354  eV     2   -->   2 A              
     e( 10 - 10) =     17.41960  eV     1   --> A              
     e( 11 - 11) =     18.27837  eV     1   --> A              
     e( 12 - 13) =     30.01240  eV     2   -->   2 A              

 **************************************************************************

 **************************************************************************

                    xk=(   0.00000,   0.00000,   0.72000  )

     Band symmetry, C_1 (1)     point group:

     e(  1 -  1) =     -5.94772  eV     1   --> A              
     e(  2 -  2) =     -5.84461  eV     1   --> A              
     e(  3 -  3) =     -5.57460  eV     1   --> A              
     e(  4 -  5) =     -5.56522  eV     2   -->   2 A              
     e(  6 -  6) =      2.72916  eV     1   --> A              
     e(  7 -  7) =     10.51285  eV     1   --> A              
     e(  8 -  9) =     13.95340  eV     2   -->   2 A              
     e( 10 - 10) =     17.31499  eV     1   --> A              
     e( 11 - 11) =     18.23146  eV     1   --> A              
     e( 12 - 13) =     30.19976  eV     2   -->   2 A              

 **************************************************************************

 **************************************************************************

                    xk=(   0.00000,   0.00000,   0.74000  )

     Band symmetry, C_1 (1)     point group:

     e(  1 -  1) =     -5.95154  eV     1   --> A              
     e(  2 -  2) =     -5.85026  eV     1   --> A              
     e(  3 -  3) =     -5.57168  eV     1   --> A              
     e(  4 -  5) =     -5.55765  eV     2   -->   2 A              
     e(  6 -  6) =      2.89587  eV     1   --> A              
     e(  7 -  7) =     10.25052  eV     1   --> A              
     e(  8 -  9) =     13.86905  eV     2   -->   2 A              
     e( 10 - 10) =     17.21844  eV     1   --> A              
     e( 11 - 11) =     18.18786  eV     1   --> A              
     e( 12 - 13) =     30.38867  eV     2   -->   2 A              

 **************************************************************************

 **************************************************************************

                    xk=(   0.00000,   0.00000,   0.76000  )

     Band symmetry, C_1 (1)     point group:

     e(  1 -  1) =     -5.95513  eV     1   --> A              
     e(  2 -  2) =     -5.85562  eV     1   --> A              
     e(  3 -  3) =     -5.56893  eV     1   --> A              
     e(  4 -  5) =     -5.55050  eV     2   -->   2 A              
     e(  6 -  6) =      3.06374  eV     1   --> A              
     e(  7 -  7) =      9.99309  eV     1   --> A              
     e(  8 -  9) =     13.79060  eV     2   -->   2 A              
     e( 10 - 10) =     17.13017  eV     1   --> A              
     e( 11 - 11) =     18.14755  eV     1   --> A              
     e( 12 - 12) =     30.42933  eV     1   --> A              
     e( 13 - 13) =     30.57846  eV     1   --> A              

 **************************************************************************

 **************************************************************************

                    xk=(   0.00000,   0.00000,   0.78000  )

     Band symmetry, C_1 (1)     point group:

     e(  1 -  1) =     -5.95849  eV     1   --> A              
     e(  2 -  2) =     -5.86065  eV     1   --> A              
     e(  3 -  3) =     -5.56635  eV     1   --> A              
     e(  4 -  5) =     -5.54378  eV     2   -->   2 A              
     e(  6 -  6) =      3.23194  eV     1   --> A              
     e(  7 -  7) =      9.74164  eV     1   --> A              
     e(  8 -  9) =     13.71813  eV     2   -->   2 A              
     e( 10 - 10) =     17.04995  eV     1   --> A              
     e( 11 - 11) =     18.11058  eV     1   --> A              
     e( 12 - 12) =     30.45098  eV     1   --> A              
     e( 13 - 13) =     30.76816  eV     1   --> A              

 **************************************************************************

 **************************************************************************

                    xk=(   0.00000,   0.00000,   0.80000  )

     Band symmetry, C_1 (1)     point group:

     e(  1 -  1) =     -5.96160  eV     1   --> A              
     e(  2 -  2) =     -5.86535  eV     1   --> A              
     e(  3 -  3) =     -5.56396  eV     1   --> A              
     e(  4 -  5) =     -5.53755  eV     2   -->   2 A              
     e(  6 -  6) =      3.39946  eV     1   --> A              
     e(  7 -  7) =      9.49739  eV     1   --> A              
     e(  8 -  9) =     13.65170  eV     2   -->   2 A              
     e( 10 - 10) =     16.97750  eV     1   --> A              
     e( 11 - 11) =     18.07683  eV     1   --> A              
     e( 12 - 12) =     30.47138  eV     1   --> A              
     e( 13 - 13) =     30.95684  eV     1   --> A              

 **************************************************************************

 **************************************************************************

                    xk=(   0.00000,   0.00000,   0.82000  )

     Band symmetry, C_1 (1)     point group:

     e(  1 -  1) =     -5.96445  eV     1   --> A              
     e(  2 -  2) =     -5.86967  eV     1   --> A              
     e(  3 -  3) =     -5.56177  eV     1   --> A              
     e(  4 -  5) =     -5.53181  eV     2   -->   2 A              
     e(  6 -  6) =      3.56503  eV     1   --> A              
     e(  7 -  7) =      9.26183  eV     1   --> A              
     e(  8 -  9) =     13.59140  eV     2   -->   2 A              
     e( 10 - 10) =     16.91261  eV     1   --> A              
     e( 11 - 11) =     18.04634  eV     1   --> A              
     e( 12 - 12) =     30.49055  eV     1   --> A              
     e( 13 - 13) =     31.14305  eV     1   --> A              

 **************************************************************************

 **************************************************************************

                    xk=(   0.00000,   0.00000,   0.84000  )

     Band symmetry, C_1 (1)     point group:

     e(  1 -  1) =     -5.96704  eV     1   --> A              
     e(  2 -  2) =     -5.87360  eV     1   --> A              
     e(  3 -  3) =     -5.55978  eV     1   --> A              
     e(  4 -  5) =     -5.52660  eV     2   -->   2 A              
     e(  6 -  6) =      3.72700  eV     1   --> A              
     e(  7 -  7) =      9.03674  eV     1   --> A              
     e(  8 -  9) =     13.53728  eV     2   -->   2 A              
     e( 10 - 10) =     16.85470  eV     1   --> A              
     e( 11 - 11) =     18.01906  eV     1   --> A              
     e( 12 - 12) =     30.50833  eV     1   --> A              
     e( 13 - 13) =     31.32497  eV     1   --> A              

 **************************************************************************

 **************************************************************************

                    xk=(   0.00000,   0.00000,   0.86000  )

     Band symmetry, C_1 (1)     point group:

     e(  1 -  1) =     -5.96934  eV     1   --> A              
     e(  2 -  2) =     -5.87712  eV     1   --> A              
     e(  3 -  3) =     -5.55801  eV     1   --> A              
     e(  4 -  5) =     -5.52195  eV     2   -->   2 A              
     e(  6 -  6) =      3.88338  eV     1   --> A              
     e(  7 -  7) =      8.82433  eV     1   --> A              
     e(  8 -  9) =     13.48939  eV     2   -->   2 A              
     e( 10 - 10) =     16.80436  eV     1   --> A              
     e( 11 - 11) =     17.99505  eV     1   --> A              
     e( 12 - 12) =     30.52452  eV     1   --> A              
     e( 13 - 13) =     31.50055  eV     1   --> A              

 **************************************************************************

 **************************************************************************

                    xk=(   0.00000,   0.00000,   0.88000  )

     Band symmetry, C_1 (1)     point group:

     e(  1 -  1) =     -5.97135  eV     1   --> A              
     e(  2 -  2) =     -5.88021  eV     1   --> A              
     e(  3 -  3) =     -5.55646  eV     1   --> A              
     e(  4 -  5) =     -5.51787  eV     2   -->   2 A              
     e(  6 -  6) =      4.03156  eV     1   --> A              
     e(  7 -  7) =      8.62732  eV     1   --> A              
     e(  8 -  9) =     13.44779  eV     2   -->   2 A              
     e( 10 - 10) =     16.76105  eV     1   --> A              
     e( 11 - 11) =     17.97425  eV     1   --> A              
     e( 12 - 12) =     30.53895  eV     1   --> A              
     e( 13 - 13) =     31.66693  eV     1   --> A              

 **************************************************************************

 **************************************************************************

                    xk=(   0.00000,   0.00000,   0.90000  )

     Band symmetry, C_1 (1)     point group:

     e(  1 -  1) =     -5.97307  eV     1   --> A              
     e(  2 -  2) =     -5.88285  eV     1   --> A              
     e(  3 -  3) =     -5.55514  eV     1   --> A              
     e(  4 -  5) =     -5.51439  eV     2   -->   2 A              
     e(  6 -  6) =      4.16834  eV     1   --> A              
     e(  7 -  7) =      8.44901  eV     1   --> A              
     e(  8 -  9) =     13.41252  eV     2   -->   2 A              
     e( 10 - 10) =     16.72428  eV     1   --> A              
     e( 11 - 11) =     17.95667  eV     1   --> A              
     e( 12 - 12) =     30.55147  eV     1   --> A              
     e( 13 - 13) =     31.82061  eV     1   --> A              

 **************************************************************************

 **************************************************************************

                    xk=(   0.00000,   0.00000,   0.92000  )

     Band symmetry, C_1 (1)     point group:

     e(  1 -  1) =     -5.97448  eV     1   --> A              
     e(  2 -  2) =     -5.88503  eV     1   --> A              
     e(  3 -  3) =     -5.55405  eV     1   --> A              
     e(  4 -  5) =     -5.51152  eV     2   -->   2 A              
     e(  6 -  6) =      4.28987  eV     1   --> A              
     e(  7 -  7) =      8.29338  eV     1   --> A              
     e(  8 -  9) =     13.38362  eV     2   -->   2 A              
     e( 10 - 10) =     16.69466  eV     1   --> A              
     e( 11 - 11) =     17.94267  eV     1   --> A              
     e( 12 - 12) =     30.56195  eV     1   --> A              
     e( 13 - 13) =     31.95735  eV     1   --> A              

 **************************************************************************

 **************************************************************************

                    xk=(   0.00000,   0.00000,   0.94000  )

     Band symmetry, C_1 (1)     point group:

     e(  1 -  1) =     -5.97559  eV     1   --> A              
     e(  2 -  2) =     -5.88673  eV     1   --> A              
     e(  3 -  3) =     -5.55320  eV     1   --> A              
     e(  4 -  5) =     -5.50927  eV     2   -->   2 A              
     e(  6 -  6) =      4.39170  eV     1   --> A              
     e(  7 -  7) =      8.16495  eV     1   --> A              
     e(  8 -  9) =     13.36110  eV     2   -->   2 A              
     e( 10 - 10) =     16.67170  eV     1   --> A              
     e( 11 - 11) =     17.93150  eV     1   --> A              
     e( 12 - 12) =     30.57022  eV     1   --> A              
     e( 13 - 13) =     32.07208  eV     1   --> A              

 **************************************************************************

 **************************************************************************

                    xk=(   0.00000,   0.00000,   0.96000  )

     Band symmetry, C_1 (1)     point group:

     e(  1 -  1) =     -5.97638  eV     1   --> A              
     e(  2 -  2) =     -5.88796  eV     1   --> A              
     e(  3 -  3) =     -5.55259  eV     1   --> A              
     e(  4 -  5) =     -5.50766  eV     2   -->   2 A              
     e(  6 -  6) =      4.46908  eV     1   --> A              
     e(  7 -  7) =      8.06852  eV     1   --> A              
     e(  8 -  9) =     13.34500  eV     2   -->   2 A              
     e( 10 - 10) =     16.65536  eV     1   --> A              
     e( 11 - 11) =     17.92352  eV     1   --> A              
     e( 12 - 12) =     30.57620  eV     1   --> A              
     e( 13 - 13) =     32.15944  eV     1   --> A              

 **************************************************************************

 **************************************************************************

                    xk=(   0.00000,   0.00000,   0.98000  )

     Band symmetry, C_1 (1)     point group:

     e(  1 -  1) =     -5.97686  eV     1   --> A              
     e(  2 -  2) =     -5.88869  eV     1   --> A              
     e(  3 -  3) =     -5.55222  eV     1   --> A              
     e(  4 -  5) =     -5.50668  eV     2   -->   2 A              
     e(  6 -  6) =      4.51766  eV     1   --> A              
     e(  7 -  7) =      8.00850  eV     1   --> A              
     e(  8 -  9) =     13.33534  eV     2   -->   2 A              
     e( 10 - 10) =     16.64557  eV     1   --> A              
     e( 11 - 11) =     17.91874  eV     1   --> A              
     e( 12 - 12) =     30.57982  eV     1   --> A              
     e( 13 - 13) =     32.21437  eV     1   --> A              

 **************************************************************************

 **************************************************************************

                    xk=(   0.00000,   0.00000,   1.00000  )

     Band symmetry, C_1 (1)     point group:

     e(  1 -  1) =     -5.97702  eV     1   --> A              
     e(  2 -  2) =     -5.88894  eV     1   --> A              
     e(  3 -  3) =     -5.55210  eV     1   --> A              
     e(  4 -  5) =     -5.50636  eV     2   -->   2 A              
     e(  6 -  6) =      4.53424  eV     1   --> A              
     e(  7 -  7) =      7.98811  eV     1   --> A              
     e(  8 -  9) =     13.33211  eV     2   -->   2 A              
     e( 10 - 10) =     16.64231  eV     1   --> A              
     e( 11 - 11) =     17.91715  eV     1   --> A              
     e( 12 - 12) =     30.58103  eV     1   --> A              
     e( 13 - 13) =     32.23314  eV     1   --> A              

 **************************************************************************

 **************************************************************************

                    xk=(   0.00000,   0.01000,   1.00000  )

     Band symmetry, C_1 (1)     point group:

     e(  1 -  1) =     -5.97691  eV     1   --> A              
     e(  2 -  2) =     -5.88887  eV     1   --> A              
     e(  3 -  3) =     -5.55215  eV     1   --> A              
     e(  4 -  4) =     -5.50649  eV     1   --> A              
     e(  5 -  5) =     -5.50636  eV     1   --> A              
     e(  6 -  6) =      4.53434  eV     1   --> A              
     e(  7 -  7) =      7.98892  eV     1   --> A              
     e(  8 -  9) =     13.32877  eV     2   -->   2 A              
     e( 10 - 10) =     16.64736  eV     1   --> A              
     e( 11 - 11) =     17.92137  eV     1   --> A              
     e( 12 - 12) =     30.57717  eV     1   --> A              
     e( 13 - 13) =     32.22066  eV     1   --> A              

 **************************************************************************

 **************************************************************************

                    xk=(   0.00000,   0.02000,   1.00000  )

     Band symmetry, C_1 (1)     point group:

     e(  1 -  1) =     -5.97660  eV     1   --> A              
     e(  2 -  2) =     -5.88868  eV     1   --> A              
     e(  3 -  3) =     -5.55232  eV     1   --> A              
     e(  4 -  4) =     -5.50688  eV     1   --> A              
     e(  5 -  5) =     -5.50636  eV     1   --> A              
     e(  6 -  6) =      4.53464  eV     1   --> A              
     e(  7 -  7) =      7.99135  eV     1   --> A              
     e(  8 -  8) =     13.31876  eV     1   --> A              
     e(  9 -  9) =     13.31914  eV     1   --> A              
     e( 10 - 10) =     16.66243  eV     1   --> A              
     e( 11 - 11) =     17.93402  eV     1   --> A              
     e( 12 - 12) =     30.56548  eV     1   --> A              
     e( 13 - 13) =     32.18351  eV     1   --> A              

 **************************************************************************

 **************************************************************************

                    xk=(   0.00000,   0.03000,   1.00000  )

     Band symmetry, C_1 (1)     point group:

     e(  1 -  1) =     -5.97607  eV     1   --> A              
     e(  2 -  2) =     -5.88835  eV     1   --> A              
     e(  3 -  3) =     -5.55260  eV     1   --> A              
     e(  4 -  4) =     -5.50752  eV     1   --> A              
     e(  5 -  5) =     -5.50636  eV     1   --> A              
     e(  6 -  6) =      4.53514  eV     1   --> A              
     e(  7 -  7) =      7.99540  eV     1   --> A              
     e(  8 -  8) =     13.30221  eV     1   --> A              
     e(  9 -  9) =     13.30316  eV     1   --> A              
     e( 10 - 10) =     16.68735  eV     1   --> A              
     e( 11 - 11) =     17.95498  eV     1   --> A              
     e( 12 - 12) =     30.54562  eV     1   --> A              
     e( 13 - 13) =     32.12304  eV     1   --> A              

 **************************************************************************

 **************************************************************************

                    xk=(   0.00000,   0.04000,   1.00000  )

     Band symmetry, C_1 (1)     point group:

     e(  1 -  1) =     -5.97534  eV     1   --> A              
     e(  2 -  2) =     -5.88789  eV     1   --> A              
     e(  3 -  3) =     -5.55299  eV     1   --> A              
     e(  4 -  4) =     -5.50843  eV     1   --> A              
     e(  5 -  5) =     -5.50636  eV     1   --> A              
     e(  6 -  6) =      4.53583  eV     1   --> A              
     e(  7 -  7) =      8.00107  eV     1   --> A              
     e(  8 -  8) =     13.27929  eV     1   --> A              
     e(  9 -  9) =     13.28122  eV     1   --> A              
     e( 10 - 10) =     16.72181  eV     1   --> A              
     e( 11 - 11) =     17.98407  eV     1   --> A              
     e( 12 - 12) =     30.51706  eV     1   --> A              
     e( 13 - 13) =     32.04104  eV     1   --> A              

 **************************************************************************

 **************************************************************************

                    xk=(   0.00000,   0.05000,   1.00000  )

     Band symmetry, C_1 (1)     point group:

     e(  1 -  1) =     -5.97440  eV     1   --> A              
     e(  2 -  2) =     -5.88730  eV     1   --> A              
     e(  3 -  3) =     -5.55349  eV     1   --> A              
     e(  4 -  4) =     -5.50959  eV     1   --> A              
     e(  5 -  5) =     -5.50636  eV     1   --> A              
     e(  6 -  6) =      4.53672  eV     1   --> A              
     e(  7 -  7) =      8.00835  eV     1   --> A              
     e(  8 -  8) =     13.25024  eV     1   --> A              
     e(  9 -  9) =     13.25370  eV     1   --> A              
     e( 10 - 10) =     16.76532  eV     1   --> A              
     e( 11 - 11) =     18.02097  eV     1   --> A              
     e( 12 - 12) =     30.47912  eV     1   --> A              
     e( 13 - 13) =     31.93970  eV     1   --> A              

 **************************************************************************

 **************************************************************************

                    xk=(   0.00000,   0.06000,   1.00000  )

     Band symmetry, C_1 (1)     point group:

     e(  1 -  1) =     -5.97326  eV     1   --> A              
     e(  2 -  2) =     -5.88658  eV     1   --> A              
     e(  3 -  3) =     -5.55410  eV     1   --> A              
     e(  4 -  4) =     -5.51100  eV     1   --> A              
     e(  5 -  5) =     -5.50636  eV     1   --> A              
     e(  6 -  6) =      4.53780  eV     1   --> A              
     e(  7 -  7) =      8.01725  eV     1   --> A              
     e(  8 -  8) =     13.21537  eV     1   --> A              
     e(  9 -  9) =     13.22107  eV     1   --> A              
     e( 10 - 10) =     16.81761  eV     1   --> A              
     e( 11 - 11) =     18.06536  eV     1   --> A              
     e( 12 - 12) =     30.43104  eV     1   --> A              
     e( 13 - 13) =     31.82145  eV     1   --> A              

 **************************************************************************

 **************************************************************************

                    xk=(   0.00000,   0.07000,   1.00000  )

     Band symmetry, C_1 (1)     point group:

     e(  1 -  1) =     -5.97190  eV     1   --> A              
     e(  2 -  2) =     -5.88573  eV     1   --> A              
     e(  3 -  3) =     -5.55482  eV     1   --> A              
     e(  4 -  4) =     -5.51267  eV     1   --> A              
     e(  5 -  5) =     -5.50636  eV     1   --> A              
     e(  6 -  6) =      4.53907  eV     1   --> A              
     e(  7 -  7) =      8.02776  eV     1   --> A              
     e(  8 -  8) =     13.17499  eV     1   --> A              
     e(  9 -  9) =     13.18384  eV     1   --> A              
     e( 10 - 10) =     16.87808  eV     1   --> A              
     e( 11 - 11) =     18.11720  eV     1   --> A              
     e( 12 - 12) =     30.37213  eV     1   --> A              
     e( 13 - 13) =     31.68861  eV     1   --> A              

 **************************************************************************

 **************************************************************************

                    xk=(   0.00000,   0.08000,   1.00000  )

     Band symmetry, C_1 (1)     point group:

     e(  1 -  1) =     -5.97034  eV     1   --> A              
     e(  2 -  2) =     -5.88476  eV     1   --> A              
     e(  3 -  3) =     -5.55564  eV     1   --> A              
     e(  4 -  4) =     -5.51458  eV     1   --> A              
     e(  5 -  5) =     -5.50636  eV     1   --> A              
     e(  6 -  6) =      4.54053  eV     1   --> A              
     e(  7 -  7) =      8.03988  eV     1   --> A              
     e(  8 -  8) =     13.12947  eV     1   --> A              
     e(  9 -  9) =     13.14252  eV     1   --> A              
     e( 10 - 10) =     16.94622  eV     1   --> A              
     e( 11 - 11) =     18.17594  eV     1   --> A              
     e( 12 - 12) =     30.30183  eV     1   --> A              
     e( 13 - 13) =     31.54332  eV     1   --> A              

 **************************************************************************

 **************************************************************************

                    xk=(   0.00000,   0.09000,   1.00000  )

     Band symmetry, C_1 (1)     point group:

     e(  1 -  1) =     -5.96858  eV     1   --> A              
     e(  2 -  2) =     -5.88367  eV     1   --> A              
     e(  3 -  3) =     -5.55657  eV     1   --> A              
     e(  4 -  4) =     -5.51675  eV     1   --> A              
     e(  5 -  5) =     -5.50636  eV     1   --> A              
     e(  6 -  6) =      4.54216  eV     1   --> A              
     e(  7 -  7) =      8.05360  eV     1   --> A              
     e(  8 -  8) =     13.07919  eV     1   --> A              
     e(  9 -  9) =     13.09764  eV     1   --> A              
     e( 10 - 10) =     17.02148  eV     1   --> A              
     e( 11 - 11) =     18.24122  eV     1   --> A              
     e( 12 - 12) =     30.21985  eV     1   --> A              
     e( 13 - 13) =     31.38753  eV     1   --> A              

 **************************************************************************

 **************************************************************************

                    xk=(   0.00000,   0.10000,   1.00000  )

     Band symmetry, C_1 (1)     point group:

     e(  1 -  1) =     -5.96661  eV     1   --> A              
     e(  2 -  2) =     -5.88245  eV     1   --> A              
     e(  3 -  3) =     -5.55761  eV     1   --> A              
     e(  4 -  4) =     -5.51916  eV     1   --> A              
     e(  5 -  5) =     -5.50636  eV     1   --> A              
     e(  6 -  6) =      4.54397  eV     1   --> A              
     e(  7 -  7) =      8.06892  eV     1   --> A              
     e(  8 -  8) =     13.02452  eV     1   --> A              
     e(  9 -  9) =     13.04973  eV     1   --> A              
     e( 10 - 10) =     17.10336  eV     1   --> A              
     e( 11 - 11) =     18.31266  eV     1   --> A              
     e( 12 - 12) =     30.12626  eV     1   --> A              
     e( 13 - 13) =     31.22293  eV     1   --> A              

 **************************************************************************

 **************************************************************************

                    xk=(   0.00000,   0.11000,   1.00000  )

     Band symmetry, C_1 (1)     point group:

     e(  1 -  1) =     -5.96445  eV     1   --> A              
     e(  2 -  2) =     -5.88111  eV     1   --> A              
     e(  3 -  3) =     -5.55874  eV     1   --> A              
     e(  4 -  4) =     -5.52181  eV     1   --> A              
     e(  5 -  5) =     -5.50635  eV     1   --> A              
     e(  6 -  6) =      4.54594  eV     1   --> A              
     e(  7 -  7) =      8.08584  eV     1   --> A              
     e(  8 -  8) =     12.96582  eV     1   --> A              
     e(  9 -  9) =     12.99926  eV     1   --> A              
     e( 10 - 10) =     17.19128  eV     1   --> A              
     e( 11 - 11) =     18.38941  eV     1   --> A              
     e( 12 - 12) =     30.02140  eV     1   --> A              
     e( 13 - 13) =     31.05085  eV     1   --> A              

 **************************************************************************

 **************************************************************************

                    xk=(   0.00000,   0.12000,   1.00000  )

     Band symmetry, C_1 (1)     point group:

     e(  1 -  1) =     -5.96208  eV     1   --> A              
     e(  2 -  2) =     -5.87966  eV     1   --> A              
     e(  3 -  3) =     -5.55998  eV     1   --> A              
     e(  4 -  4) =     -5.52470  eV     1   --> A              
     e(  5 -  5) =     -5.50635  eV     1   --> A              
     e(  6 -  6) =      4.54808  eV     1   --> A              
     e(  7 -  7) =      8.10434  eV     1   --> A              
     e(  8 -  8) =     12.90351  eV     1   --> A              
     e(  9 -  9) =     12.94670  eV     1   --> A              
     e( 10 - 10) =     17.28494  eV     1   --> A              
     e( 11 - 11) =     18.47205  eV     1   --> A              
     e( 12 - 12) =     29.90614  eV     1   --> A              
     e( 13 - 13) =     30.87276  eV     1   --> A              

 **************************************************************************

 **************************************************************************

                    xk=(  -0.00000,   0.13000,   1.00000  )

     Band symmetry, C_1 (1)     point group:

     e(  1 -  1) =     -5.95951  eV     1   --> A              
     e(  2 -  2) =     -5.87810  eV     1   --> A              
     e(  3 -  3) =     -5.56132  eV     1   --> A              
     e(  4 -  4) =     -5.52782  eV     1   --> A              
     e(  5 -  5) =     -5.50635  eV     1   --> A              
     e(  6 -  6) =      4.55037  eV     1   --> A              
     e(  7 -  7) =      8.12443  eV     1   --> A              
     e(  8 -  8) =     12.83792  eV     1   --> A              
     e(  9 -  9) =     12.89249  eV     1   --> A              
     e( 10 - 10) =     17.38383  eV     1   --> A              
     e( 11 - 11) =     18.55974  eV     1   --> A              
     e( 12 - 12) =     29.78136  eV     1   --> A              
     e( 13 - 13) =     30.68960  eV     1   --> A              

 **************************************************************************

 **************************************************************************

                    xk=(   0.00000,   0.14000,   1.00000  )

     Band symmetry, C_1 (1)     point group:

     e(  1 -  1) =     -5.95674  eV     1   --> A              
     e(  2 -  2) =     -5.87642  eV     1   --> A              
     e(  3 -  3) =     -5.56275  eV     1   --> A              
     e(  4 -  4) =     -5.53118  eV     1   --> A              
     e(  5 -  5) =     -5.50635  eV     1   --> A              
     e(  6 -  6) =      4.55280  eV     1   --> A              
     e(  7 -  7) =      8.14610  eV     1   --> A              
     e(  8 -  8) =     12.76939  eV     1   --> A              
     e(  9 -  9) =     12.83700  eV     1   --> A              
     e( 10 - 10) =     17.48756  eV     1   --> A              
     e( 11 - 11) =     18.65214  eV     1   --> A              
     e( 12 - 12) =     29.64814  eV     1   --> A              
     e( 13 - 13) =     30.50224  eV     1   --> A              

 **************************************************************************

 **************************************************************************

                    xk=(  -0.00000,   0.15000,   1.00000  )

     Band symmetry, C_1 (1)     point group:

     e(  1 -  1) =     -5.95378  eV     1   --> A              
     e(  2 -  2) =     -5.87464  eV     1   --> A              
     e(  3 -  3) =     -5.56428  eV     1   --> A              
     e(  4 -  4) =     -5.53476  eV     1   --> A              
     e(  5 -  5) =     -5.50635  eV     1   --> A              
     e(  6 -  6) =      4.55538  eV     1   --> A              
     e(  7 -  7) =      8.16934  eV     1   --> A              
     e(  8 -  8) =     12.69824  eV     1   --> A              
     e(  9 -  9) =     12.78060  eV     1   --> A              
     e( 10 - 10) =     17.59577  eV     1   --> A              
     e( 11 - 11) =     18.74895  eV     1   --> A              
     e( 12 - 12) =     29.50758  eV     1   --> A              
     e( 13 - 13) =     30.31144  eV     1   --> A              

 **************************************************************************

 **************************************************************************

                    xk=(  -0.00000,   0.16000,   1.00000  )

     Band symmetry, C_1 (1)     point group:

     e(  1 -  1) =     -5.95063  eV     1   --> A              
     e(  2 -  2) =     -5.87275  eV     1   --> A              
     e(  3 -  3) =     -5.56589  eV     1   --> A              
     e(  4 -  4) =     -5.53856  eV     1   --> A              
     e(  5 -  5) =     -5.50635  eV     1   --> A              
     e(  6 -  6) =      4.55808  eV     1   --> A              
     e(  7 -  7) =      8.19414  eV     1   --> A              
     e(  8 -  8) =     12.62480  eV     1   --> A              
     e(  9 -  9) =     12.72363  eV     1   --> A              
     e( 10 - 10) =     17.70824  eV     1   --> A              
     e( 11 - 11) =     18.85030  eV     1   --> A              
     e( 12 - 12) =     29.36075  eV     1   --> A              
     e( 13 - 13) =     30.11792  eV     1   --> A              

 **************************************************************************

 **************************************************************************

                    xk=(  -0.00000,   0.17000,   1.00000  )

     Band symmetry, C_1 (1)     point group:

     e(  1 -  1) =     -5.94728  eV     1   --> A              
     e(  2 -  2) =     -5.87077  eV     1   --> A              
     e(  3 -  3) =     -5.56760  eV     1   --> A              
     e(  4 -  4) =     -5.54258  eV     1   --> A              
     e(  5 -  5) =     -5.50635  eV     1   --> A              
     e(  6 -  6) =      4.56090  eV     1   --> A              
     e(  7 -  7) =      8.22050  eV     1   --> A              
     e(  8 -  8) =     12.54930  eV     1   --> A              
     e(  9 -  9) =     12.66635  eV     1   --> A              
     e( 10 - 10) =     17.82444  eV     1   --> A              
     e( 11 - 11) =     18.95504  eV     1   --> A              
     e( 12 - 12) =     29.20857  eV     1   --> A              
     e( 13 - 13) =     29.92201  eV     1   --> A              

 **************************************************************************

 **************************************************************************

                    xk=(  -0.00000,   0.18000,   1.00000  )

     Band symmetry, C_1 (1)     point group:

     e(  1 -  1) =     -5.94375  eV     1   --> A              
     e(  2 -  2) =     -5.86869  eV     1   --> A              
     e(  3 -  3) =     -5.56939  eV     1   --> A              
     e(  4 -  4) =     -5.54681  eV     1   --> A              
     e(  5 -  5) =     -5.50635  eV     1   --> A              
     e(  6 -  6) =      4.56382  eV     1   --> A              
     e(  7 -  7) =      8.24841  eV     1   --> A              
     e(  8 -  8) =     12.47201  eV     1   --> A              
     e(  9 -  9) =     12.60903  eV     1   --> A              
     e( 10 - 10) =     17.94423  eV     1   --> A              
     e( 11 - 11) =     19.06335  eV     1   --> A              
     e( 12 - 12) =     29.05193  eV     1   --> A              
     e( 13 - 13) =     29.72427  eV     1   --> A              

 **************************************************************************

 **************************************************************************

                    xk=(  -0.00000,   0.19000,   1.00000  )

     Band symmetry, C_1 (1)     point group:

     e(  1 -  1) =     -5.94004  eV     1   --> A              
     e(  2 -  2) =     -5.86653  eV     1   --> A              
     e(  3 -  3) =     -5.57125  eV     1   --> A              
     e(  4 -  4) =     -5.55125  eV     1   --> A              
     e(  5 -  5) =     -5.50635  eV     1   --> A              
     e(  6 -  6) =      4.56685  eV     1   --> A              
     e(  7 -  7) =      8.27785  eV     1   --> A              
     e(  8 -  8) =     12.39317  eV     1   --> A              
     e(  9 -  9) =     12.55190  eV     1   --> A              
     e( 10 - 10) =     18.06732  eV     1   --> A              
     e( 11 - 11) =     19.17484  eV     1   --> A              
     e( 12 - 12) =     28.89158  eV     1   --> A              
     e( 13 - 13) =     29.52507  eV     1   --> A              

 **************************************************************************

 **************************************************************************

                    xk=(  -0.00000,   0.20000,   1.00000  )

     Band symmetry, C_1 (1)     point group:

     e(  1 -  1) =     -5.93614  eV     1   --> A              
     e(  2 -  2) =     -5.86428  eV     1   --> A              
     e(  3 -  3) =     -5.57320  eV     1   --> A              
     e(  4 -  4) =     -5.55588  eV     1   --> A              
     e(  5 -  5) =     -5.50634  eV     1   --> A              
     e(  6 -  6) =      4.56996  eV     1   --> A              
     e(  7 -  7) =      8.30883  eV     1   --> A              
     e(  8 -  8) =     12.31305  eV     1   --> A              
     e(  9 -  9) =     12.49521  eV     1   --> A              
     e( 10 - 10) =     18.19364  eV     1   --> A              
     e( 11 - 11) =     19.29002  eV     1   --> A              
     e( 12 - 12) =     28.72815  eV     1   --> A              
     e( 13 - 13) =     29.32482  eV     1   --> A              

 **************************************************************************

 **************************************************************************

                    xk=(  -0.00000,   0.21000,   1.00000  )

     Band symmetry, C_1 (1)     point group:

     e(  1 -  1) =     -5.93206  eV     1   --> A              
     e(  2 -  2) =     -5.86195  eV     1   --> A              
     e(  3 -  3) =     -5.57521  eV     1   --> A              
     e(  4 -  4) =     -5.56072  eV     1   --> A              
     e(  5 -  5) =     -5.50634  eV     1   --> A              
     e(  6 -  6) =      4.57315  eV     1   --> A              
     e(  7 -  7) =      8.34132  eV     1   --> A              
     e(  8 -  8) =     12.23177  eV     1   --> A              
     e(  9 -  9) =     12.43911  eV     1   --> A              
     e( 10 - 10) =     18.32280  eV     1   --> A              
     e( 11 - 11) =     19.40773  eV     1   --> A              
     e( 12 - 12) =     28.56220  eV     1   --> A              
     e( 13 - 13) =     29.12373  eV     1   --> A              

 **************************************************************************

 **************************************************************************

                    xk=(  -0.00000,   0.22000,   1.00000  )

     Band symmetry, C_1 (1)     point group:

     e(  1 -  1) =     -5.92780  eV     1   --> A              
     e(  2 -  2) =     -5.85955  eV     1   --> A              
     e(  3 -  3) =     -5.57730  eV     1   --> A              
     e(  4 -  4) =     -5.56574  eV     1   --> A              
     e(  5 -  5) =     -5.50634  eV     1   --> A              
     e(  6 -  6) =      4.57640  eV     1   --> A              
     e(  7 -  7) =      8.37533  eV     1   --> A              
     e(  8 -  8) =     12.14955  eV     1   --> A              
     e(  9 -  9) =     12.38375  eV     1   --> A              
     e( 10 - 10) =     18.45462  eV     1   --> A              
     e( 11 - 11) =     19.52814  eV     1   --> A              
     e( 12 - 12) =     28.39419  eV     1   --> A              
     e( 13 - 13) =     28.92195  eV     1   --> A              

 **************************************************************************

 **************************************************************************

                    xk=(  -0.00000,   0.23000,   1.00000  )

     Band symmetry, C_1 (1)     point group:

     e(  1 -  1) =     -5.92337  eV     1   --> A              
     e(  2 -  2) =     -5.85709  eV     1   --> A              
     e(  3 -  3) =     -5.57944  eV     1   --> A              
     e(  4 -  4) =     -5.57094  eV     1   --> A              
     e(  5 -  5) =     -5.50634  eV     1   --> A              
     e(  6 -  6) =      4.57970  eV     1   --> A              
     e(  7 -  7) =      8.41084  eV     1   --> A              
     e(  8 -  8) =     12.06655  eV     1   --> A              
     e(  9 -  9) =     12.32935  eV     1   --> A              
     e( 10 - 10) =     18.58905  eV     1   --> A              
     e( 11 - 11) =     19.65119  eV     1   --> A              
     e( 12 - 12) =     28.22451  eV     1   --> A              
     e( 13 - 13) =     28.72001  eV     1   --> A              

 **************************************************************************

 **************************************************************************

                    xk=(   0.00000,   0.24000,   1.00000  )

     Band symmetry, C_1 (1)     point group:

     e(  1 -  1) =     -5.91878  eV     1   --> A              
     e(  2 -  2) =     -5.85456  eV     1   --> A              
     e(  3 -  3) =     -5.58165  eV     1   --> A              
     e(  4 -  4) =     -5.57632  eV     1   --> A              
     e(  5 -  5) =     -5.50634  eV     1   --> A              
     e(  6 -  6) =      4.58304  eV     1   --> A              
     e(  7 -  7) =      8.44784  eV     1   --> A              
     e(  8 -  8) =     11.98293  eV     1   --> A              
     e(  9 -  9) =     12.27604  eV     1   --> A              
     e( 10 - 10) =     18.72587  eV     1   --> A              
     e( 11 - 11) =     19.77667  eV     1   --> A              
     e( 12 - 12) =     28.05351  eV     1   --> A              
     e( 13 - 13) =     28.51797  eV     1   --> A              

 **************************************************************************

 **************************************************************************

                    xk=(   0.00000,   0.25000,   1.00000  )

     Band symmetry, C_1 (1)     point group:

     e(  1 -  1) =     -5.91401  eV     1   --> A              
     e(  2 -  2) =     -5.85199  eV     1   --> A              
     e(  3 -  3) =     -5.58390  eV     1   --> A              
     e(  4 -  4) =     -5.58186  eV     1   --> A              
     e(  5 -  5) =     -5.50634  eV     1   --> A              
     e(  6 -  6) =      4.58641  eV     1   --> A              
     e(  7 -  7) =      8.48632  eV     1   --> A              
     e(  8 -  8) =     11.89883  eV     1   --> A              
     e(  9 -  9) =     12.22392  eV     1   --> A              
     e( 10 - 10) =     18.86489  eV     1   --> A              
     e( 11 - 11) =     19.90446  eV     1   --> A              
     e( 12 - 12) =     27.88143  eV     1   --> A              
     e( 13 - 13) =     28.31590  eV     1   --> A              

 **************************************************************************

 **************************************************************************

                    xk=(   0.00000,   0.26000,   1.00000  )

     Band symmetry, C_1 (1)     point group:

     e(  1 -  1) =     -5.90908  eV     1   --> A              
     e(  2 -  2) =     -5.84936  eV     1   --> A              
     e(  3 -  3) =     -5.58757  eV     1   --> A              
     e(  4 -  4) =     -5.58620  eV     1   --> A              
     e(  5 -  5) =     -5.50634  eV     1   --> A              
     e(  6 -  6) =      4.58979  eV     1   --> A              
     e(  7 -  7) =      8.52626  eV     1   --> A              
     e(  8 -  8) =     11.81437  eV     1   --> A              
     e(  9 -  9) =     12.17313  eV     1   --> A              
     e( 10 - 10) =     19.00603  eV     1   --> A              
     e( 11 - 11) =     20.03442  eV     1   --> A              
     e( 12 - 12) =     27.70859  eV     1   --> A              
     e( 13 - 13) =     28.11422  eV     1   --> A              

 **************************************************************************

 **************************************************************************

                    xk=(   0.00000,   0.27000,   1.00000  )

     Band symmetry, C_1 (1)     point group:

     e(  1 -  1) =     -5.90399  eV     1   --> A              
     e(  2 -  2) =     -5.84670  eV     1   --> A              
     e(  3 -  3) =     -5.59344  eV     1   --> A              
     e(  4 -  4) =     -5.58853  eV     1   --> A              
     e(  5 -  5) =     -5.50633  eV     1   --> A              
     e(  6 -  6) =      4.59317  eV     1   --> A              
     e(  7 -  7) =      8.56767  eV     1   --> A              
     e(  8 -  8) =     11.72975  eV     1   --> A              
     e(  9 -  9) =     12.12379  eV     1   --> A              
     e( 10 - 10) =     19.14919  eV     1   --> A              
     e( 11 - 11) =     20.16694  eV     1   --> A              
     e( 12 - 12) =     27.53536  eV     1   --> A              
     e( 13 - 13) =     27.91299  eV     1   --> A              

 **************************************************************************

 **************************************************************************

[...]

 **************************************************************************

 **************************************************************************

                    xk=(   0.66000,   0.00000,   0.66000  )

     Band symmetry, C_1 (1)     point group:

     e(  1 -  1) =     -5.86697  eV     1   --> A              
     e(  2 -  2) =     -5.70644  eV     1   --> A              
     e(  3 -  3) =     -5.66956  eV     1   --> A              
     e(  4 -  4) =     -5.64582  eV     1   --> A              
     e(  5 -  5) =     -5.58103  eV     1   --> A              
     e(  6 -  6) =      4.04281  eV     1   --> A              
     e(  7 -  7) =      9.42560  eV     1   --> A              
     e(  8 -  8) =      9.78202  eV     1   --> A              
     e(  9 -  9) =     14.99295  eV     1   --> A              
     e( 10 - 10) =     18.26324  eV     1   --> A              
     e( 11 - 11) =     25.42293  eV     1   --> A              
     e( 12 - 12) =     26.77999  eV     1   --> A              
     e( 13 - 13) =     27.05708  eV     1   --> A              

 **************************************************************************

 **************************************************************************

                    xk=(   0.68000,   0.00000,   0.68000  )

     Band symmetry, C_1 (1)     point group:

     e(  1 -  1) =     -5.87396  eV     1   --> A              
     e(  2 -  2) =     -5.72375  eV     1   --> A              
     e(  3 -  3) =     -5.65567  eV     1   --> A              
     e(  4 -  4) =     -5.63817  eV     1   --> A              
     e(  5 -  5) =     -5.57307  eV     1   --> A              
     e(  6 -  6) =      4.16810  eV     1   --> A              
     e(  7 -  7) =      9.49273  eV     1   --> A              
     e(  8 -  8) =      9.58438  eV     1   --> A              
     e(  9 -  9) =     14.81346  eV     1   --> A              
     e( 10 - 10) =     18.13847  eV     1   --> A              
     e( 11 - 11) =     24.81085  eV     1   --> A              
     e( 12 - 12) =     27.12610  eV     1   --> A              
     e( 13 - 13) =     27.27651  eV     1   --> A              

 **************************************************************************

 **************************************************************************

                    xk=(   0.70000,   0.00000,   0.70000  )

     Band symmetry, C_1 (1)     point group:

     e(  1 -  1) =     -5.88102  eV     1   --> A              
     e(  2 -  2) =     -5.74142  eV     1   --> A              
     e(  3 -  3) =     -5.64167  eV     1   --> A              
     e(  4 -  4) =     -5.63037  eV     1   --> A              
     e(  5 -  5) =     -5.56545  eV     1   --> A              
     e(  6 -  6) =      4.27330  eV     1   --> A              
     e(  7 -  7) =      9.39717  eV     1   --> A              
     e(  8 -  8) =      9.59988  eV     1   --> A              
     e(  9 -  9) =     14.64241  eV     1   --> A              
     e( 10 - 10) =     18.02128  eV     1   --> A              
     e( 11 - 11) =     24.20375  eV     1   --> A              
     e( 12 - 12) =     27.47874  eV     1   --> A              
     e( 13 - 13) =     27.50278  eV     1   --> A              

 **************************************************************************

 **************************************************************************

                    xk=(   0.72000,   0.00000,   0.72000  )

     Band symmetry, C_1 (1)     point group:

     e(  1 -  1) =     -5.88815  eV     1   --> A              
     e(  2 -  2) =     -5.75916  eV     1   --> A              
     e(  3 -  3) =     -5.62768  eV     1   --> A              
     e(  4 -  4) =     -5.62250  eV     1   --> A              
     e(  5 -  5) =     -5.55821  eV     1   --> A              
     e(  6 -  6) =      4.35861  eV     1   --> A              
     e(  7 -  7) =      9.22063  eV     1   --> A              
     e(  8 -  8) =      9.74607  eV     1   --> A              
     e(  9 -  9) =     14.48030  eV     1   --> A              
     e( 10 - 10) =     17.91139  eV     1   --> A              
     e( 11 - 11) =     23.60362  eV     1   --> A              
     e( 12 - 12) =     27.73561  eV     1   --> A              
     e( 13 - 13) =     27.83766  eV     1   --> A              

 **************************************************************************

 **************************************************************************

                    xk=(   0.74000,   0.00000,   0.74000  )

     Band symmetry, C_1 (1)     point group:

     e(  1 -  1) =     -5.89539  eV     1   --> A              
     e(  2 -  2) =     -5.77667  eV     1   --> A              
     e(  3 -  3) =     -5.61463  eV     1   --> A              
     e(  4 -  4) =     -5.61385  eV     1   --> A              
     e(  5 -  5) =     -5.55137  eV     1   --> A              
     e(  6 -  6) =      4.42516  eV     1   --> A              
     e(  7 -  7) =      9.05502  eV     1   --> A              
     e(  8 -  8) =      9.92931  eV     1   --> A              
     e(  9 -  9) =     14.32756  eV     1   --> A              
     e( 10 - 10) =     17.80850  eV     1   --> A              
     e( 11 - 11) =     23.01213  eV     1   --> A              
     e( 12 - 12) =     27.97440  eV     1   --> A              
     e( 13 - 13) =     28.20255  eV     1   --> A              

 **************************************************************************

 **************************************************************************

                    xk=(   0.76000,   0.00000,   0.76000  )

     Band symmetry, C_1 (1)     point group:

     e(  1 -  1) =     -5.90278  eV     1   --> A              
     e(  2 -  2) =     -5.79363  eV     1   --> A              
     e(  3 -  3) =     -5.60688  eV     1   --> A              
     e(  4 -  4) =     -5.60029  eV     1   --> A              
     e(  5 -  5) =     -5.54495  eV     1   --> A              
     e(  6 -  6) =      4.47482  eV     1   --> A              
     e(  7 -  7) =      8.90058  eV     1   --> A              
     e(  8 -  8) =     10.14667  eV     1   --> A              
     e(  9 -  9) =     14.18460  eV     1   --> A              
     e( 10 - 10) =     17.71214  eV     1   --> A              
     e( 11 - 11) =     22.43079  eV     1   --> A              
     e( 12 - 12) =     28.21850  eV     1   --> A              
     e( 13 - 13) =     28.57294  eV     1   --> A              

 **************************************************************************

 **************************************************************************

                    xk=(   0.78000,   0.00000,   0.78000  )

     Band symmetry, C_1 (1)     point group:

     e(  1 -  1) =     -5.91035  eV     1   --> A              
     e(  2 -  2) =     -5.80970  eV     1   --> A              
     e(  3 -  3) =     -5.59931  eV     1   --> A              
     e(  4 -  4) =     -5.58716  eV     1   --> A              
     e(  5 -  5) =     -5.53897  eV     1   --> A              
     e(  6 -  6) =      4.50998  eV     1   --> A              
     e(  7 -  7) =      8.75750  eV     1   --> A              
     e(  8 -  8) =     10.39456  eV     1   --> A              
     e(  9 -  9) =     14.05175  eV     1   --> A              
     e( 10 - 10) =     17.62205  eV     1   --> A              
     e( 11 - 11) =     21.86117  eV     1   --> A              
     e( 12 - 12) =     28.46687  eV     1   --> A              
     e( 13 - 13) =     28.94806  eV     1   --> A              

 **************************************************************************

 **************************************************************************

                    xk=(   0.80000,   0.00000,   0.80000  )

     Band symmetry, C_1 (1)     point group:

     e(  1 -  1) =     -5.91815  eV     1   --> A              
     e(  2 -  2) =     -5.82458  eV     1   --> A              
     e(  3 -  3) =     -5.59204  eV     1   --> A              
     e(  4 -  4) =     -5.57460  eV     1   --> A              
     e(  5 -  5) =     -5.53344  eV     1   --> A              
     e(  6 -  6) =      4.53317  eV     1   --> A              
     e(  7 -  7) =      8.62601  eV     1   --> A              
     e(  8 -  8) =     10.66898  eV     1   --> A              
     e(  9 -  9) =     13.92935  eV     1   --> A              
     e( 10 - 10) =     17.53710  eV     1   --> A              
     e( 11 - 11) =     21.30558  eV     1   --> A              
     e( 12 - 12) =     28.71833  eV     1   --> A              
     e( 13 - 13) =     29.32724  eV     1   --> A              

 **************************************************************************

 **************************************************************************

                    xk=(   0.82000,   0.00000,   0.82000  )

     Band symmetry, C_1 (1)     point group:

     e(  1 -  1) =     -5.92617  eV     1   --> A              
     e(  2 -  2) =     -5.83800  eV     1   --> A              
     e(  3 -  3) =     -5.58514  eV     1   --> A              
     e(  4 -  4) =     -5.56273  eV     1   --> A              
     e(  5 -  5) =     -5.52840  eV     1   --> A              
     e(  6 -  6) =      4.54691  eV     1   --> A              
     e(  7 -  7) =      8.50634  eV     1   --> A              
     e(  8 -  8) =     10.96548  eV     1   --> A              
     e(  9 -  9) =     13.81771  eV     1   --> A              
     e( 10 - 10) =     17.45640  eV     1   --> A              
     e( 11 - 11) =     20.76635  eV     1   --> A              
     e( 12 - 12) =     28.97120  eV     1   --> A              
     e( 13 - 13) =     29.70933  eV     1   --> A              

 **************************************************************************

 **************************************************************************

                    xk=(   0.84000,   0.00000,   0.84000  )

     Band symmetry, C_1 (1)     point group:

     e(  1 -  1) =     -5.93434  eV     1   --> A              
     e(  2 -  2) =     -5.84977  eV     1   --> A              
     e(  3 -  3) =     -5.57870  eV     1   --> A              
     e(  4 -  4) =     -5.55169  eV     1   --> A              
     e(  5 -  5) =     -5.52384  eV     1   --> A              
     e(  6 -  6) =      4.55354  eV     1   --> A              
     e(  7 -  7) =      8.39868  eV     1   --> A              
     e(  8 -  8) =     11.27941  eV     1   --> A              
     e(  9 -  9) =     13.71709  eV     1   --> A              
     e( 10 - 10) =     17.37845  eV     1   --> A              
     e( 11 - 11) =     20.24781  eV     1   --> A              
     e( 12 - 12) =     29.22326  eV     1   --> A              
     e( 13 - 13) =     30.09296  eV     1   --> A              

 **************************************************************************

 **************************************************************************

                    xk=(   0.86000,   0.00000,   0.86000  )

     Band symmetry, C_1 (1)     point group:

     e(  1 -  1) =     -5.94251  eV     1   --> A              
     e(  2 -  2) =     -5.85981  eV     1   --> A              
     e(  3 -  3) =     -5.57281  eV     1   --> A              
     e(  4 -  4) =     -5.54162  eV     1   --> A              
     e(  5 -  5) =     -5.51979  eV     1   --> A              
     e(  6 -  6) =      4.55508  eV     1   --> A              
     e(  7 -  7) =      8.30320  eV     1   --> A              
     e(  8 -  8) =     11.60539  eV     1   --> A              
     e(  9 -  9) =     13.62773  eV     1   --> A              
     e( 10 - 10) =     17.30082  eV     1   --> A              
     e( 11 - 11) =     19.75460  eV     1   --> A              
     e( 12 - 12) =     29.47156  eV     1   --> A              
     e( 13 - 13) =     30.47648  eV     1   --> A              

 **************************************************************************

 **************************************************************************

                    xk=(   0.88000,   0.00000,   0.88000  )

     Band symmetry, C_1 (1)     point group:

     e(  1 -  1) =     -5.95044  eV     1   --> A              
     e(  2 -  2) =     -5.86815  eV     1   --> A              
     e(  3 -  3) =     -5.56754  eV     1   --> A              
     e(  4 -  4) =     -5.53262  eV     1   --> A              
     e(  5 -  5) =     -5.51626  eV     1   --> A              
     e(  6 -  6) =      4.55330  eV     1   --> A              
     e(  7 -  7) =      8.22009  eV     1   --> A              
     e(  8 -  8) =     11.93725  eV     1   --> A              
     e(  9 -  9) =     13.54986  eV     1   --> A              
     e( 10 - 10) =     17.22000  eV     1   --> A              
     e( 11 - 11) =     19.29501  eV     1   --> A              
     e( 12 - 12) =     29.71194  eV     1   --> A              
     e( 13 - 13) =     30.85520  eV     1   --> A              

 **************************************************************************

 **************************************************************************

                    xk=(   0.90000,   0.00000,   0.90000  )

     Band symmetry, C_1 (1)     point group:

     e(  1 -  1) =     -5.95781  eV     1   --> A              
     e(  2 -  2) =     -5.87488  eV     1   --> A              
     e(  3 -  3) =     -5.56295  eV     1   --> A              
     e(  4 -  4) =     -5.52481  eV     1   --> A              
     e(  5 -  5) =     -5.51325  eV     1   --> A              
     e(  6 -  6) =      4.54961  eV     1   --> A              
     e(  7 -  7) =      8.14949  eV     1   --> A              
     e(  8 -  8) =     12.26701  eV     1   --> A              
     e(  9 -  9) =     13.48366  eV     1   --> A              
     e( 10 - 10) =     17.13082  eV     1   --> A              
     e( 11 - 11) =     18.88013  eV     1   --> A              
     e( 12 - 12) =     29.93917  eV     1   --> A              
     e( 13 - 13) =     31.20964  eV     1   --> A              

 **************************************************************************

 **************************************************************************

                    xk=(   0.92000,   0.00000,   0.92000  )

     Band symmetry, C_1 (1)     point group:

     e(  1 -  1) =     -5.96433  eV     1   --> A              
     e(  2 -  2) =     -5.88014  eV     1   --> A              
     e(  3 -  3) =     -5.55912  eV     1   --> A              
     e(  4 -  4) =     -5.51828  eV     1   --> A              
     e(  5 -  5) =     -5.51078  eV     1   --> A              
     e(  6 -  6) =      4.54517  eV     1   --> A              
     e(  7 -  7) =      8.09155  eV     1   --> A              
     e(  8 -  8) =     12.58403  eV     1   --> A              
     e(  9 -  9) =     13.42927  eV     1   --> A              
     e( 10 - 10) =     17.02712  eV     1   --> A              
     e( 11 - 11) =     18.52617  eV     1   --> A              
     e( 12 - 12) =     30.14604  eV     1   --> A              
     e( 13 - 13) =     31.52509  eV     1   --> A              

 **************************************************************************

 **************************************************************************

                    xk=(   0.94000,   0.00000,   0.94000  )

     Band symmetry, C_1 (1)     point group:

     e(  1 -  1) =     -5.96971  eV     1   --> A              
     e(  2 -  2) =     -5.88408  eV     1   --> A              
     e(  3 -  3) =     -5.55608  eV     1   --> A              
     e(  4 -  4) =     -5.51311  eV     1   --> A              
     e(  5 -  5) =     -5.50885  eV     1   --> A              
     e(  6 -  6) =      4.54085  eV     1   --> A              
     e(  7 -  7) =      8.04636  eV     1   --> A              
     e(  8 -  8) =     12.87296  eV     1   --> A              
     e(  9 -  9) =     13.38684  eV     1   --> A              
     e( 10 - 10) =     16.90679  eV     1   --> A              
     e( 11 - 11) =     18.24932  eV     1   --> A              
     e( 12 - 12) =     30.32377  eV     1   --> A              
     e( 13 - 13) =     31.80533  eV     1   --> A              

 **************************************************************************

 **************************************************************************

                    xk=(   0.96000,   0.00000,   0.96000  )

     Band symmetry, C_1 (1)     point group:

     e(  1 -  1) =     -5.97371  eV     1   --> A              
     e(  2 -  2) =     -5.88681  eV     1   --> A              
     e(  3 -  3) =     -5.55388  eV     1   --> A              
     e(  4 -  4) =     -5.50938  eV     1   --> A              
     e(  5 -  5) =     -5.50747  eV     1   --> A              
     e(  6 -  6) =      4.53732  eV     1   --> A              
     e(  7 -  7) =      8.01402  eV     1   --> A              
     e(  8 -  8) =     13.11222  eV     1   --> A              
     e(  9 -  9) =     13.35646  eV     1   --> A              
     e( 10 - 10) =     16.78137  eV     1   --> A              
     e( 11 - 11) =     18.05880  eV     1   --> A              
     e( 12 - 12) =     30.46207  eV     1   --> A              
     e( 13 - 13) =     32.03134  eV     1   --> A              

 **************************************************************************

 **************************************************************************

                    xk=(   0.98000,   0.00000,   0.98000  )

     Band symmetry, C_1 (1)     point group:

     e(  1 -  1) =     -5.97618  eV     1   --> A              
     e(  2 -  2) =     -5.88841  eV     1   --> A              
     e(  3 -  3) =     -5.55254  eV     1   --> A              
     e(  4 -  4) =     -5.50712  eV     1   --> A              
     e(  5 -  5) =     -5.50664  eV     1   --> A              
     e(  6 -  6) =      4.53503  eV     1   --> A              
     e(  7 -  7) =      7.99459  eV     1   --> A              
     e(  8 -  8) =     13.27420  eV     1   --> A              
     e(  9 -  9) =     13.33821  eV     1   --> A              
     e( 10 - 10) =     16.68119  eV     1   --> A              
     e( 11 - 11) =     17.95145  eV     1   --> A              
     e( 12 - 12) =     30.55051  eV     1   --> A              
     e( 13 - 13) =     32.18070  eV     1   --> A              

 **************************************************************************

 **************************************************************************

                    xk=(   1.00000,   0.00000,   1.00000  )

     Band symmetry, C_1 (1)     point group:

     e(  1 -  1) =     -5.97702  eV     1   --> A              
     e(  2 -  2) =     -5.88894  eV     1   --> A              
     e(  3 -  3) =     -5.55210  eV     1   --> A              
     e(  4 -  5) =     -5.50636  eV     2   -->   2 A              
     e(  6 -  6) =      4.53424  eV     1   --> A              
     e(  7 -  7) =      7.98811  eV     1   --> A              
     e(  8 -  9) =     13.33211  eV     2   -->   2 A              
     e( 10 - 10) =     16.64231  eV     1   --> A              
     e( 11 - 11) =     17.91715  eV     1   --> A              
     e( 12 - 12) =     30.58103  eV     1   --> A              
     e( 13 - 13) =     32.23314  eV     1   --> A              

 **************************************************************************
 
     BANDS        :      1.66s CPU      2.72s WALL

 
   This run was terminated on:  15:32: 7  11May2023            

=------------------------------------------------------------------------------=
   JOB DONE.
=------------------------------------------------------------------------------=
