 
             +---------------------------------------------------+
             |                                                   |
             |                   WANNIER90                       |
             |                                                   |
             +---------------------------------------------------+
             |                                                   |
             |        Welcome to the Maximally-Localized         |
             |        Generalized Wannier Functions code         |
             |            http://www.wannier.org                 |
             |                                                   |
             |                                                   |
             |  Wannier90 Developer Group:                       |
             |    Giovanni Pizzi    (EPFL)                       |
             |    Valerio Vitale    (Cambridge)                  |
             |    David Vanderbilt  (Rutgers University)         |
             |    Nicola Marzari    (EPFL)                       |
             |    Ivo Souza         (Universidad del Pais Vasco) |
             |    Arash A. Mostofi  (Imperial College London)    |
             |    Jonathan R. Yates (University of Oxford)       |
             |                                                   |
             |  For the full list of Wannier90 3.x authors,      |
             |  please check the code documentation and the      |
             |  README on the GitHub page of the code            |
             |                                                   |
             |                                                   |
             |  Please cite                                      |
             |                                                   |
             |  [ref] "An updated version of Wannier90:          |
             |        A Tool for Obtaining Maximally Localised   |
             |        Wannier Functions", A. A. Mostofi,         |
             |        J. R. Yates, G. Pizzi, Y. S. Lee,          |
             |        I. Souza, D. Vanderbilt and N. Marzari,    |
             |        Comput. Phys. Commun. 185, 2309 (2014)     |
             |        http://dx.doi.org/10.1016/j.cpc.2014.05.003|
             |                                                   |
             |  in any publications arising from the use of      |
             |  this code. For the method please cite            |
             |                                                   |
             |  [ref] "Maximally Localized Generalised Wannier   |
             |         Functions for Composite Energy Bands"     |
             |         N. Marzari and D. Vanderbilt              |
             |         Phys. Rev. B 56 12847 (1997)              |
             |                                                   |
             |  [ref] "Maximally Localized Wannier Functions     |
             |         for Entangled Energy Bands"               |
             |         I. Souza, N. Marzari and D. Vanderbilt    |
             |         Phys. Rev. B 65 035109 (2001)             |
             |                                                   |
             |                                                   |
             | Copyright (c) 1996-2019                           |
             |        The Wannier90 Developer Group and          |
             |        individual contributors                    |
             |                                                   |
             |      Release: 3.0.0       27th February 2019      |
             |                                                   |
             | This program is free software; you can            |
             | redistribute it and/or modify it under the terms  |
             | of the GNU General Public License as published by |
             | the Free Software Foundation; either version 2 of |
             | the License, or (at your option) any later version|
             |                                                   |
             | This program is distributed in the hope that it   |
             | will be useful, but WITHOUT ANY WARRANTY; without |
             | even the implied warranty of MERCHANTABILITY or   |
             | FITNESS FOR A PARTICULAR PURPOSE. See the GNU     |
             | General Public License for more details.          |
             |                                                   |
             | You should have received a copy of the GNU General|
             | Public License along with this program; if not,   |
             | write to the Free Software Foundation, Inc.,      |
             | 675 Mass Ave, Cambridge, MA 02139, USA.           |
             |                                                   |
             +---------------------------------------------------+
             |    Execution started on 11May2023 at 15:34:45     |
             +---------------------------------------------------+
 
 ******************************************************************************
 * -> Using CODATA 2006 constant values                                       *
 *    (http://physics.nist.gov/cuu/Constants/index.html)                      *
 * -> Using Bohr value from CODATA                                            *
 ******************************************************************************
 

 Running in parallel on   4 CPUs

 
                                    ------
                                    SYSTEM
                                    ------
 
                              Lattice Vectors (Ang)
                    a_1    -2.475359   0.000000   2.475359
                    a_2     0.000000   2.475359   2.475359
                    a_3    -2.475359   2.475359   0.000000
 
                   Unit Cell Volume:      30.33503  (Ang^3)
 
                        Reciprocal-Space Vectors (Ang^-1)
                    b_1    -1.269146  -1.269146   1.269146
                    b_2     1.269146   1.269146   1.269146
                    b_3    -1.269146   1.269146  -1.269146
  
 *----------------------------------------------------------------------------*
 |   Site       Fractional Coordinate          Cartesian Coordinate (Ang)     |
 +----------------------------------------------------------------------------+
 | Pb   1   0.00000   0.00000   0.00000   |    0.00000   0.00000   0.00000    |
 *----------------------------------------------------------------------------*
                                ------------
                                K-POINT GRID
                                ------------
  
             Grid size =  8 x  8 x  8      Total points =  512
  
  
 *---------------------------------- MAIN ------------------------------------*
 |  Number of Wannier Functions               :                 9             |
 |  Number of Objective Wannier Functions     :                 9             |
 |  Number of input Bloch states              :                13             |
 |  Output verbosity (1=low, 5=high)          :                 1             |
 |  Timing Level (1=low, 5=high)              :                 1             |
 |  Optimisation (0=memory, 3=speed)          :                 3             |
 |  Length Unit                               :               Ang             |
 |  Post-processing setup (write *.nnkp)      :                 F             |
 |  Using Gamma-only branch of algorithms     :                 F             |
 *----------------------------------------------------------------------------*
 *------------------------------- WANNIERISE ---------------------------------*
 |  Total number of iterations                :               200             |
 |  Number of CG steps before reset           :                 5             |
 |  Trial step length for line search         :             2.000             |
 |  Convergence tolerence                     :         0.100E-09             |
 |  Convergence window                        :                -1             |
 |  Iterations between writing output         :                 1             |
 |  Iterations between backing up to disk     :               100             |
 |  Write r^2_nm to file                      :                 F             |
 |  Write xyz WF centres to file              :                 F             |
 |  Write on-site energies <0n|H|0n> to file  :                 F             |
 |  Use guiding centre to control phases      :                 F             |
 |  Use phases for initial projections        :                 F             |
 *----------------------------------------------------------------------------*
 *------------------------------- DISENTANGLE --------------------------------*
 |  Using band disentanglement                :                 T             |
 |  Total number of iterations                :                 0             |
 |  Mixing ratio                              :             0.500             |
 |  Convergence tolerence                     :         1.000E-10             |
 |  Convergence window                        :                 3             |
 *----------------------------------------------------------------------------*
 *-------------------------------- PLOTTING ----------------------------------*
 |  Plotting interpolated bandstructure       :                 T             |
 |   Number of K-path sections                :                 5             |
 |   Divisions along first K-path section     :               100             |
 |   Output format                            :           gnuplot             |
 |   Output mode                              :               s-k             |
 *----------------------------------------------------------------------------*
 |   K-space path sections:                                                   |
 |    From: G       0.000  0.000  0.000     To: X       0.500  0.500  0.000   |
 |    From: X       0.500  0.500  0.000     To: W       0.500  0.750  0.250   |
 |    From: W       0.500  0.750  0.250     To: L       0.000  0.500  0.000   |
 |    From: L       0.000  0.500  0.000     To: G       0.000  0.000  0.000   |
 |    From: G       0.000  0.000  0.000     To: K       0.000  0.500 -0.500   |
 *----------------------------------------------------------------------------*
 Time to read parameters        0.058 (sec)

 *---------------------------------- K-MESH ----------------------------------*
 +----------------------------------------------------------------------------+
 |                    Distance to Nearest-Neighbour Shells                    |
 |                    ------------------------------------                    |
 |          Shell             Distance (Ang^-1)          Multiplicity         |
 |          -----             -----------------          ------------         |
 |             1                   0.274778                      8            |
 |             2                   0.317287                      6            |
 |             3                   0.448711                     12            |
 |             4                   0.526160                     24            |
 |             5                   0.549557                      8            |
 |             6                   0.634573                      6            |
 |             7                   0.691510                     24            |
 |             8                   0.709474                     24            |
 |             9                   0.777190                     24            |
 |            10                   0.824335                     32            |
 |            11                   0.897422                     12            |
 |            12                   0.938546                     48            |
 |            13                   0.951860                     30            |
 |            14                   1.003348                     24            |
 |            15                   1.040294                     24            |
 |            16                   1.052321                     24            |
 |            17                   1.099113                      8            |
 |            18                   1.132940                     48            |
 |            19                   1.143993                     24            |
 |            20                   1.187178                     48            |
 |            21                   1.218562                     72            |
 |            22                   1.269146                      6            |
 |            23                   1.298551                     24            |
 |            24                   1.308206                     48            |
 |            25                   1.346133                     36            |
 |            26                   1.373891                     56            |
 |            27                   1.383020                     24            |
 |            28                   1.418949                     24            |
 |            29                   1.445309                     72            |
 |            30                   1.453990                     48            |
 |            31                   1.488206                     24            |
 |            32                   1.513361                     48            |
 |            33                   1.554381                     24            |
 |            34                   1.578481                     72            |
 |            35                   1.586433                     30            |
 |            36                   1.617851                     72            |
 +----------------------------------------------------------------------------+
 | The b-vectors are chosen automatically                                     |
 | The following shells are used:   1                                         |
 +----------------------------------------------------------------------------+
 |                        Shell   # Nearest-Neighbours                        |
 |                        -----   --------------------                        |
 |                          1               8                                 |
 +----------------------------------------------------------------------------+
 | Completeness relation is fully satisfied [Eq. (B1), PRB 56, 12847 (1997)]  |
 +----------------------------------------------------------------------------+
 |                  b_k Vectors (Ang^-1) and Weights (Ang^2)                  |
 |                  ----------------------------------------                  |
 |            No.         b_k(x)      b_k(y)      b_k(z)        w_b           |
 |            ---        --------------------------------     --------        |
 |             1        -0.158643    0.158643   -0.158643     4.966684        |
 |             2         0.158643    0.158643    0.158643     4.966684        |
 |             3        -0.158643   -0.158643    0.158643     4.966684        |
 |             4        -0.158643    0.158643    0.158643     4.966684        |
 |             5         0.158643   -0.158643    0.158643     4.966684        |
 |             6        -0.158643   -0.158643   -0.158643     4.966684        |
 |             7         0.158643    0.158643   -0.158643     4.966684        |
 |             8         0.158643   -0.158643   -0.158643     4.966684        |
 +----------------------------------------------------------------------------+
 |                           b_k Directions (Ang^-1)                          |
 |                           -----------------------                          |
 |            No.           x           y           z                         |
 |            ---        --------------------------------                     |
 |             1        -0.158643    0.158643   -0.158643                     |
 |             2         0.158643    0.158643    0.158643                     |
 |             3        -0.158643   -0.158643    0.158643                     |
 |             4        -0.158643    0.158643    0.158643                     |
 +----------------------------------------------------------------------------+
  
 Time to get kmesh              0.252 (sec)
 *============================================================================*
 |                              MEMORY ESTIMATE                               |
 |         Maximum RAM allocated during each phase of the calculation         |
 *============================================================================*
 |                        Disentanglement           18.44 Mb                  |
 |                            Wannierise:           15.23 Mb                  |
 |                          plot_wannier:           15.23 Mb                  |
 *----------------------------------------------------------------------------*
  
 Starting a new Wannier90 calculation ...


 Reading overlaps from ex4.mmn    :  Created on 11May2023 at 15:34:23

 Reading projections from ex4.amn :  Created on 11May2023 at 15:34:22  with SCDM

 Time to read overlaps          0.427 (sec)

 *------------------------------- DISENTANGLE --------------------------------*
 +----------------------------------------------------------------------------+
 |                              Energy  Windows                               |
 |                              ---------------                               |
 |                   Outer:   -5.97702  to   32.23314  (eV)                   |
 |                   No frozen states were specified                          |
 +----------------------------------------------------------------------------+
   Number of target bands to extract:    9

                   Unitarised projection of Wannier functions                  
                   ------------------------------------------                  
   A_mn = <psi_m|g_n> --> S = A.A^+ --> U = S^-1/2.A
   In dis_project... done
   No inner window (linner = F)

                   Extraction of optimally-connected subspace                  
                   ------------------------------------------                  
 +---------------------------------------------------------------------+<-- DIS
 |  Iter     Omega_I(i-1)      Omega_I(i)      Delta (frac.)    Time   |<-- DIS
 +---------------------------------------------------------------------+<-- DIS

     <<< Warning: Maximum number of disentanglement iterations reached >>>
          <<< Disentanglement convergence criteria not satisfied >>>

        Final Omega_I            NaN (Ang^2)

 +----------------------------------------------------------------------------+

 Time to disentangle bands      0.061 (sec)

 Writing checkpoint file ex4.chk... done

 
 *------------------------------- WANNIERISE ---------------------------------*
 +--------------------------------------------------------------------+<-- CONV
 | Iter  Delta Spread     RMS Gradient      Spread (Ang^2)      Time  |<-- CONV
 +--------------------------------------------------------------------+<-- CONV
 
 ------------------------------------------------------------------------------
 Initial State
  WF centre and spread    1  ( -0.067797,  0.104075,  0.475156 )     2.08665549
  WF centre and spread    2  (  0.297879,  0.028136, -0.193467 )     1.23345342
  WF centre and spread    3  (  0.032138, -0.167533, -0.034272 )     0.98625127
  WF centre and spread    4  ( -0.428882,  0.194920, -0.121673 )     1.91551370
  WF centre and spread    5  (  0.023684,  0.308836, -0.209580 )     1.28478032
  WF centre and spread    6  (  0.295145,  0.288175,  0.125784 )     1.42766386
  WF centre and spread    7  ( -0.360749, -0.389522,  0.143508 )     2.03785353
  WF centre and spread    8  ( -0.102364, -0.134565, -0.444709 )     2.19723059
  WF centre and spread    9  (  0.305332, -0.246339,  0.260498 )     2.35373445
  Sum of centres and spreads ( -0.005614, -0.013818,  0.001246 )    15.52313662
 
      0     0.155E+02     0.0000000000       15.5231366213       0.00  <-- CONV
        O_D=      0.3555640 O_OD=      4.4154669 O_TOT=     15.5231366 <-- SPRD
 ------------------------------------------------------------------------------
 Cycle:      1
  WF centre and spread    1  ( -0.069470,  0.107168,  0.482584 )     1.85122622
  WF centre and spread    2  (  0.301035,  0.027103, -0.195487 )     1.13343663
  WF centre and spread    3  (  0.034377, -0.169042, -0.036247 )     0.87646444
  WF centre and spread    4  ( -0.433289,  0.197933, -0.121659 )     1.70709268
  WF centre and spread    5  (  0.023383,  0.310269, -0.210553 )     1.19384429
  WF centre and spread    6  (  0.295041,  0.289651,  0.126651 )     1.32129295
  WF centre and spread    7  ( -0.361165, -0.389882,  0.143291 )     1.86483838
  WF centre and spread    8  ( -0.102178, -0.135297, -0.446648 )     1.99435173
  WF centre and spread    9  (  0.307357, -0.248869,  0.259116 )     2.10911536
  Sum of centres and spreads ( -0.004908, -0.010966,  0.001049 )    14.05166269
 
      1    -0.147E+01     0.7455763298       14.0516626878       0.01  <-- CONV
        O_D=      0.0998162 O_OD=      3.1997408 O_TOT=     14.0516627 <-- SPRD
 Delta: O_D= -0.2557479E+00 O_OD= -0.1215726E+01 O_TOT= -0.1471474E+01 <-- DLTA
 ------------------------------------------------------------------------------
 Cycle:      2
  WF centre and spread    1  ( -0.070370,  0.109022,  0.487731 )     1.78260090
  WF centre and spread    2  (  0.303252,  0.026263, -0.196914 )     1.11500566
  WF centre and spread    3  (  0.036439, -0.170318, -0.038220 )     0.84827139
  WF centre and spread    4  ( -0.436025,  0.199867, -0.122021 )     1.64600430
  WF centre and spread    5  (  0.022992,  0.311726, -0.211258 )     1.18031756
  WF centre and spread    6  (  0.295146,  0.291046,  0.127728 )     1.30416110
  WF centre and spread    7  ( -0.362019, -0.390525,  0.143707 )     1.81960287
  WF centre and spread    8  ( -0.102583, -0.135616, -0.448124 )     1.94062047
  WF centre and spread    9  (  0.309028, -0.250795,  0.258777 )     2.03774238
  Sum of centres and spreads ( -0.004140, -0.009331,  0.001405 )    13.67432662
 
      2    -0.377E+00     0.3851887576       13.6743266237       0.03  <-- CONV
        O_D=      0.0414106 O_OD=      2.8808104 O_TOT=     13.6743266 <-- SPRD
 Delta: O_D= -0.5840560E-01 O_OD= -0.3189305E+00 O_TOT= -0.3773361E+00 <-- DLTA
 ------------------------------------------------------------------------------
 Cycle:      3
  WF centre and spread    1  ( -0.071189,  0.110468,  0.491808 )     1.75365562
  WF centre and spread    2  (  0.304847,  0.025587, -0.197867 )     1.11158796
  WF centre and spread    3  (  0.038037, -0.170965, -0.039810 )     0.83503750
  WF centre and spread    4  ( -0.438320,  0.201440, -0.122281 )     1.62094267
  WF centre and spread    5  (  0.022691,  0.313103, -0.211723 )     1.17941853
  WF centre and spread    6  (  0.295482,  0.292406,  0.128630 )     1.30135625
  WF centre and spread    7  ( -0.362988, -0.391484,  0.144176 )     1.79846164
  WF centre and spread    8  ( -0.102964, -0.136103, -0.449895 )     1.91756318
  WF centre and spread    9  (  0.310755, -0.252544,  0.258961 )     2.00492788
  Sum of centres and spreads ( -0.003649, -0.008090,  0.001999 )    13.52295124
 
      3    -0.151E+00     0.2537620790       13.5229512367       0.04  <-- CONV
        O_D=      0.0227690 O_OD=      2.7480766 O_TOT=     13.5229512 <-- SPRD
 Delta: O_D= -0.1864161E-01 O_OD= -0.1327338E+00 O_TOT= -0.1513754E+00 <-- DLTA
 ------------------------------------------------------------------------------
 Cycle:      4
  WF centre and spread    1  ( -0.072208,  0.111977,  0.495584 )     1.73873478
  WF centre and spread    2  (  0.306095,  0.024916, -0.198581 )     1.11305969
  WF centre and spread    3  (  0.039498, -0.170840, -0.041289 )     0.82608427
  WF centre and spread    4  ( -0.440644,  0.203087, -0.122377 )     1.60794587
  WF centre and spread    5  (  0.022425,  0.314482, -0.211992 )     1.18145784
  WF centre and spread    6  (  0.295909,  0.293829,  0.129419 )     1.30222322
  WF centre and spread    7  ( -0.364046, -0.392835,  0.144604 )     1.78340734
  WF centre and spread    8  ( -0.103303, -0.136964, -0.452265 )     1.90129307
  WF centre and spread    9  (  0.313004, -0.254652,  0.259486 )     1.98165163
  Sum of centres and spreads ( -0.003270, -0.006999,  0.002590 )    13.43585772
 
      4    -0.871E-01     0.1776080379       13.4358577164       0.05  <-- CONV
        O_D=      0.0110030 O_OD=      2.6727490 O_TOT=     13.4358577 <-- SPRD
 Delta: O_D= -0.1176592E-01 O_OD= -0.7532760E-01 O_TOT= -0.8709352E-01 <-- DLTA
 ------------------------------------------------------------------------------
 Cycle:      5
  WF centre and spread    1  ( -0.073192,  0.113269,  0.498099 )     1.73299080
  WF centre and spread    2  (  0.306782,  0.024368, -0.199004 )     1.11508614
  WF centre and spread    3  (  0.040575, -0.170201, -0.042368 )     0.82009514
  WF centre and spread    4  ( -0.442383,  0.204451, -0.122230 )     1.60353774
  WF centre and spread    5  (  0.022251,  0.315398, -0.212039 )     1.18392015
  WF centre and spread    6  (  0.296174,  0.294859,  0.129915 )     1.30463560
  WF centre and spread    7  ( -0.364834, -0.394003,  0.144882 )     1.77527425
  WF centre and spread    8  ( -0.103512, -0.137934, -0.454413 )     1.89129038
  WF centre and spread    9  (  0.315031, -0.256547,  0.260096 )     1.96808407
  Sum of centres and spreads ( -0.003107, -0.006340,  0.002939 )    13.39491426
 
      5    -0.409E-01     0.1345890523       13.3949142611       0.06  <-- CONV
        O_D=      0.0057361 O_OD=      2.6370725 O_TOT=     13.3949143 <-- SPRD
 Delta: O_D= -0.5266908E-02 O_OD= -0.3567655E-01 O_TOT= -0.4094346E-01 <-- DLTA
 ------------------------------------------------------------------------------
 Cycle:      6
  WF centre and spread    1  ( -0.074326,  0.114678,  0.500168 )     1.73167065
  WF centre and spread    2  (  0.307240,  0.023833, -0.199355 )     1.11719874
  WF centre and spread    3  (  0.041549, -0.169255, -0.043325 )     0.81497133
  WF centre and spread    4  ( -0.444012,  0.205853, -0.121905 )     1.60347052
  WF centre and spread    5  (  0.022128,  0.316080, -0.211997 )     1.18658927
  WF centre and spread    6  (  0.296359,  0.295735,  0.130312 )     1.30819641
  WF centre and spread    7  ( -0.365503, -0.395155,  0.145131 )     1.77085311
  WF centre and spread    8  ( -0.103676, -0.139105, -0.456596 )     1.88415141
  WF centre and spread    9  (  0.317080, -0.258577,  0.260804 )     1.95856775
  Sum of centres and spreads ( -0.003160, -0.005913,  0.003237 )    13.37566920
 
      6    -0.192E-01     0.0864527698       13.3756691953       0.07  <-- CONV
        O_D=      0.0046192 O_OD=      2.6189443 O_TOT=     13.3756692 <-- SPRD
 Delta: O_D= -0.1116898E-02 O_OD= -0.1812817E-01 O_TOT= -0.1924507E-01 <-- DLTA
 ------------------------------------------------------------------------------
 Cycle:      7
  WF centre and spread    1  ( -0.074831,  0.115285,  0.500837 )     1.73122739
  WF centre and spread    2  (  0.307356,  0.023625, -0.199473 )     1.11740579
  WF centre and spread    3  (  0.041906, -0.168819, -0.043671 )     0.81256313
  WF centre and spread    4  ( -0.444639,  0.206432, -0.121730 )     1.60379464
  WF centre and spread    5  (  0.022091,  0.316264, -0.211952 )     1.18689051
  WF centre and spread    6  (  0.296419,  0.296033,  0.130448 )     1.30915318
  WF centre and spread    7  ( -0.365728, -0.395613,  0.145240 )     1.76929009
  WF centre and spread    8  ( -0.103724, -0.139636, -0.457424 )     1.88122028
  WF centre and spread    9  (  0.317849, -0.259421,  0.261110 )     1.95515142
  Sum of centres and spreads ( -0.003301, -0.005851,  0.003385 )    13.36669645
 
      7    -0.897E-02     0.0691991282       13.3666964452       0.08  <-- CONV
        O_D=      0.0040839 O_OD=      2.6105069 O_TOT=     13.3666964 <-- SPRD
 Delta: O_D= -0.5353274E-03 O_OD= -0.8437423E-02 O_TOT= -0.8972750E-02 <-- DLTA
 ------------------------------------------------------------------------------
 Cycle:      8
  WF centre and spread    1  ( -0.076864,  0.117752,  0.503459 )     1.73255841
  WF centre and spread    2  (  0.307752,  0.022764, -0.199907 )     1.12041630
  WF centre and spread    3  (  0.043317, -0.166980, -0.045057 )     0.80460004
  WF centre and spread    4  ( -0.447095,  0.208766, -0.120996 )     1.60800418
  WF centre and spread    5  (  0.021941,  0.316972, -0.211739 )     1.18981509
  WF centre and spread    6  (  0.296630,  0.297224,  0.130983 )     1.31493764
  WF centre and spread    7  ( -0.366612, -0.397433,  0.145664 )     1.76501299
  WF centre and spread    8  ( -0.103889, -0.141802, -0.460801 )     1.87204108
  WF centre and spread    9  (  0.320976, -0.262828,  0.262322 )     1.94418133
  Sum of centres and spreads ( -0.003842, -0.005566,  0.003928 )    13.35156705
 
      8    -0.151E-01     0.0570312027       13.3515670542       0.09  <-- CONV
        O_D=      0.0049831 O_OD=      2.5944783 O_TOT=     13.3515671 <-- SPRD
 Delta: O_D=  0.8991928E-03 O_OD= -0.1602858E-01 O_TOT= -0.1512939E-01 <-- DLTA
 ------------------------------------------------------------------------------
 Cycle:      9
  WF centre and spread    1  ( -0.080803,  0.122593,  0.508240 )     1.73582862
  WF centre and spread    2  (  0.308358,  0.021024, -0.200638 )     1.12826874
  WF centre and spread    3  (  0.045871, -0.163241, -0.047611 )     0.79011592
  WF centre and spread    4  ( -0.451606,  0.213274, -0.119449 )     1.61733990
  WF centre and spread    5  (  0.021668,  0.318242, -0.211243 )     1.19639999
  WF centre and spread    6  (  0.296942,  0.299482,  0.131969 )     1.32702856
  WF centre and spread    7  ( -0.368168, -0.400845,  0.146432 )     1.75579614
  WF centre and spread    8  ( -0.104078, -0.146091, -0.467421 )     1.85454781
  WF centre and spread    9  (  0.327065, -0.269372,  0.264558 )     1.92312576
  Sum of centres and spreads ( -0.004752, -0.004933,  0.004837 )    13.32845145
 
      9    -0.231E-01     0.0763262082       13.3284514472       0.10  <-- CONV
        O_D=      0.0062861 O_OD=      2.5700596 O_TOT=     13.3284514 <-- SPRD
 Delta: O_D=  0.1303028E-02 O_OD= -0.2441864E-01 O_TOT= -0.2311561E-01 <-- DLTA
 ------------------------------------------------------------------------------
 Cycle:     10
  WF centre and spread    1  ( -0.086650,  0.129819,  0.514667 )     1.73964761
  WF centre and spread    2  (  0.309119,  0.018362, -0.201603 )     1.14300177
  WF centre and spread    3  (  0.049072, -0.157582, -0.050885 )     0.77091275
  WF centre and spread    4  ( -0.457740,  0.219823, -0.116845 )     1.63110267
  WF centre and spread    5  (  0.021349,  0.319899, -0.210402 )     1.20772633
  WF centre and spread    6  (  0.297200,  0.302657,  0.133296 )     1.34623654
  WF centre and spread    7  ( -0.370004, -0.405505,  0.147417 )     1.74037018
  WF centre and spread    8  ( -0.104030, -0.152554, -0.477239 )     1.82830353
  WF centre and spread    9  (  0.335991, -0.278806,  0.267488 )     1.89100559
  Sum of centres and spreads ( -0.005693, -0.003887,  0.005894 )    13.29830697
 
     10    -0.301E-01     0.0875038295       13.2983069733       0.11  <-- CONV
        O_D=      0.0076849 O_OD=      2.5385164 O_TOT=     13.2983070 <-- SPRD
 Delta: O_D=  0.1398733E-02 O_OD= -0.3154321E-01 O_TOT= -0.3014447E-01 <-- DLTA
 ------------------------------------------------------------------------------
 Cycle:     11
  WF centre and spread    1  ( -0.095146,  0.140307,  0.522250 )     1.74124737
  WF centre and spread    2  (  0.309934,  0.014406, -0.202753 )     1.16877452
  WF centre and spread    3  (  0.052350, -0.149168, -0.054340 )     0.74769083
  WF centre and spread    4  ( -0.465324,  0.228968, -0.112358 )     1.64905598
  WF centre and spread    5  (  0.021033,  0.321728, -0.208906 )     1.22712447
  WF centre and spread    6  (  0.297001,  0.306804,  0.134932 )     1.37710315
  WF centre and spread    7  ( -0.371555, -0.411269,  0.148477 )     1.71609559
  WF centre and spread    8  ( -0.103289, -0.162104, -0.491290 )     1.78840226
  WF centre and spread    9  (  0.348655, -0.291931,  0.270874 )     1.84109570
  Sum of centres and spreads ( -0.006342, -0.002261,  0.006886 )    13.25658985
 
     11    -0.417E-01     0.1019317536       13.2565898539       0.12  <-- CONV
        O_D=      0.0092977 O_OD=      2.4951865 O_TOT=     13.2565899 <-- SPRD
 Delta: O_D=  0.1612862E-02 O_OD= -0.4332998E-01 O_TOT= -0.4171712E-01 <-- DLTA
 ------------------------------------------------------------------------------
 Cycle:     12
  WF centre and spread    1  ( -0.104988,  0.152278,  0.527163 )     1.73583870
  WF centre and spread    2  (  0.309842,  0.009771, -0.203260 )     1.20563736
  WF centre and spread    3  (  0.053502, -0.138340, -0.055735 )     0.72981682
  WF centre and spread    4  ( -0.471387,  0.238728, -0.105799 )     1.66618465
  WF centre and spread    5  (  0.020839,  0.322549, -0.206395 )     1.25344054
  WF centre and spread    6  (  0.295504,  0.310609,  0.136224 )     1.41748897
  WF centre and spread    7  ( -0.371222, -0.416220,  0.148896 )     1.68470142
  WF centre and spread    8  ( -0.101234, -0.173473, -0.507132 )     1.73705587
  WF centre and spread    9  (  0.362890, -0.306234,  0.273260 )     1.77620594
  Sum of centres and spreads ( -0.006253, -0.000332,  0.007220 )    13.20637028
 
     12    -0.502E-01     0.1160031659       13.2063702775       0.13  <-- CONV
        O_D=      0.0100199 O_OD=      2.4442447 O_TOT=     13.2063703 <-- SPRD
 Delta: O_D=  0.7221657E-03 O_OD= -0.5094174E-01 O_TOT= -0.5021958E-01 <-- DLTA
 ------------------------------------------------------------------------------
 Cycle:     13
  WF centre and spread    1  ( -0.105193,  0.152360,  0.527036 )     1.73252441
  WF centre and spread    2  (  0.309788,  0.009680, -0.203238 )     1.20417774
  WF centre and spread    3  (  0.053420, -0.137995, -0.055667 )     0.72814997
  WF centre and spread    4  ( -0.471382,  0.238811, -0.105639 )     1.66314969
  WF centre and spread    5  (  0.020866,  0.322371, -0.206286 )     1.25251719
  WF centre and spread    6  (  0.295445,  0.310618,  0.136160 )     1.41622960
  WF centre and spread    7  ( -0.370967, -0.416111,  0.148791 )     1.68333747
  WF centre and spread    8  ( -0.101140, -0.173635, -0.507364 )     1.73216910
  WF centre and spread    9  (  0.363077, -0.306484,  0.273151 )     1.77136994
  Sum of centres and spreads ( -0.006087, -0.000385,  0.006946 )    13.18362511
 
     13    -0.227E-01     0.1186517710       13.1836251136       0.15  <-- CONV
        O_D=      0.0065377 O_OD=      2.4249817 O_TOT=     13.1836251 <-- SPRD
 Delta: O_D= -0.3482165E-02 O_OD= -0.1926300E-01 O_TOT= -0.2274516E-01 <-- DLTA
 ------------------------------------------------------------------------------
 Cycle:     14
  WF centre and spread    1  ( -0.105628,  0.152501,  0.526760 )     1.73093082
  WF centre and spread    2  (  0.309685,  0.009491, -0.203192 )     1.20331471
  WF centre and spread    3  (  0.053230, -0.137224, -0.055514 )     0.72628537
  WF centre and spread    4  ( -0.471384,  0.238980, -0.105312 )     1.66168906
  WF centre and spread    5  (  0.020925,  0.322018, -0.206052 )     1.25248746
  WF centre and spread    6  (  0.295360,  0.310676,  0.136052 )     1.41610631
  WF centre and spread    7  ( -0.370443, -0.415907,  0.148606 )     1.68435790
  WF centre and spread    8  ( -0.100966, -0.174021, -0.507895 )     1.72619208
  WF centre and spread    9  (  0.363484, -0.307049,  0.272979 )     1.76590602
  Sum of centres and spreads ( -0.005737, -0.000535,  0.006433 )    13.16726974
 
     14    -0.164E-01     0.0803047254       13.1672697403       0.16  <-- CONV
        O_D=      0.0051462 O_OD=      2.4100179 O_TOT=     13.1672697 <-- SPRD
 Delta: O_D= -0.1391572E-02 O_OD= -0.1496380E-01 O_TOT= -0.1635537E-01 <-- DLTA
 ------------------------------------------------------------------------------
 Cycle:     15
  WF centre and spread    1  ( -0.106201,  0.152696,  0.526572 )     1.73174874
  WF centre and spread    2  (  0.309649,  0.009281, -0.203182 )     1.20275819
  WF centre and spread    3  (  0.052991, -0.136281, -0.055323 )     0.72428093
  WF centre and spread    4  ( -0.471533,  0.239230, -0.104943 )     1.66271616
  WF centre and spread    5  (  0.021009,  0.321699, -0.205812 )     1.25223124
  WF centre and spread    6  (  0.295377,  0.310850,  0.135976 )     1.41603369
  WF centre and spread    7  ( -0.369897, -0.415809,  0.148462 )     1.68631695
  WF centre and spread    8  ( -0.100816, -0.174592, -0.508678 )     1.72104771
  WF centre and spread    9  (  0.364056, -0.307840,  0.272927 )     1.76167996
  Sum of centres and spreads ( -0.005365, -0.000766,  0.006000 )    13.15881358
 
     15    -0.846E-02     0.0546972927       13.1588135807       0.17  <-- CONV
        O_D=      0.0043943 O_OD=      2.4023136 O_TOT=     13.1588136 <-- SPRD
 Delta: O_D= -0.7518878E-03 O_OD= -0.7704272E-02 O_TOT= -0.8456160E-02 <-- DLTA
 ------------------------------------------------------------------------------
 Cycle:     16
  WF centre and spread    1  ( -0.106995,  0.153021,  0.526417 )     1.73393439
  WF centre and spread    2  (  0.309633,  0.009023, -0.203186 )     1.20200828
  WF centre and spread    3  (  0.052647, -0.134988, -0.055038 )     0.72149482
  WF centre and spread    4  ( -0.471830,  0.239613, -0.104459 )     1.66543631
  WF centre and spread    5  (  0.021132,  0.321334, -0.205524 )     1.25130265
  WF centre and spread    6  (  0.295471,  0.311140,  0.135897 )     1.41569949
  WF centre and spread    7  ( -0.369242, -0.415800,  0.148303 )     1.68912271
  WF centre and spread    8  ( -0.100676, -0.175453, -0.509830 )     1.71576339
  WF centre and spread    9  (  0.364889, -0.308978,  0.272988 )     1.75755686
  Sum of centres and spreads ( -0.004972, -0.001088,  0.005569 )    13.15231888
 
     16    -0.649E-02     0.0478398817       13.1523188786       0.18  <-- CONV
        O_D=      0.0040065 O_OD=      2.3962067 O_TOT=     13.1523189 <-- SPRD
 Delta: O_D= -0.3877498E-03 O_OD= -0.6106952E-02 O_TOT= -0.6494702E-02 <-- DLTA
 ------------------------------------------------------------------------------
 Cycle:     17
  WF centre and spread    1  ( -0.107797,  0.153404,  0.526258 )     1.73628910
  WF centre and spread    2  (  0.309582,  0.008782, -0.203175 )     1.20111666
  WF centre and spread    3  (  0.052260, -0.133607, -0.054703 )     0.71856136
  WF centre and spread    4  ( -0.472153,  0.240037, -0.103974 )     1.66856734
  WF centre and spread    5  (  0.021255,  0.320968, -0.205236 )     1.25001748
  WF centre and spread    6  (  0.295577,  0.311450,  0.135818 )     1.41524898
  WF centre and spread    7  ( -0.368608, -0.415848,  0.148136 )     1.69216134
  WF centre and spread    8  ( -0.100597, -0.176395, -0.511035 )     1.71177097
  WF centre and spread    9  (  0.365784, -0.310194,  0.273142 )     1.75438817
  Sum of centres and spreads ( -0.004696, -0.001403,  0.005233 )    13.14812139
 
     17    -0.420E-02     0.0402909205       13.1481213918       0.19  <-- CONV
        O_D=      0.0037454 O_OD=      2.3922703 O_TOT=     13.1481214 <-- SPRD
 Delta: O_D= -0.2611149E-03 O_OD= -0.3936372E-02 O_TOT= -0.4197487E-02 <-- DLTA
 ------------------------------------------------------------------------------
 Cycle:     18
  WF centre and spread    1  ( -0.108533,  0.153796,  0.526075 )     1.73798353
  WF centre and spread    2  (  0.309483,  0.008576, -0.203134 )     1.20022604
  WF centre and spread    3  (  0.051860, -0.132245, -0.054342 )     0.71583640
  WF centre and spread    4  ( -0.472446,  0.240456, -0.103529 )     1.67126631
  WF centre and spread    5  (  0.021359,  0.320609, -0.204954 )     1.24873626
  WF centre and spread    6  (  0.295663,  0.311741,  0.135739 )     1.41491262
  WF centre and spread    7  ( -0.368016, -0.415915,  0.147959 )     1.69524349
  WF centre and spread    8  ( -0.100576, -0.177319, -0.512148 )     1.70924690
  WF centre and spread    9  (  0.366652, -0.311375,  0.273348 )     1.75222745
  Sum of centres and spreads ( -0.004554, -0.001675,  0.005013 )    13.14567899
 
     18    -0.244E-02     0.0303952454       13.1456789898       0.20  <-- CONV
        O_D=      0.0037956 O_OD=      2.3897777 O_TOT=     13.1456790 <-- SPRD
 Delta: O_D=  0.5017066E-04 O_OD= -0.2492573E-02 O_TOT= -0.2442402E-02 <-- DLTA
 ------------------------------------------------------------------------------
 Cycle:     19
  WF centre and spread    1  ( -0.108714,  0.153900,  0.526018 )     1.73765580
  WF centre and spread    2  (  0.309438,  0.008533, -0.203109 )     1.19994423
  WF centre and spread    3  (  0.051739, -0.131860, -0.054230 )     0.71512839
  WF centre and spread    4  ( -0.472517,  0.240568, -0.103426 )     1.67140036
  WF centre and spread    5  (  0.021373,  0.320515, -0.204874 )     1.24832744
  WF centre and spread    6  (  0.295678,  0.311819,  0.135718 )     1.41478781
  WF centre and spread    7  ( -0.367860, -0.415943,  0.147902 )     1.69587237
  WF centre and spread    8  ( -0.100594, -0.177563, -0.512410 )     1.70904098
  WF centre and spread    9  (  0.366884, -0.311689,  0.273427 )     1.75185741
  Sum of centres and spreads ( -0.004573, -0.001719,  0.005016 )    13.14401480
 
     19    -0.166E-02     0.0299236437       13.1440147985       0.21  <-- CONV
        O_D=      0.0036428 O_OD=      2.3882663 O_TOT=     13.1440148 <-- SPRD
 Delta: O_D= -0.1527495E-03 O_OD= -0.1511442E-02 O_TOT= -0.1664191E-02 <-- DLTA
 ------------------------------------------------------------------------------
 Cycle:     20
  WF centre and spread    1  ( -0.109343,  0.154259,  0.525809 )     1.73705076
  WF centre and spread    2  (  0.309281,  0.008383, -0.203020 )     1.19928956
  WF centre and spread    3  (  0.051310, -0.130511, -0.053828 )     0.71289775
  WF centre and spread    4  ( -0.472756,  0.240955, -0.103063 )     1.67235662
  WF centre and spread    5  (  0.021424,  0.320184, -0.204595 )     1.24712656
  WF centre and spread    6  (  0.295731,  0.312094,  0.135648 )     1.41462730
  WF centre and spread    7  ( -0.367317, -0.416037,  0.147703 )     1.69837058
  WF centre and spread    8  ( -0.100656, -0.178416, -0.513336 )     1.70882381
  WF centre and spread    9  (  0.367697, -0.312780,  0.273698 )     1.75110663
  Sum of centres and spreads ( -0.004631, -0.001869,  0.005018 )    13.14164957
 
     20    -0.237E-02     0.0246550525       13.1416495672       0.23  <-- CONV
        O_D=      0.0037638 O_OD=      2.3857801 O_TOT=     13.1416496 <-- SPRD
 Delta: O_D=  0.1209577E-03 O_OD= -0.2486189E-02 O_TOT= -0.2365231E-02 <-- DLTA
 ------------------------------------------------------------------------------
 Cycle:     21
  WF centre and spread    1  ( -0.110418,  0.154860,  0.525465 )     1.73619415
  WF centre and spread    2  (  0.309032,  0.008122, -0.202881 )     1.19853980
  WF centre and spread    3  (  0.050565, -0.128230, -0.053126 )     0.70939637
  WF centre and spread    4  ( -0.473152,  0.241601, -0.102435 )     1.67409142
  WF centre and spread    5  (  0.021514,  0.319635, -0.204132 )     1.24518563
  WF centre and spread    6  (  0.295829,  0.312578,  0.135541 )     1.41441007
  WF centre and spread    7  ( -0.366401, -0.416188,  0.147369 )     1.70233215
  WF centre and spread    8  ( -0.100752, -0.179862, -0.514934 )     1.70869296
  WF centre and spread    9  (  0.369079, -0.314614,  0.274148 )     1.75005400
  Sum of centres and spreads ( -0.004704, -0.002098,  0.005016 )    13.13889655
 
     21    -0.275E-02     0.0277573636       13.1388965529       0.24  <-- CONV
        O_D=      0.0038888 O_OD=      2.3829021 O_TOT=     13.1388966 <-- SPRD
 Delta: O_D=  0.1250237E-03 O_OD= -0.2878038E-02 O_TOT= -0.2753014E-02 <-- DLTA
 ------------------------------------------------------------------------------
 Cycle:     22
  WF centre and spread    1  ( -0.112062,  0.155766,  0.524964 )     1.73468215
  WF centre and spread    2  (  0.308694,  0.007711, -0.202691 )     1.19789958
  WF centre and spread    3  (  0.049400, -0.124788, -0.052010 )     0.70452559
  WF centre and spread    4  ( -0.473744,  0.242568, -0.101453 )     1.67648163
  WF centre and spread    5  (  0.021656,  0.318824, -0.203450 )     1.24248175
  WF centre and spread    6  (  0.295993,  0.313346,  0.135400 )     1.41425289
  WF centre and spread    7  ( -0.364999, -0.416391,  0.146855 )     1.70795111
  WF centre and spread    8  ( -0.100873, -0.182064, -0.517406 )     1.70865083
  WF centre and spread    9  (  0.371180, -0.317374,  0.274799 )     1.74859610
  Sum of centres and spreads ( -0.004755, -0.002404,  0.005009 )    13.13552163
 
     22    -0.337E-02     0.0310419765       13.1355216335       0.25  <-- CONV
        O_D=      0.0041873 O_OD=      2.3792287 O_TOT=     13.1355216 <-- SPRD
 Delta: O_D=  0.2984809E-03 O_OD= -0.3673400E-02 O_TOT= -0.3374919E-02 <-- DLTA
 ------------------------------------------------------------------------------
 Cycle:     23
  WF centre and spread    1  ( -0.115058,  0.157383,  0.523952 )     1.73094028
  WF centre and spread    2  (  0.308099,  0.006928, -0.202349 )     1.19766312
  WF centre and spread    3  (  0.047148, -0.118535, -0.049801 )     0.69670616
  WF centre and spread    4  ( -0.474724,  0.244284, -0.099590 )     1.67969946
  WF centre and spread    5  (  0.021917,  0.317333, -0.202219 )     1.23821899
  WF centre and spread    6  (  0.296286,  0.314797,  0.135176 )     1.41452361
  WF centre and spread    7  ( -0.362328, -0.416612,  0.145846 )     1.71773612
  WF centre and spread    8  ( -0.101048, -0.186098, -0.521941 )     1.70877601
  WF centre and spread    9  (  0.374978, -0.322348,  0.275882 )     1.74587515
  Sum of centres and spreads ( -0.004730, -0.002869,  0.004957 )    13.13013892
 
     23    -0.538E-02     0.0337070650       13.1301389201       0.26  <-- CONV
        O_D=      0.0046088 O_OD=      2.3734245 O_TOT=     13.1301389 <-- SPRD
 Delta: O_D=  0.4215028E-03 O_OD= -0.5804216E-02 O_TOT= -0.5382713E-02 <-- DLTA
 ------------------------------------------------------------------------------
 Cycle:     24
  WF centre and spread    1  ( -0.118804,  0.159342,  0.522242 )     1.72462575
  WF centre and spread    2  (  0.307211,  0.005912, -0.201816 )     1.19804986
  WF centre and spread    3  (  0.044011, -0.110572, -0.046626 )     0.68802440
  WF centre and spread    4  ( -0.475657,  0.246343, -0.097095 )     1.68228219
  WF centre and spread    5  (  0.022238,  0.315298, -0.200608 )     1.23335888
  WF centre and spread    6  (  0.296578,  0.316635,  0.134876 )     1.41553602
  WF centre and spread    7  ( -0.358646, -0.416563,  0.144380 )     1.73004829
  WF centre and spread    8  ( -0.101203, -0.191239, -0.527586 )     1.70920987
  WF centre and spread    9  (  0.379648, -0.328522,  0.277041 )     1.74248151
  Sum of centres and spreads ( -0.004624, -0.003367,  0.004808 )    13.12361677
 
     24    -0.652E-02     0.0447803282       13.1236167657       0.27  <-- CONV
        O_D=      0.0051994 O_OD=      2.3663117 O_TOT=     13.1236168 <-- SPRD
 Delta: O_D=  0.5905666E-03 O_OD= -0.7112721E-02 O_TOT= -0.6522154E-02 <-- DLTA
 ------------------------------------------------------------------------------
 Cycle:     25
  WF centre and spread    1  ( -0.118883,  0.159387,  0.522143 )     1.72306050
  WF centre and spread    2  (  0.307132,  0.005873, -0.201774 )     1.19783139
  WF centre and spread    3  (  0.043890, -0.110281, -0.046501 )     0.68760166
  WF centre and spread    4  ( -0.475632,  0.246398, -0.097007 )     1.68094636
  WF centre and spread    5  (  0.022239,  0.315173, -0.200548 )     1.23321815
  WF centre and spread    6  (  0.296551,  0.316661,  0.134863 )     1.41560137
  WF centre and spread    7  ( -0.358521, -0.416517,  0.144306 )     1.72968985
  WF centre and spread    8  ( -0.101176, -0.191351, -0.527731 )     1.70890678
  WF centre and spread    9  (  0.379779, -0.328660,  0.277024 )     1.74208430
  Sum of centres and spreads ( -0.004620, -0.003317,  0.004775 )    13.11894036
 
     25    -0.468E-02     0.0539025489       13.1189403584       0.28  <-- CONV
        O_D=      0.0043762 O_OD=      2.3624585 O_TOT=     13.1189404 <-- SPRD
 Delta: O_D= -0.8231457E-03 O_OD= -0.3853262E-02 O_TOT= -0.4676407E-02 <-- DLTA
 ------------------------------------------------------------------------------
 Cycle:     26
  WF centre and spread    1  ( -0.119057,  0.159474,  0.521942 )     1.72100832
  WF centre and spread    2  (  0.306978,  0.005796, -0.201690 )     1.19783703
  WF centre and spread    3  (  0.043629, -0.109656, -0.046234 )     0.68693566
  WF centre and spread    4  ( -0.475597,  0.246516, -0.096827 )     1.67931342
  WF centre and spread    5  (  0.022242,  0.314921, -0.200424 )     1.23322493
  WF centre and spread    6  (  0.296516,  0.316740,  0.134849 )     1.41623232
  WF centre and spread    7  ( -0.358265, -0.416438,  0.144167 )     1.72968109
  WF centre and spread    8  ( -0.101127, -0.191604, -0.528058 )     1.70927796
  WF centre and spread    9  (  0.380066, -0.328971,  0.277013 )     1.74233906
  Sum of centres and spreads ( -0.004614, -0.003221,  0.004737 )    13.11584979
 
     26    -0.309E-02     0.0354515588       13.1158497884       0.29  <-- CONV
        O_D=      0.0039935 O_OD=      2.3597506 O_TOT=     13.1158498 <-- SPRD
 Delta: O_D= -0.3827281E-03 O_OD= -0.2707842E-02 O_TOT= -0.3090570E-02 <-- DLTA
 ------------------------------------------------------------------------------
 Cycle:     27
  WF centre and spread    1  ( -0.119304,  0.159585,  0.521735 )     1.71925765
  WF centre and spread    2  (  0.306821,  0.005708, -0.201602 )     1.19796503
  WF centre and spread    3  (  0.043295, -0.108860, -0.045893 )     0.68598051
  WF centre and spread    4  ( -0.475611,  0.246684, -0.096615 )     1.67812117
  WF centre and spread    5  (  0.022250,  0.314636, -0.200280 )     1.23297711
  WF centre and spread    6  (  0.296526,  0.316889,  0.134853 )     1.41697091
  WF centre and spread    7  ( -0.357971, -0.416390,  0.144027 )     1.72969059
  WF centre and spread    8  ( -0.101080, -0.191962, -0.528534 )     1.71016827
  WF centre and spread    9  (  0.380463, -0.329416,  0.277056 )     1.74311147
  Sum of centres and spreads ( -0.004612, -0.003126,  0.004746 )    13.11424270
 
     27    -0.161E-02     0.0240350853       13.1142427013       0.31  <-- CONV
        O_D=      0.0037798 O_OD=      2.3583572 O_TOT=     13.1142427 <-- SPRD
 Delta: O_D= -0.2136471E-03 O_OD= -0.1393440E-02 O_TOT= -0.1607087E-02 <-- DLTA
 ------------------------------------------------------------------------------
 Cycle:     28
  WF centre and spread    1  ( -0.119679,  0.159749,  0.521460 )     1.71730621
  WF centre and spread    2  (  0.306611,  0.005593, -0.201484 )     1.19809174
  WF centre and spread    3  (  0.042808, -0.107702, -0.045396 )     0.68439205
  WF centre and spread    4  ( -0.475675,  0.246948, -0.096323 )     1.67706705
  WF centre and spread    5  (  0.022264,  0.314238, -0.200081 )     1.23232855
  WF centre and spread    6  (  0.296580,  0.317137,  0.134872 )     1.41791226
  WF centre and spread    7  ( -0.357569, -0.416363,  0.143851 )     1.72966117
  WF centre and spread    8  ( -0.101025, -0.192516, -0.529269 )     1.71166727
  WF centre and spread    9  (  0.381064, -0.330105,  0.277159 )     1.74447024
  Sum of centres and spreads ( -0.004621, -0.003022,  0.004790 )    13.11289655
 
     28    -0.135E-02     0.0215351969       13.1128965451       0.32  <-- CONV
        O_D=      0.0036676 O_OD=      2.3571232 O_TOT=     13.1128965 <-- SPRD
 Delta: O_D= -0.1122022E-03 O_OD= -0.1233954E-02 O_TOT= -0.1346156E-02 <-- DLTA
 ------------------------------------------------------------------------------
 Cycle:     29
  WF centre and spread    1  ( -0.120130,  0.159939,  0.521110 )     1.71538094
  WF centre and spread    2  (  0.306344,  0.005467, -0.201334 )     1.19812155
  WF centre and spread    3  (  0.042211, -0.106287, -0.044784 )     0.68228983
  WF centre and spread    4  ( -0.475763,  0.247280, -0.095989 )     1.67628644
  WF centre and spread    5  (  0.022280,  0.313745, -0.199838 )     1.23134761
  WF centre and spread    6  (  0.296669,  0.317452,  0.134896 )     1.41898957
  WF centre and spread    7  ( -0.357092, -0.416346,  0.143647 )     1.72964773
  WF centre and spread    8  ( -0.100969, -0.193214, -0.530173 )     1.71358230
  WF centre and spread    9  (  0.381803, -0.330971,  0.277309 )     1.74617773
  Sum of centres and spreads ( -0.004646, -0.002932,  0.004844 )    13.11182372
 
     29    -0.107E-02     0.0192566522       13.1118237155       0.33  <-- CONV
        O_D=      0.0036182 O_OD=      2.3560999 O_TOT=     13.1118237 <-- SPRD
 Delta: O_D= -0.4948317E-04 O_OD= -0.1023346E-02 O_TOT= -0.1072830E-02 <-- DLTA
 ------------------------------------------------------------------------------
 Cycle:     30
  WF centre and spread    1  ( -0.120588,  0.160120,  0.520695 )     1.71361518
  WF centre and spread    2  (  0.306026,  0.005347, -0.201153 )     1.19799977
  WF centre and spread    3  (  0.041568, -0.104771, -0.044125 )     0.67996226
  WF centre and spread    4  ( -0.475843,  0.247634, -0.095660 )     1.67578081
  WF centre and spread    5  (  0.022293,  0.313195, -0.199571 )     1.23024932
  WF centre and spread    6  (  0.296776,  0.317789,  0.134912 )     1.42016841
  WF centre and spread    7  ( -0.356579, -0.416320,  0.143428 )     1.72974699
  WF centre and spread    8  ( -0.100917, -0.193969, -0.531111 )     1.71558750
  WF centre and spread    9  (  0.382580, -0.331903,  0.277473 )     1.74793351
  Sum of centres and spreads ( -0.004683, -0.002879,  0.004889 )    13.11104374
 
     30    -0.780E-03     0.0165339026       13.1110437414       0.34  <-- CONV
        O_D=      0.0036819 O_OD=      2.3552562 O_TOT=     13.1110437 <-- SPRD
 Delta: O_D=  0.6374533E-04 O_OD= -0.8437194E-03 O_TOT= -0.7799740E-03 <-- DLTA
 ------------------------------------------------------------------------------
 Cycle:     31
  WF centre and spread    1  ( -0.120666,  0.160138,  0.520593 )     1.71330114
  WF centre and spread    2  (  0.305946,  0.005330, -0.201105 )     1.19784415
  WF centre and spread    3  (  0.041437, -0.104468, -0.043991 )     0.67944613
  WF centre and spread    4  ( -0.475852,  0.247700, -0.095609 )     1.67573257
  WF centre and spread    5  (  0.022293,  0.313073, -0.199513 )     1.22999791
  WF centre and spread    6  (  0.296805,  0.317854,  0.134909 )     1.42038227
  WF centre and spread    7  ( -0.356471, -0.416309,  0.143382 )     1.72974800
  WF centre and spread    8  ( -0.100907, -0.194123, -0.531278 )     1.71581900
  WF centre and spread    9  (  0.382724, -0.332090,  0.277503 )     1.74810130
  Sum of centres and spreads ( -0.004690, -0.002894,  0.004891 )    13.11037247
 
     31    -0.671E-03     0.0193763361       13.1103724683       0.35  <-- CONV
        O_D=      0.0036110 O_OD=      2.3546558 O_TOT=     13.1103725 <-- SPRD
 Delta: O_D= -0.7091802E-04 O_OD= -0.6003551E-03 O_TOT= -0.6712732E-03 <-- DLTA
 ------------------------------------------------------------------------------
 Cycle:     32
  WF centre and spread    1  ( -0.120945,  0.160203,  0.520250 )     1.71247099
  WF centre and spread    2  (  0.305671,  0.005270, -0.200941 )     1.19742951
  WF centre and spread    3  (  0.040983, -0.103413, -0.043527 )     0.67774101
  WF centre and spread    4  ( -0.475885,  0.247930, -0.095432 )     1.67578869
  WF centre and spread    5  (  0.022295,  0.312654, -0.199315 )     1.22920292
  WF centre and spread    6  (  0.296912,  0.318089,  0.134901 )     1.42122636
  WF centre and spread    7  ( -0.356103, -0.416276,  0.143227 )     1.72988260
  WF centre and spread    8  ( -0.100873, -0.194658, -0.531873 )     1.71682568
  WF centre and spread    9  (  0.383233, -0.332741,  0.277608 )     1.74890859
  Sum of centres and spreads ( -0.004712, -0.002944,  0.004898 )    13.10947636
 
     32    -0.896E-03     0.0152270171       13.1094763566       0.36  <-- CONV
        O_D=      0.0036477 O_OD=      2.3537230 O_TOT=     13.1094764 <-- SPRD
 Delta: O_D=  0.3674850E-04 O_OD= -0.9328602E-03 O_TOT= -0.8961117E-03 <-- DLTA
 ------------------------------------------------------------------------------
 Cycle:     33
  WF centre and spread    1  ( -0.121430,  0.160316,  0.519710 )     1.71124829
  WF centre and spread    2  (  0.305228,  0.005165, -0.200677 )     1.19683416
  WF centre and spread    3  (  0.040226, -0.101659, -0.042752 )     0.67496290
  WF centre and spread    4  ( -0.475957,  0.248317, -0.095126 )     1.67597869
  WF centre and spread    5  (  0.022300,  0.311967, -0.198994 )     1.22787932
  WF centre and spread    6  (  0.297107,  0.318503,  0.134897 )     1.42263623
  WF centre and spread    7  ( -0.355499, -0.416231,  0.142977 )     1.73003477
  WF centre and spread    8  ( -0.100813, -0.195561, -0.532903 )     1.71855794
  WF centre and spread    9  (  0.384099, -0.333838,  0.277785 )     1.75032537
  Sum of centres and spreads ( -0.004739, -0.003022,  0.004917 )    13.10845768
 
     33    -0.102E-02     0.0171793016       13.1084576804       0.38  <-- CONV
        O_D=      0.0037151 O_OD=      2.3526369 O_TOT=     13.1084577 <-- SPRD
 Delta: O_D=  0.6741086E-04 O_OD= -0.1086087E-02 O_TOT= -0.1018676E-02 <-- DLTA
 ------------------------------------------------------------------------------
 Cycle:     34
  WF centre and spread    1  ( -0.122194,  0.160490,  0.518935 )     1.70945956
  WF centre and spread    2  (  0.304575,  0.004997, -0.200282 )     1.19604108
  WF centre and spread    3  (  0.039076, -0.099012, -0.041572 )     0.67088143
  WF centre and spread    4  ( -0.476090,  0.248907, -0.094645 )     1.67623251
  WF centre and spread    5  (  0.022310,  0.310938, -0.198517 )     1.22593237
  WF centre and spread    6  (  0.297430,  0.319166,  0.134903 )     1.42482326
  WF centre and spread    7  ( -0.354584, -0.416163,  0.142603 )     1.73017264
  WF centre and spread    8  ( -0.100707, -0.196942, -0.534513 )     1.72116492
  WF centre and spread    9  (  0.385432, -0.335511,  0.278044 )     1.75251571
  Sum of centres and spreads ( -0.004751, -0.003131,  0.004956 )    13.10722347
 
     34    -0.123E-02     0.0187928622       13.1072234720       0.39  <-- CONV
        O_D=      0.0038597 O_OD=      2.3512581 O_TOT=     13.1072235 <-- SPRD
 Delta: O_D=  0.1445540E-03 O_OD= -0.1378762E-02 O_TOT= -0.1234208E-02 <-- DLTA
 ------------------------------------------------------------------------------
 Cycle:     35
  WF centre and spread    1  ( -0.123672,  0.160802,  0.517470 )     1.70591797
  WF centre and spread    2  (  0.303317,  0.004665, -0.199511 )     1.19470343
  WF centre and spread    3  (  0.036883, -0.094009, -0.039304 )     0.66347829
  WF centre and spread    4  ( -0.476341,  0.250021, -0.093699 )     1.67631805
  WF centre and spread    5  (  0.022328,  0.308965, -0.197614 )     1.22248718
  WF centre and spread    6  (  0.298081,  0.320480,  0.134929 )     1.42925029
  WF centre and spread    7  ( -0.352801, -0.415980,  0.141871 )     1.73039736
  WF centre and spread    8  ( -0.100470, -0.199574, -0.537602 )     1.72601843
  WF centre and spread    9  (  0.387963, -0.338678,  0.278475 )     1.75661397
  Sum of centres and spreads ( -0.004713, -0.003308,  0.005015 )    13.10518498
 
     35    -0.204E-02     0.0206406257       13.1051849765       0.40  <-- CONV
        O_D=      0.0041206 O_OD=      2.3489587 O_TOT=     13.1051850 <-- SPRD
 Delta: O_D=  0.2609150E-03 O_OD= -0.2299411E-02 O_TOT= -0.2038496E-02 <-- DLTA
 ------------------------------------------------------------------------------
 Cycle:     36
  WF centre and spread    1  ( -0.125796,  0.161203,  0.515240 )     1.70039354
  WF centre and spread    2  (  0.301392,  0.004186, -0.198312 )     1.19277806
  WF centre and spread    3  (  0.033708, -0.086878, -0.035982 )     0.65332089
  WF centre and spread    4  ( -0.476612,  0.251598, -0.092286 )     1.67583174
  WF centre and spread    5  (  0.022336,  0.306025, -0.196292 )     1.21779146
  WF centre and spread    6  (  0.299036,  0.322409,  0.134954 )     1.43607881
  WF centre and spread    7  ( -0.350122, -0.415570,  0.140744 )     1.73081898
  WF centre and spread    8  ( -0.100068, -0.203343, -0.541973 )     1.73292647
  WF centre and spread    9  (  0.391519, -0.343154,  0.278948 )     1.76246110
  Sum of centres and spreads ( -0.004608, -0.003525,  0.005041 )    13.10240104
 
     36    -0.278E-02     0.0281242781       13.1024010430       0.41  <-- CONV
        O_D=      0.0045292 O_OD=      2.3457662 O_TOT=     13.1024010 <-- SPRD
 Delta: O_D=  0.4085823E-03 O_OD= -0.3192516E-02 O_TOT= -0.2783933E-02 <-- DLTA
 ------------------------------------------------------------------------------
 Cycle:     37
  WF centre and spread    1  ( -0.125844,  0.161193,  0.515155 )     1.69969666
  WF centre and spread    2  (  0.301293,  0.004168, -0.198251 )     1.19247000
  WF centre and spread    3  (  0.033613, -0.086664, -0.035883 )     0.65294759
  WF centre and spread    4  ( -0.476596,  0.251631, -0.092241 )     1.67521858
  WF centre and spread    5  (  0.022332,  0.305903, -0.196246 )     1.21764671
  WF centre and spread    6  (  0.299063,  0.322465,  0.134949 )     1.43626850
  WF centre and spread    7  ( -0.350024, -0.415514,  0.140690 )     1.73066516
  WF centre and spread    8  ( -0.100032, -0.203436, -0.542085 )     1.73279254
  WF centre and spread    9  (  0.391607, -0.343259,  0.278916 )     1.76236828
  Sum of centres and spreads ( -0.004588, -0.003512,  0.005004 )    13.10007402
 
     37    -0.233E-02     0.0381972644       13.1000740206       0.42  <-- CONV
        O_D=      0.0040756 O_OD=      2.3438927 O_TOT=     13.1000740 <-- SPRD
 Delta: O_D= -0.4535506E-03 O_OD= -0.1873472E-02 O_TOT= -0.2327022E-02 <-- DLTA
 ------------------------------------------------------------------------------
 Cycle:     38
  WF centre and spread    1  ( -0.125954,  0.161167,  0.514979 )     1.69884615
  WF centre and spread    2  (  0.301084,  0.004133, -0.198120 )     1.19205126
  WF centre and spread    3  (  0.033405, -0.086192, -0.035666 )     0.65223936
  WF centre and spread    4  ( -0.476575,  0.251707, -0.092149 )     1.67452387
  WF centre and spread    5  (  0.022323,  0.305643, -0.196148 )     1.21746361
  WF centre and spread    6  (  0.299140,  0.322605,  0.134945 )     1.43692942
  WF centre and spread    7  ( -0.349819, -0.415403,  0.140585 )     1.73069623
  WF centre and spread    8  ( -0.099957, -0.203647, -0.542342 )     1.73304096
  WF centre and spread    9  (  0.391805, -0.343502,  0.278861 )     1.76273234
  Sum of centres and spreads ( -0.004549, -0.003488,  0.004947 )    13.09852319
 
     38    -0.155E-02     0.0248764595       13.0985231928       0.43  <-- CONV
        O_D=      0.0038328 O_OD=      2.3425847 O_TOT=     13.0985232 <-- SPRD
 Delta: O_D= -0.2428438E-03 O_OD= -0.1307984E-02 O_TOT= -0.1550828E-02 <-- DLTA
 ------------------------------------------------------------------------------
 Cycle:     39
  WF centre and spread    1  ( -0.126114,  0.161136,  0.514787 )     1.69819009
  WF centre and spread    2  (  0.300836,  0.004094, -0.197961 )     1.19159827
  WF centre and spread    3  (  0.033133, -0.085576, -0.035384 )     0.65125259
  WF centre and spread    4  ( -0.476589,  0.251821, -0.092042 )     1.67411966
  WF centre and spread    5  (  0.022315,  0.305326, -0.196031 )     1.21704748
  WF centre and spread    6  (  0.299275,  0.322822,  0.134958 )     1.43773678
  WF centre and spread    7  ( -0.349577, -0.415293,  0.140476 )     1.73069674
  WF centre and spread    8  ( -0.099867, -0.203946, -0.542714 )     1.73360498
  WF centre and spread    9  (  0.392084, -0.343853,  0.278826 )     1.76342313
  Sum of centres and spreads ( -0.004505, -0.003470,  0.004916 )    13.09766973
 
     39    -0.853E-03     0.0175326447       13.0976697259       0.44  <-- CONV
        O_D=      0.0036994 O_OD=      2.3418647 O_TOT=     13.0976697 <-- SPRD
 Delta: O_D= -0.1334356E-03 O_OD= -0.7200314E-03 O_TOT= -0.8534669E-03 <-- DLTA
 ------------------------------------------------------------------------------
 Cycle:     40
  WF centre and spread    1  ( -0.126357,  0.161095,  0.514538 )     1.69752178
  WF centre and spread    2  (  0.300489,  0.004045, -0.197740 )     1.19095317
  WF centre and spread    3  (  0.032740, -0.084684, -0.034976 )     0.64973615
  WF centre and spread    4  ( -0.476644,  0.252005, -0.091899 )     1.67392551
  WF centre and spread    5  (  0.022306,  0.304875, -0.195871 )     1.21625683
  WF centre and spread    6  (  0.299501,  0.323164,  0.134989 )     1.43881736
  WF centre and spread    7  ( -0.349252, -0.415164,  0.140339 )     1.73062304
  WF centre and spread    8  ( -0.099744, -0.204400, -0.543282 )     1.73457784
  WF centre and spread    9  (  0.392508, -0.344394,  0.278803 )     1.76454041
  Sum of centres and spreads ( -0.004453, -0.003457,  0.004901 )    13.09695209
 
     40    -0.718E-03     0.0156358587       13.0969520901       0.45  <-- CONV
        O_D=      0.0036230 O_OD=      2.3412234 O_TOT=     13.0969521 <-- SPRD
 Delta: O_D= -0.7635907E-04 O_OD= -0.6412768E-03 O_TOT= -0.7176358E-03 <-- DLTA
 ------------------------------------------------------------------------------
 Cycle:     41
  WF centre and spread    1  ( -0.126646,  0.161043,  0.514236 )     1.69685294
  WF centre and spread    2  (  0.300062,  0.003996, -0.197471 )     1.19015638
  WF centre and spread    3  (  0.032267, -0.083606, -0.034484 )     0.64785521
  WF centre and spread    4  ( -0.476723,  0.252241, -0.091744 )     1.67394509
  WF centre and spread    5  (  0.022293,  0.304324, -0.195679 )     1.21518644
  WF centre and spread    6  (  0.299790,  0.323590,  0.135029 )     1.44008612
  WF centre and spread    7  ( -0.348875, -0.415020,  0.140183 )     1.73050619
  WF centre and spread    8  ( -0.099601, -0.204959, -0.543969 )     1.73587277
  WF centre and spread    9  (  0.393024, -0.345065,  0.278791 )     1.76591616
  Sum of centres and spreads ( -0.004408, -0.003455,  0.004891 )    13.09637729
 
     41    -0.575E-03     0.0142062170       13.0963772912       0.47  <-- CONV
        O_D=      0.0035992 O_OD=      2.3406724 O_TOT=     13.0963773 <-- SPRD
 Delta: O_D= -0.2381509E-04 O_OD= -0.5509837E-03 O_TOT= -0.5747988E-03 <-- DLTA
 ------------------------------------------------------------------------------
 Cycle:     42
  WF centre and spread    1  ( -0.126944,  0.160974,  0.513879 )     1.69612270
  WF centre and spread    2  (  0.299566,  0.003951, -0.197162 )     1.18924523
  WF centre and spread    3  (  0.031748, -0.082420, -0.033942 )     0.64580256
  WF centre and spread    4  ( -0.476802,  0.252508, -0.091594 )     1.67409610
  WF centre and spread    5  (  0.022276,  0.303697, -0.195462 )     1.21397367
  WF centre and spread    6  (  0.300111,  0.324059,  0.135069 )     1.44151203
  WF centre and spread    7  ( -0.348466, -0.414855,  0.140010 )     1.73040108
  WF centre and spread    8  ( -0.099447, -0.205577, -0.544696 )     1.73738255
  WF centre and spread    9  (  0.393580, -0.345806,  0.278776 )     1.76740994
  Sum of centres and spreads ( -0.004377, -0.003469,  0.004879 )    13.09594587
 
     42    -0.431E-03     0.0120777789       13.0959458657       0.48  <-- CONV
        O_D=      0.0036421 O_OD=      2.3401981 O_TOT=     13.0959459 <-- SPRD
 Delta: O_D=  0.4290698E-04 O_OD= -0.4743325E-03 O_TOT= -0.4314255E-03 <-- DLTA
 ------------------------------------------------------------------------------
 Cycle:     43
  WF centre and spread    1  ( -0.126989,  0.160951,  0.513800 )     1.69590353
  WF centre and spread    2  (  0.299458,  0.003947, -0.197094 )     1.18902599
  WF centre and spread    3  (  0.031651, -0.082198, -0.033841 )     0.64541919
  WF centre and spread    4  ( -0.476812,  0.252558, -0.091576 )     1.67410486
  WF centre and spread    5  (  0.022270,  0.303567, -0.195417 )     1.21372021
  WF centre and spread    6  (  0.300173,  0.324146,  0.135074 )     1.44177741
  WF centre and spread    7  ( -0.348389, -0.414818,  0.139976 )     1.73034196
  WF centre and spread    8  ( -0.099417, -0.205692, -0.544812 )     1.73764856
  WF centre and spread    9  (  0.393675, -0.345943,  0.278769 )     1.76761133
  Sum of centres and spreads ( -0.004380, -0.003482,  0.004879 )    13.09555304
 
     43    -0.393E-03     0.0149879425       13.0955530396       0.49  <-- CONV
        O_D=      0.0035965 O_OD=      2.3398509 O_TOT=     13.0955530 <-- SPRD
 Delta: O_D= -0.4560861E-04 O_OD= -0.3472175E-03 O_TOT= -0.3928261E-03 <-- DLTA
 ------------------------------------------------------------------------------
 Cycle:     44
  WF centre and spread    1  ( -0.127155,  0.160874,  0.513527 )     1.69528938
  WF centre and spread    2  (  0.299072,  0.003931, -0.196856 )     1.18831222
  WF centre and spread    3  (  0.031304, -0.081406, -0.033478 )     0.64409393
  WF centre and spread    4  ( -0.476852,  0.252741, -0.091510 )     1.67427668
  WF centre and spread    5  (  0.022250,  0.303105, -0.195260 )     1.21284941
  WF centre and spread    6  (  0.300401,  0.324466,  0.135094 )     1.44278916
  WF centre and spread    7  ( -0.348118, -0.414689,  0.139855 )     1.73020781
  WF centre and spread    8  ( -0.099310, -0.206108, -0.545242 )     1.73873054
  WF centre and spread    9  (  0.394021, -0.346437,  0.278747 )     1.76847639
  Sum of centres and spreads ( -0.004388, -0.003523,  0.004877 )    13.09502551
 
     44    -0.528E-03     0.0115491030       13.0950255125       0.50  <-- CONV
        O_D=      0.0036148 O_OD=      2.3393050 O_TOT=     13.0950255 <-- SPRD
 Delta: O_D=  0.1834096E-04 O_OD= -0.5458680E-03 O_TOT= -0.5275271E-03 <-- DLTA
 ------------------------------------------------------------------------------
 Cycle:     45
  WF centre and spread    1  ( -0.127456,  0.160747,  0.513092 )     1.69437108
  WF centre and spread    2  (  0.298426,  0.003900, -0.196454 )     1.18712376
  WF centre and spread    3  (  0.030713, -0.080056, -0.032860 )     0.64184840
  WF centre and spread    4  ( -0.476941,  0.253060, -0.091393 )     1.67463905
  WF centre and spread    5  (  0.022216,  0.302327, -0.194997 )     1.21133557
  WF centre and spread    6  (  0.300808,  0.325036,  0.135137 )     1.44451870
  WF centre and spread    7  ( -0.347666, -0.414482,  0.139656 )     1.72992953
  WF centre and spread    8  ( -0.099125, -0.206826, -0.546010 )     1.74062027
  WF centre and spread    9  (  0.394629, -0.347294,  0.278713 )     1.77001650
  Sum of centres and spreads ( -0.004396, -0.003588,  0.004884 )    13.09440287
 
     45    -0.623E-03     0.0134505111       13.0944028687       0.51  <-- CONV
        O_D=      0.0036684 O_OD=      2.3386288 O_TOT=     13.0944029 <-- SPRD
 Delta: O_D=  0.5359626E-04 O_OD= -0.6762401E-03 O_TOT= -0.6226438E-03 <-- DLTA
 ------------------------------------------------------------------------------
 Cycle:     46
  WF centre and spread    1  ( -0.127936,  0.160559,  0.512478 )     1.69307136
  WF centre and spread    2  (  0.297458,  0.003850, -0.195847 )     1.18534234
  WF centre and spread    3  (  0.029823, -0.078024, -0.031928 )     0.63851910
  WF centre and spread    4  ( -0.477101,  0.253547, -0.091205 )     1.67517203
  WF centre and spread    5  (  0.022168,  0.301159, -0.194607 )     1.20903962
  WF centre and spread    6  (  0.301453,  0.325932,  0.135212 )     1.44717325
  WF centre and spread    7  ( -0.346987, -0.414177,  0.139363 )     1.72943632
  WF centre and spread    8  ( -0.098833, -0.207921, -0.547215 )     1.74347958
  WF centre and spread    9  (  0.395567, -0.348601,  0.278658 )     1.77241495
  Sum of centres and spreads ( -0.004389, -0.003676,  0.004908 )    13.09364857
 
     46    -0.754E-03     0.0146430115       13.0936485660       0.52  <-- CONV
        O_D=      0.0037732 O_OD=      2.3377697 O_TOT=     13.0936486 <-- SPRD
 Delta: O_D=  0.1047371E-03 O_OD= -0.8590398E-03 O_TOT= -0.7543027E-03 <-- DLTA
 ------------------------------------------------------------------------------
 Cycle:     47
  WF centre and spread    1  ( -0.128845,  0.160193,  0.511358 )     1.69063175
  WF centre and spread    2  (  0.295634,  0.003752, -0.194692 )     1.18201628
  WF centre and spread    3  (  0.028179, -0.074272, -0.030199 )     0.63254592
  WF centre and spread    4  ( -0.477408,  0.254449, -0.090843 )     1.67591261
  WF centre and spread    5  (  0.022074,  0.298971, -0.193879 )     1.20486717
  WF centre and spread    6  (  0.302689,  0.327647,  0.135359 )     1.45231634
  WF centre and spread    7  ( -0.345706, -0.413581,  0.138807 )     1.72848878
  WF centre and spread    8  ( -0.098259, -0.209951, -0.549471 )     1.74874637
  WF centre and spread    9  (  0.397304, -0.351022,  0.278512 )     1.77690608
  Sum of centres and spreads ( -0.004338, -0.003814,  0.004953 )    13.09243130
 
     47    -0.122E-02     0.0162210394       13.0924313038       0.53  <-- CONV
        O_D=      0.0039756 O_OD=      2.3363500 O_TOT=     13.0924313 <-- SPRD
 Delta: O_D=  0.2024778E-03 O_OD= -0.1419740E-02 O_TOT= -0.1217262E-02 <-- DLTA
 ------------------------------------------------------------------------------
 Cycle:     48
  WF centre and spread    1  ( -0.130197,  0.159608,  0.509634 )     1.68674254
  WF centre and spread    2  (  0.292804,  0.003605, -0.192882 )     1.17687806
  WF centre and spread    3  (  0.025742, -0.068704, -0.027619 )     0.62401143
  WF centre and spread    4  ( -0.477829,  0.255789, -0.090281 )     1.67660743
  WF centre and spread    5  (  0.021914,  0.295614, -0.192760 )     1.19874109
  WF centre and spread    6  (  0.304572,  0.330258,  0.135563 )     1.46040452
  WF centre and spread    7  ( -0.343727, -0.412606,  0.137930 )     1.72714698
  WF centre and spread    8  ( -0.097344, -0.212962, -0.552788 )     1.75655831
  WF centre and spread    9  (  0.399838, -0.354589,  0.278180 )     1.78362320
  Sum of centres and spreads ( -0.004227, -0.003986,  0.004978 )    13.09071356
 
     48    -0.172E-02     0.0218453103       13.0907135599       0.55  <-- CONV
        O_D=      0.0042984 O_OD=      2.3343095 O_TOT=     13.0907136 <-- SPRD
 Delta: O_D=  0.3227374E-03 O_OD= -0.2040481E-02 O_TOT= -0.1717744E-02 <-- DLTA
 ------------------------------------------------------------------------------
 Cycle:     49
  WF centre and spread    1  ( -0.130226,  0.159575,  0.509569 )     1.68626240
  WF centre and spread    2  (  0.292682,  0.003597, -0.192803 )     1.17652510
  WF centre and spread    3  (  0.025674, -0.068548, -0.027547 )     0.62373325
  WF centre and spread    4  ( -0.477826,  0.255823, -0.090262 )     1.67622454
  WF centre and spread    5  (  0.021905,  0.295485, -0.192718 )     1.19855088
  WF centre and spread    6  (  0.304632,  0.330342,  0.135564 )     1.46069688
  WF centre and spread    7  ( -0.343654, -0.412544,  0.137886 )     1.72700687
  WF centre and spread    8  ( -0.097294, -0.213034, -0.552873 )     1.75654440
  WF centre and spread    9  (  0.399897, -0.354670,  0.278133 )     1.78364173
  Sum of centres and spreads ( -0.004210, -0.003975,  0.004949 )    13.08918605
 
     49    -0.153E-02     0.0308686660       13.0891860459       0.56  <-- CONV
        O_D=      0.0039710 O_OD=      2.3331094 O_TOT=     13.0891860 <-- SPRD
 Delta: O_D= -0.3273518E-03 O_OD= -0.1200162E-02 O_TOT= -0.1527514E-02 <-- DLTA
 ------------------------------------------------------------------------------
 Cycle:     50
  WF centre and spread    1  ( -0.130294,  0.159499,  0.509436 )     1.68565374
  WF centre and spread    2  (  0.292417,  0.003582, -0.192631 )     1.17591414
  WF centre and spread    3  (  0.025522, -0.068200, -0.027388 )     0.62319066
  WF centre and spread    4  ( -0.477831,  0.255902, -0.090227 )     1.67581774
  WF centre and spread    5  (  0.021885,  0.295203, -0.192627 )     1.19820763
  WF centre and spread    6  (  0.304779,  0.330543,  0.135572 )     1.46150237
  WF centre and spread    7  ( -0.343500, -0.412417,  0.137800 )     1.72693209
  WF centre and spread    8  ( -0.097187, -0.213201, -0.553069 )     1.75687393
  WF centre and spread    9  (  0.400032, -0.354862,  0.278038 )     1.78405363
  Sum of centres and spreads ( -0.004176, -0.003951,  0.004904 )    13.08814593
 
     50    -0.104E-02     0.0203464823       13.0881459331       0.57  <-- CONV
        O_D=      0.0037748 O_OD=      2.3322655 O_TOT=     13.0881459 <-- SPRD
 Delta: O_D= -0.1962083E-03 O_OD= -0.8439045E-03 O_TOT= -0.1040113E-02 <-- DLTA
 ------------------------------------------------------------------------------
 Cycle:     51
  WF centre and spread    1  ( -0.130397,  0.159401,  0.509293 )     1.68517457
  WF centre and spread    2  (  0.292084,  0.003568, -0.192414 )     1.17517596
  WF centre and spread    3  (  0.025323, -0.067742, -0.027180 )     0.62243529
  WF centre and spread    4  ( -0.477871,  0.256019, -0.090191 )     1.67564108
  WF centre and spread    5  (  0.021862,  0.294846, -0.192517 )     1.19762357
  WF centre and spread    6  (  0.305002,  0.330836,  0.135598 )     1.46251662
  WF centre and spread    7  ( -0.343318, -0.412277,  0.137709 )     1.72678913
  WF centre and spread    8  ( -0.097050, -0.213439, -0.553357 )     1.75746639
  WF centre and spread    9  (  0.400226, -0.355141,  0.277939 )     1.78472056
  Sum of centres and spreads ( -0.004139, -0.003928,  0.004882 )    13.08754317
 
     51    -0.603E-03     0.0148835899       13.0875431687       0.58  <-- CONV
        O_D=      0.0036758 O_OD=      2.3317617 O_TOT=     13.0875432 <-- SPRD
 Delta: O_D= -0.9900529E-04 O_OD= -0.5037591E-03 O_TOT= -0.6027644E-03 <-- DLTA
 ------------------------------------------------------------------------------
 Cycle:     52
  WF centre and spread    1  ( -0.130554,  0.159264,  0.509116 )     1.68469087
  WF centre and spread    2  (  0.291618,  0.003554, -0.192110 )     1.17414204
  WF centre and spread    3  (  0.025040, -0.067085, -0.026882 )     0.62131594
  WF centre and spread    4  ( -0.477958,  0.256203, -0.090151 )     1.67567956
  WF centre and spread    5  (  0.021830,  0.294341, -0.192366 )     1.19665202
  WF centre and spread    6  (  0.305347,  0.331282,  0.135645 )     1.46389737
  WF centre and spread    7  ( -0.343081, -0.412099,  0.137597 )     1.72652080
  WF centre and spread    8  ( -0.096857, -0.213798, -0.553793 )     1.75840919
  WF centre and spread    9  (  0.400520, -0.355569,  0.277820 )     1.78572723
  Sum of centres and spreads ( -0.004095, -0.003907,  0.004876 )    13.08703502
 
     52    -0.508E-03     0.0132684753       13.0870350195       0.59  <-- CONV
        O_D=      0.0036167 O_OD=      2.3313126 O_TOT=     13.0870350 <-- SPRD
 Delta: O_D= -0.5905890E-04 O_OD= -0.4490903E-03 O_TOT= -0.5081492E-03 <-- DLTA
 ------------------------------------------------------------------------------
 Cycle:     53
  WF centre and spread    1  ( -0.130740,  0.159099,  0.508908 )     1.68420184
  WF centre and spread    2  (  0.291053,  0.003543, -0.191745 )     1.17291125
  WF centre and spread    3  (  0.024702, -0.066299, -0.026528 )     0.61996679
  WF centre and spread    4  ( -0.478075,  0.256437, -0.090118 )     1.67591354
  WF centre and spread    5  (  0.021791,  0.293729, -0.192186 )     1.19541427
[...]
        O_D=      0.0034902 O_OD=      2.2017071 O_TOT=     12.9573030 <-- SPRD
 Delta: O_D= -0.1740870E-04 O_OD= -0.4543784E-03 O_TOT= -0.4717871E-03 <-- DLTA
 ------------------------------------------------------------------------------
 Cycle:    186
  WF centre and spread    1  ( -0.128223,  0.118496,  0.511113 )     1.70862937
  WF centre and spread    2  (  0.084965, -0.000157, -0.051273 )     0.66826998
  WF centre and spread    3  (  0.002834, -0.008516, -0.004919 )     0.55725235
  WF centre and spread    4  ( -0.490304,  0.341797, -0.140798 )     1.85024342
  WF centre and spread    5  (  0.001834,  0.070775, -0.062340 )     0.66211797
  WF centre and spread    6  (  0.424293,  0.488459,  0.046155 )     1.93726468
  WF centre and spread    7  ( -0.354830, -0.409154,  0.106148 )     1.73688989
  WF centre and spread    8  (  0.032880, -0.212996, -0.619647 )     1.96364717
  WF centre and spread    9  (  0.426958, -0.389687,  0.217999 )     1.87264527
  Sum of centres and spreads (  0.000406, -0.000983,  0.002439 )    12.95696010
 
    186    -0.343E-03     0.0108428364       12.9569601026       2.35  <-- CONV
        O_D=      0.0035637 O_OD=      2.2012907 O_TOT=     12.9569601 <-- SPRD
 Delta: O_D=  0.7346870E-04 O_OD= -0.4163808E-03 O_TOT= -0.3429121E-03 <-- DLTA
 ------------------------------------------------------------------------------
 Cycle:    187
  WF centre and spread    1  ( -0.128204,  0.118529,  0.511181 )     1.70877573
  WF centre and spread    2  (  0.084798, -0.000159, -0.051163 )     0.66791501
  WF centre and spread    3  (  0.002829, -0.008500, -0.004916 )     0.55724575
  WF centre and spread    4  ( -0.490261,  0.341860, -0.140862 )     1.85028395
  WF centre and spread    5  (  0.001826,  0.070616, -0.062207 )     0.66175387
  WF centre and spread    6  (  0.424306,  0.488482,  0.045974 )     1.93735668
  WF centre and spread    7  ( -0.354891, -0.409208,  0.106095 )     1.73703563
  WF centre and spread    8  (  0.033023, -0.212936, -0.619630 )     1.96364939
  WF centre and spread    9  (  0.426983, -0.389666,  0.217954 )     1.87260784
  Sum of centres and spreads (  0.000409, -0.000982,  0.002427 )    12.95662385
 
    187    -0.336E-03     0.0142433231       12.9566238466       2.36  <-- CONV
        O_D=      0.0034889 O_OD=      2.2010293 O_TOT=     12.9566238 <-- SPRD
 Delta: O_D= -0.7479650E-04 O_OD= -0.2614594E-03 O_TOT= -0.3362559E-03 <-- DLTA
 ------------------------------------------------------------------------------
 Cycle:    188
  WF centre and spread    1  ( -0.128136,  0.118654,  0.511451 )     1.70946752
  WF centre and spread    2  (  0.084175, -0.000163, -0.050752 )     0.66660944
  WF centre and spread    3  (  0.002809, -0.008442, -0.004905 )     0.55725254
  WF centre and spread    4  ( -0.490099,  0.342099, -0.141103 )     1.85058380
  WF centre and spread    5  (  0.001798,  0.070017, -0.061709 )     0.66040476
  WF centre and spread    6  (  0.424357,  0.488571,  0.045294 )     1.93777445
  WF centre and spread    7  ( -0.355127, -0.409417,  0.105901 )     1.73765797
  WF centre and spread    8  (  0.033560, -0.212710, -0.619580 )     1.96381264
  WF centre and spread    9  (  0.427080, -0.389588,  0.217791 )     1.87260304
  Sum of centres and spreads (  0.000417, -0.000980,  0.002388 )    12.95616615
 
    188    -0.458E-03     0.0107119001       12.9561661512       2.37  <-- CONV
        O_D=      0.0035005 O_OD=      2.2005599 O_TOT=     12.9561662 <-- SPRD
 Delta: O_D=  0.1164426E-04 O_OD= -0.4693397E-03 O_TOT= -0.4576955E-03 <-- DLTA
 ------------------------------------------------------------------------------
 Cycle:    189
  WF centre and spread    1  ( -0.128008,  0.118892,  0.512003 )     1.71087258
  WF centre and spread    2  (  0.083007, -0.000170, -0.049983 )     0.66411647
  WF centre and spread    3  (  0.002772, -0.008332, -0.004886 )     0.55725338
  WF centre and spread    4  ( -0.489798,  0.342544, -0.141565 )     1.85126721
  WF centre and spread    5  (  0.001747,  0.068896, -0.060776 )     0.65781522
  WF centre and spread    6  (  0.424449,  0.488740,  0.044016 )     1.93854454
  WF centre and spread    7  ( -0.355585, -0.409827,  0.105539 )     1.73877782
  WF centre and spread    8  (  0.034571, -0.212282, -0.619512 )     1.96421782
  WF centre and spread    9  (  0.427271, -0.389441,  0.217496 )     1.87268564
  Sum of centres and spreads (  0.000426, -0.000982,  0.002331 )    12.95555068
 
    189    -0.615E-03     0.0134345576       12.9555506824       2.38  <-- CONV
        O_D=      0.0035596 O_OD=      2.1998854 O_TOT=     12.9555507 <-- SPRD
 Delta: O_D=  0.5907001E-04 O_OD= -0.6745388E-03 O_TOT= -0.6154688E-03 <-- DLTA
 ------------------------------------------------------------------------------
 Cycle:    190
  WF centre and spread    1  ( -0.127816,  0.119253,  0.512889 )     1.71308719
  WF centre and spread    2  (  0.081278, -0.000180, -0.048845 )     0.66036549
  WF centre and spread    3  (  0.002718, -0.008168, -0.004858 )     0.55724986
  WF centre and spread    4  ( -0.489348,  0.343196, -0.142260 )     1.85238764
  WF centre and spread    5  (  0.001674,  0.067236, -0.059393 )     0.65390999
  WF centre and spread    6  (  0.424573,  0.488983,  0.042111 )     1.93964053
  WF centre and spread    7  ( -0.356284, -0.410458,  0.105002 )     1.74036520
  WF centre and spread    8  (  0.036077, -0.211633, -0.619444 )     1.96489133
  WF centre and spread    9  (  0.427566, -0.389219,  0.217072 )     1.87291540
  Sum of centres and spreads (  0.000438, -0.000991,  0.002274 )    12.95481264
 
    190    -0.738E-03     0.0144355679       12.9548126359       2.39  <-- CONV
        O_D=      0.0037065 O_OD=      2.1990005 O_TOT=     12.9548126 <-- SPRD
 Delta: O_D=  0.1468670E-03 O_OD= -0.8849135E-03 O_TOT= -0.7380465E-03 <-- DLTA
 ------------------------------------------------------------------------------
 Cycle:    191
  WF centre and spread    1  ( -0.127474,  0.119877,  0.514460 )     1.71693856
  WF centre and spread    2  (  0.078352, -0.000195, -0.046925 )     0.65401787
  WF centre and spread    3  (  0.002625, -0.007891, -0.004812 )     0.55722409
  WF centre and spread    4  ( -0.488559,  0.344286, -0.143448 )     1.85429997
  WF centre and spread    5  (  0.001556,  0.064437, -0.057051 )     0.64731918
  WF centre and spread    6  (  0.424734,  0.489351,  0.038863 )     1.94149140
  WF centre and spread    7  ( -0.357479, -0.411543,  0.104075 )     1.74303855
  WF centre and spread    8  (  0.038634, -0.210499, -0.619326 )     1.96599668
  WF centre and spread    9  (  0.428072, -0.388816,  0.216355 )     1.87339648
  Sum of centres and spreads (  0.000460, -0.000991,  0.002192 )    12.95372278
 
    191    -0.109E-02     0.0161716446       12.9537227772       2.40  <-- CONV
        O_D=      0.0039842 O_OD=      2.1976329 O_TOT=     12.9537228 <-- SPRD
 Delta: O_D=  0.2777568E-03 O_OD= -0.1367615E-02 O_TOT= -0.1089859E-02 <-- DLTA
 ------------------------------------------------------------------------------
 Cycle:    192
  WF centre and spread    1  ( -0.126956,  0.120783,  0.516704 )     1.72231597
  WF centre and spread    2  (  0.074237, -0.000212, -0.044236 )     0.64530235
  WF centre and spread    3  (  0.002495, -0.007501, -0.004749 )     0.55717993
  WF centre and spread    4  ( -0.487384,  0.345801, -0.145121 )     1.85683349
  WF centre and spread    5  (  0.001401,  0.060527, -0.053754 )     0.63833564
  WF centre and spread    6  (  0.424858,  0.489765,  0.034256 )     1.94410428
  WF centre and spread    7  ( -0.359153, -0.413061,  0.102718 )     1.74694000
  WF centre and spread    8  (  0.042232, -0.208845, -0.619080 )     1.96724121
  WF centre and spread    9  (  0.428773, -0.388196,  0.215322 )     1.87404379
  Sum of centres and spreads (  0.000504, -0.000941,  0.002060 )    12.95229666
 
    192    -0.143E-02     0.0202126081       12.9522966563       2.41  <-- CONV
        O_D=      0.0044352 O_OD=      2.1957558 O_TOT=     12.9522967 <-- SPRD
 Delta: O_D=  0.4510042E-03 O_OD= -0.1877125E-02 O_TOT= -0.1426121E-02 <-- DLTA
 ------------------------------------------------------------------------------
 Cycle:    193
  WF centre and spread    1  ( -0.126928,  0.120825,  0.516791 )     1.72230637
  WF centre and spread    2  (  0.074096, -0.000215, -0.044144 )     0.64494049
  WF centre and spread    3  (  0.002490, -0.007489, -0.004747 )     0.55712481
  WF centre and spread    4  ( -0.487322,  0.345846, -0.145175 )     1.85665180
  WF centre and spread    5  (  0.001396,  0.060395, -0.053643 )     0.63798190
  WF centre and spread    6  (  0.424835,  0.489749,  0.034086 )     1.94411806
  WF centre and spread    7  ( -0.359198, -0.413105,  0.102654 )     1.74703425
  WF centre and spread    8  (  0.042355, -0.208763, -0.619057 )     1.96692360
  WF centre and spread    9  (  0.428792, -0.388150,  0.215274 )     1.87385036
  Sum of centres and spreads (  0.000515, -0.000907,  0.002040 )    12.95093163
 
    193    -0.137E-02     0.0287518687       12.9509316341       2.42  <-- CONV
        O_D=      0.0039508 O_OD=      2.1948751 O_TOT=     12.9509316 <-- SPRD
 Delta: O_D= -0.4844096E-03 O_OD= -0.8806126E-03 O_TOT= -0.1365022E-02 <-- DLTA
 ------------------------------------------------------------------------------
 Cycle:    194
  WF centre and spread    1  ( -0.126866,  0.120917,  0.516998 )     1.72261402
  WF centre and spread    2  (  0.073772, -0.000221, -0.043933 )     0.64420676
  WF centre and spread    3  (  0.002480, -0.007462, -0.004743 )     0.55707630
  WF centre and spread    4  ( -0.487185,  0.345949, -0.145304 )     1.85660236
  WF centre and spread    5  (  0.001383,  0.060095, -0.053389 )     0.63726017
  WF centre and spread    6  (  0.424790,  0.489722,  0.033698 )     1.94435278
  WF centre and spread    7  ( -0.359313, -0.413213,  0.102517 )     1.74747447
  WF centre and spread    8  (  0.042638, -0.208582, -0.619009 )     1.96660154
  WF centre and spread    9  (  0.428837, -0.388051,  0.215174 )     1.87375736
  Sum of centres and spreads (  0.000534, -0.000846,  0.002008 )    12.94994576
 
    194    -0.986E-03     0.0194481873       12.9499457649       2.43  <-- CONV
        O_D=      0.0036673 O_OD=      2.1941728 O_TOT=     12.9499458 <-- SPRD
 Delta: O_D= -0.2835754E-03 O_OD= -0.7022938E-03 O_TOT= -0.9858692E-03 <-- DLTA
 ------------------------------------------------------------------------------
 Cycle:    195
  WF centre and spread    1  ( -0.126790,  0.121042,  0.517306 )     1.72322208
  WF centre and spread    2  (  0.073329, -0.000226, -0.043646 )     0.64320723
  WF centre and spread    3  (  0.002465, -0.007422, -0.004738 )     0.55703107
  WF centre and spread    4  ( -0.487015,  0.346092, -0.145491 )     1.85673638
  WF centre and spread    5  (  0.001367,  0.059684, -0.053043 )     0.63625429
  WF centre and spread    6  (  0.424747,  0.489704,  0.033172 )     1.94462286
  WF centre and spread    7  ( -0.359494, -0.413385,  0.102343 )     1.74801572
  WF centre and spread    8  (  0.043032, -0.208352, -0.618967 )     1.96642473
  WF centre and spread    9  (  0.428912, -0.387936,  0.215053 )     1.87379223
  Sum of centres and spreads (  0.000553, -0.000798,  0.001988 )    12.94930659
 
    195    -0.639E-03     0.0151878253       12.9493065890       2.44  <-- CONV
        O_D=      0.0035265 O_OD=      2.1936744 O_TOT=     12.9493066 <-- SPRD
 Delta: O_D= -0.1407688E-03 O_OD= -0.4984071E-03 O_TOT= -0.6391759E-03 <-- DLTA
 ------------------------------------------------------------------------------
 Cycle:    196
  WF centre and spread    1  ( -0.126698,  0.121214,  0.517741 )     1.72414341
  WF centre and spread    2  (  0.072732, -0.000231, -0.043259 )     0.64188236
  WF centre and spread    3  (  0.002445, -0.007366, -0.004730 )     0.55699159
  WF centre and spread    4  ( -0.486803,  0.346293, -0.145753 )     1.85704687
  WF centre and spread    5  (  0.001346,  0.059129, -0.052574 )     0.63491084
  WF centre and spread    6  (  0.424710,  0.489700,  0.032465 )     1.94488474
  WF centre and spread    7  ( -0.359760, -0.413637,  0.102119 )     1.74867205
  WF centre and spread    8  (  0.043568, -0.208063, -0.618931 )     1.96634545
  WF centre and spread    9  (  0.429025, -0.387805,  0.214904 )     1.87391630
  Sum of centres and spreads (  0.000566, -0.000767,  0.001982 )    12.94879362
 
    196    -0.513E-03     0.0132948641       12.9487936156       2.46  <-- CONV
        O_D=      0.0034682 O_OD=      2.1932197 O_TOT=     12.9487936 <-- SPRD
 Delta: O_D= -0.5828364E-04 O_OD= -0.4546898E-03 O_TOT= -0.5129734E-03 <-- DLTA
 ------------------------------------------------------------------------------
 Cycle:    197
  WF centre and spread    1  ( -0.126606,  0.121401,  0.518201 )     1.72515057
  WF centre and spread    2  (  0.072090, -0.000235, -0.042843 )     0.64050224
  WF centre and spread    3  (  0.002423, -0.007305, -0.004720 )     0.55695926
  WF centre and spread    4  ( -0.486586,  0.346517, -0.146038 )     1.85742328
  WF centre and spread    5  (  0.001325,  0.058532, -0.052071 )     0.63351379
  WF centre and spread    6  (  0.424683,  0.489703,  0.031708 )     1.94511864
  WF centre and spread    7  ( -0.360055, -0.413916,  0.101883 )     1.74936501
  WF centre and spread    8  (  0.044145, -0.207767, -0.618888 )     1.96632892
  WF centre and spread    9  (  0.429152, -0.387680,  0.214748 )     1.87406072
  Sum of centres and spreads (  0.000572, -0.000750,  0.001978 )    12.94842243
 
    197    -0.371E-03     0.0121593096       12.9484224302       2.47  <-- CONV
        O_D=      0.0034536 O_OD=      2.1928631 O_TOT=     12.9484224 <-- SPRD
 Delta: O_D= -0.1458552E-04 O_OD= -0.3565999E-03 O_TOT= -0.3711854E-03 <-- DLTA
 ------------------------------------------------------------------------------
 Cycle:    198
  WF centre and spread    1  ( -0.126509,  0.121612,  0.518676 )     1.72623399
  WF centre and spread    2  (  0.071377, -0.000239, -0.042384 )     0.63904892
  WF centre and spread    3  (  0.002399, -0.007238, -0.004709 )     0.55694651
  WF centre and spread    4  ( -0.486351,  0.346772, -0.146353 )     1.85781170
  WF centre and spread    5  (  0.001303,  0.057873, -0.051514 )     0.63205239
  WF centre and spread    6  (  0.424662,  0.489708,  0.030872 )     1.94536645
  WF centre and spread    7  ( -0.360380, -0.414220,  0.101620 )     1.75017944
  WF centre and spread    8  (  0.044784, -0.207454, -0.618814 )     1.96632501
  WF centre and spread    9  (  0.429292, -0.387552,  0.214570 )     1.87418862
  Sum of centres and spreads (  0.000577, -0.000737,  0.001964 )    12.94815303
 
    198    -0.269E-03     0.0096103636       12.9481530259       2.48  <-- CONV
        O_D=      0.0035122 O_OD=      2.1925352 O_TOT=     12.9481530 <-- SPRD
 Delta: O_D=  0.5853544E-04 O_OD= -0.3279398E-03 O_TOT= -0.2694043E-03 <-- DLTA
 ------------------------------------------------------------------------------
 Cycle:    199
  WF centre and spread    1  ( -0.126491,  0.121654,  0.518748 )     1.72639107
  WF centre and spread    2  (  0.071237, -0.000239, -0.042295 )     0.63877662
  WF centre and spread    3  (  0.002394, -0.007225, -0.004706 )     0.55694201
  WF centre and spread    4  ( -0.486305,  0.346824, -0.146412 )     1.85783300
  WF centre and spread    5  (  0.001298,  0.057746, -0.051405 )     0.63178474
  WF centre and spread    6  (  0.424660,  0.489708,  0.030709 )     1.94539137
  WF centre and spread    7  ( -0.360440, -0.414275,  0.101567 )     1.75033107
  WF centre and spread    8  (  0.044908, -0.207398, -0.618784 )     1.96628399
  WF centre and spread    9  (  0.429316, -0.387529,  0.214532 )     1.87415507
  Sum of centres and spreads (  0.000578, -0.000736,  0.001954 )    12.94788894
 
    199    -0.264E-03     0.0126401184       12.9478889402       2.49  <-- CONV
        O_D=      0.0034523 O_OD=      2.1923310 O_TOT=     12.9478889 <-- SPRD
 Delta: O_D= -0.5985494E-04 O_OD= -0.2042307E-03 O_TOT= -0.2640857E-03 <-- DLTA
 ------------------------------------------------------------------------------
 Cycle:    200
  WF centre and spread    1  ( -0.126425,  0.121813,  0.519035 )     1.72709691
  WF centre and spread    2  (  0.070713, -0.000241, -0.041959 )     0.63777308
  WF centre and spread    3  (  0.002376, -0.007175, -0.004696 )     0.55694959
  WF centre and spread    4  ( -0.486135,  0.347018, -0.146638 )     1.85803219
  WF centre and spread    5  (  0.001283,  0.057267, -0.050998 )     0.63079235
  WF centre and spread    6  (  0.424653,  0.489707,  0.030098 )     1.94553726
  WF centre and spread    7  ( -0.360670, -0.414487,  0.101369 )     1.75095747
  WF centre and spread    8  (  0.045376, -0.207189, -0.618682 )     1.96625390
  WF centre and spread    9  (  0.429412, -0.387446,  0.214391 )     1.87413712
  Sum of centres and spreads (  0.000583, -0.000734,  0.001919 )    12.94752987
 
    200    -0.359E-03     0.0094879917       12.9475298720       2.50  <-- CONV
        O_D=      0.0034618 O_OD=      2.1919624 O_TOT=     12.9475299 <-- SPRD
 Delta: O_D=  0.9475041E-05 O_OD= -0.3685433E-03 O_TOT= -0.3590682E-03 <-- DLTA
 ------------------------------------------------------------------------------

 Writing checkpoint file ex4.chk... done

 Final State
  WF centre and spread    1  ( -0.126425,  0.121813,  0.519035 )     1.72709691
  WF centre and spread    2  (  0.070713, -0.000241, -0.041959 )     0.63777308
  WF centre and spread    3  (  0.002376, -0.007175, -0.004696 )     0.55694959
  WF centre and spread    4  ( -0.486135,  0.347018, -0.146638 )     1.85803219
  WF centre and spread    5  (  0.001283,  0.057267, -0.050998 )     0.63079235
  WF centre and spread    6  (  0.424653,  0.489707,  0.030098 )     1.94553726
  WF centre and spread    7  ( -0.360670, -0.414487,  0.101369 )     1.75095747
  WF centre and spread    8  (  0.045376, -0.207189, -0.618682 )     1.96625390
  WF centre and spread    9  (  0.429412, -0.387446,  0.214391 )     1.87413712
  Sum of centres and spreads (  0.000583, -0.000734,  0.001919 )    12.94752987
 
         Spreads (Ang^2)       Omega I      =    10.752105665
        ================       Omega D      =     0.003461773
                               Omega OD     =     2.191962434
    Final Spread (Ang^2)       Omega Total  =    12.947529872
 ------------------------------------------------------------------------------
 Time for wannierise            2.243 (sec)

 Writing checkpoint file ex4.chk... done

 *---------------------------------------------------------------------------*
 |                               PLOTTING                                    |
 *---------------------------------------------------------------------------*
 
 
 Calculating interpolated band-structure
 
 Time to calculate interpolated band structure       1.447 (sec)
 
 Time for plotting              1.576 (sec)
 Total Execution Time           4.626 (sec)

 *===========================================================================*
 |                             TIMING INFORMATION                            |
 *===========================================================================*
 |    Tag                                                Ncalls      Time (s)|
 |---------------------------------------------------------------------------|
 |kmesh: get                                        :         1         0.252|
 |overlap: allocate                                 :         1         0.001|
 |overlap: read                                     :         1         0.425|
 |dis: main                                         :         1         0.061|
 |wann: main                                        :         1         2.243|
 |plot: main                                        :         1         1.576|
 *---------------------------------------------------------------------------*
 
 All done: wannier90 exiting
