
     Program PWSCF v.6.6 starts on 12Dec2022 at 17:27:50 

     This program is part of the open-source Quantum ESPRESSO suite
     for quantum simulation of materials; please cite
         "P. Giannozzi et al., J. Phys.:Condens. Matter 21 395502 (2009);
         "P. Giannozzi et al., J. Phys.:Condens. Matter 29 465901 (2017);
          URL http://www.quantum-espresso.org", 
     in publications or presentations arising from this work. More details at
     http://www.quantum-espresso.org/quote

     Parallel version (MPI), running on    24 processors

     MPI processes distributed on     1 nodes
     R & G space division:  proc/nbgrp/npool/nimage =      24
     Fft bands division:     nmany     =       1
     Reading input from INCAR-scf.pw
Warning: card &CELL ignored
Warning: card     CELL_DYNAMICS  = "BFGS" ignored
Warning: card     ! CELL_DOFREE = "XY" ignored
Warning: card / ignored

     Current dimensions of program PWSCF are:
     Max number of different atomic species (ntypx) = 10
     Max number of k-points (npk) =  40000
     Max angular momentum in pseudopotentials (lmaxx) =  3

     Subspace diagonalization in iterative solution of the eigenvalue problem:
     a serial algorithm will be used

     Found symmetry operation: I + ( -0.5000  0.5000  0.0000)
     This is a supercell, fractional translations are disabled
     Message from routine setup:
     using ibrav=0 with symmetry is DISCOURAGED, use correct ibrav instead
 
     Parallelization info
     --------------------
     sticks:   dense  smooth     PW     G-vecs:    dense   smooth      PW
     Min          63      30      9                11371     3774     625
     Max          64      31     10                11394     3789     648
     Sum        1517     729    217               272977    90779   15079
 


     bravais-lattice index     =            0
     lattice parameter (alat)  =       8.0999  a.u.
     unit-cell volume          =    1446.0634 (a.u.)^3
     number of atoms/cell      =            4
     number of atomic types    =            2
     number of electrons       =        16.00
     number of Kohn-Sham states=            8
     kinetic-energy cutoff     =      60.0000  Ry
     charge density cutoff     =     500.0000  Ry
     convergence threshold     =      1.0E-10
     mixing beta               =       0.7000
     number of iterations used =            8  plain     mixing
     Exchange-correlation= PBE
                           (   1   4   3   4   0   0   0)
     nstep                     =          100


     celldm(1)=   8.099879  celldm(2)=   0.000000  celldm(3)=   0.000000
     celldm(4)=   0.000000  celldm(5)=   0.000000  celldm(6)=   0.000000

     crystal axes: (cart. coord. in units of alat)
               a(1) = (   1.000000   0.000000   0.000000 )  
               a(2) = (   0.000000   0.583178   0.000000 )  
               a(3) = (   0.000000   0.000000   4.666060 )  

     reciprocal axes: (cart. coord. in units 2 pi/alat)
               b(1) = (  1.000000  0.000000  0.000000 )  
               b(2) = (  0.000000  1.714741  0.000000 )  
               b(3) = (  0.000000  0.000000  0.214314 )  


     PseudoPot. # 1 for B  read from file:
     ./B_pbe_v1.01.uspp.F.UPF
     MD5 check sum: d081ebb89d0c768e112975f650467a00
     Pseudo is Ultrasoft + core correction, Zval =  3.0
     Generated by new atomic code, or converted to UPF format
     Using radial grid of  781 points,  4 beta functions with: 
                l(1) =   0
                l(2) =   0
                l(3) =   1
                l(4) =   1
     Q(r) pseudized with  8 coefficients,  rinner =    1.100   1.100   1.100


     PseudoPot. # 2 for N  read from file:
     ./N.oncvpsp.upf
     MD5 check sum: 563d65bfb082928f0c9eb97172f6c357
     Pseudo is Norm-conserving + core correction, Zval =  5.0
     Generated using ONCVPSP code by D. R. Hamann
     Using radial grid of 1058 points,  4 beta functions with: 
                l(1) =   0
                l(2) =   0
                l(3) =   1
                l(4) =   1

     atomic species   valence    mass     pseudopotential
        B              3.00    10.81100     B ( 1.00)
        N              5.00    14.00674     N ( 1.00)

      4 Sym. Ops. (no inversion) found



   Cartesian axes

     site n.     atom                  positions (alat units)
         1           N   tau(   1) = (   0.0000144   0.0000000   2.3330302  )
         2           B   tau(   2) = (   0.3333441   0.0000000   2.3330302  )
         3           N   tau(   3) = (   0.5000146   0.2915892   2.3330302  )
         4           B   tau(   4) = (   0.8333439   0.2915892   2.3330302  )

     number of k points=    64
                       cart. coord. in units 2pi/alat
        k(    1) = (   0.0000000   0.0000000   0.0000000), wk =   0.0102041
        k(    2) = (   0.0000000   0.1224815   0.0000000), wk =   0.0204082
        k(    3) = (   0.0000000   0.2449630   0.0000000), wk =   0.0204082
        k(    4) = (   0.0000000   0.3674445   0.0000000), wk =   0.0204082
        k(    5) = (   0.0000000   0.4899260   0.0000000), wk =   0.0204082
        k(    6) = (   0.0000000   0.6124075   0.0000000), wk =   0.0204082
        k(    7) = (   0.0000000   0.7348890   0.0000000), wk =   0.0204082
        k(    8) = (   0.0000000  -0.8573705   0.0000000), wk =   0.0102041
        k(    9) = (   0.0714286   0.0000000   0.0000000), wk =   0.0204082
        k(   10) = (   0.0714286   0.1224815   0.0000000), wk =   0.0408163
        k(   11) = (   0.0714286   0.2449630   0.0000000), wk =   0.0408163
        k(   12) = (   0.0714286   0.3674445   0.0000000), wk =   0.0408163
        k(   13) = (   0.0714286   0.4899260   0.0000000), wk =   0.0408163
        k(   14) = (   0.0714286   0.6124075   0.0000000), wk =   0.0408163
        k(   15) = (   0.0714286   0.7348890   0.0000000), wk =   0.0408163
        k(   16) = (   0.0714286  -0.8573705   0.0000000), wk =   0.0204082
        k(   17) = (   0.1428571   0.0000000   0.0000000), wk =   0.0204082
        k(   18) = (   0.1428571   0.1224815   0.0000000), wk =   0.0408163
        k(   19) = (   0.1428571   0.2449630   0.0000000), wk =   0.0408163
        k(   20) = (   0.1428571   0.3674445   0.0000000), wk =   0.0408163
        k(   21) = (   0.1428571   0.4899260   0.0000000), wk =   0.0408163
        k(   22) = (   0.1428571   0.6124075   0.0000000), wk =   0.0408163
        k(   23) = (   0.1428571   0.7348890   0.0000000), wk =   0.0408163
        k(   24) = (   0.1428571  -0.8573705   0.0000000), wk =   0.0204082
        k(   25) = (   0.2142857   0.0000000   0.0000000), wk =   0.0204082
        k(   26) = (   0.2142857   0.1224815   0.0000000), wk =   0.0408163
        k(   27) = (   0.2142857   0.2449630   0.0000000), wk =   0.0408163
        k(   28) = (   0.2142857   0.3674445   0.0000000), wk =   0.0408163
        k(   29) = (   0.2142857   0.4899260   0.0000000), wk =   0.0408163
        k(   30) = (   0.2142857   0.6124075   0.0000000), wk =   0.0408163
        k(   31) = (   0.2142857   0.7348890   0.0000000), wk =   0.0408163
        k(   32) = (   0.2142857  -0.8573705   0.0000000), wk =   0.0204082
        k(   33) = (   0.2857143   0.0000000   0.0000000), wk =   0.0204082
        k(   34) = (   0.2857143   0.1224815   0.0000000), wk =   0.0408163
        k(   35) = (   0.2857143   0.2449630   0.0000000), wk =   0.0408163
        k(   36) = (   0.2857143   0.3674445   0.0000000), wk =   0.0408163
        k(   37) = (   0.2857143   0.4899260   0.0000000), wk =   0.0408163
        k(   38) = (   0.2857143   0.6124075   0.0000000), wk =   0.0408163
        k(   39) = (   0.2857143   0.7348890   0.0000000), wk =   0.0408163
        k(   40) = (   0.2857143  -0.8573705   0.0000000), wk =   0.0204082
        k(   41) = (   0.3571429   0.0000000   0.0000000), wk =   0.0204082
        k(   42) = (   0.3571429   0.1224815   0.0000000), wk =   0.0408163
        k(   43) = (   0.3571429   0.2449630   0.0000000), wk =   0.0408163
        k(   44) = (   0.3571429   0.3674445   0.0000000), wk =   0.0408163
        k(   45) = (   0.3571429   0.4899260   0.0000000), wk =   0.0408163
        k(   46) = (   0.3571429   0.6124075   0.0000000), wk =   0.0408163
        k(   47) = (   0.3571429   0.7348890   0.0000000), wk =   0.0408163
        k(   48) = (   0.3571429  -0.8573705   0.0000000), wk =   0.0204082
        k(   49) = (   0.4285714   0.0000000   0.0000000), wk =   0.0204082
        k(   50) = (   0.4285714   0.1224815   0.0000000), wk =   0.0408163
        k(   51) = (   0.4285714   0.2449630   0.0000000), wk =   0.0408163
        k(   52) = (   0.4285714   0.3674445   0.0000000), wk =   0.0408163
        k(   53) = (   0.4285714   0.4899260   0.0000000), wk =   0.0408163
        k(   54) = (   0.4285714   0.6124075   0.0000000), wk =   0.0408163
        k(   55) = (   0.4285714   0.7348890   0.0000000), wk =   0.0408163
        k(   56) = (   0.4285714  -0.8573705   0.0000000), wk =   0.0204082
        k(   57) = (  -0.5000000   0.0000000   0.0000000), wk =   0.0102041
        k(   58) = (  -0.5000000   0.1224815   0.0000000), wk =   0.0204082
        k(   59) = (  -0.5000000   0.2449630   0.0000000), wk =   0.0204082
        k(   60) = (  -0.5000000   0.3674445   0.0000000), wk =   0.0204082
        k(   61) = (  -0.5000000   0.4899260   0.0000000), wk =   0.0204082
        k(   62) = (  -0.5000000   0.6124075   0.0000000), wk =   0.0204082
        k(   63) = (  -0.5000000   0.7348890   0.0000000), wk =   0.0204082
        k(   64) = (  -0.5000000  -0.8573705   0.0000000), wk =   0.0102041

     Dense  grid:   272977 G-vectors     FFT dimensions: (  60,  36, 270)

     Smooth grid:    90779 G-vectors     FFT dimensions: (  40,  24, 192)

     Estimated max dynamical RAM per process >      20.05 MB

     Estimated total dynamical RAM >     481.13 MB

     Check: negative core charge=   -0.000004

     Initial potential from superposition of free atoms

     starting charge   15.99942, renormalised to   16.00000

     negative rho (up, down):  1.544E-05 0.000E+00
     Starting wfcs are   16 randomized atomic wfcs

     total cpu time spent up to now is        0.7 secs

     Self-consistent Calculation

     iteration #  1     ecut=    60.00 Ry     beta= 0.70
     Davidson diagonalization with overlap
     ethr =  1.00E-02,  avg # of iterations =  2.0

     negative rho (up, down):  6.000E-07 0.000E+00

     total cpu time spent up to now is        1.5 secs

     total energy              =     -54.58976039 Ry
     estimated scf accuracy    <       0.81662212 Ry

     iteration #  2     ecut=    60.00 Ry     beta= 0.70
     Davidson diagonalization with overlap
     ethr =  5.10E-03,  avg # of iterations =  2.9

     negative rho (up, down):  7.378E-06 0.000E+00

     total cpu time spent up to now is        2.3 secs

     total energy              =     -54.84440821 Ry
     estimated scf accuracy    <       0.21593294 Ry

     iteration #  3     ecut=    60.00 Ry     beta= 0.70
     Davidson diagonalization with overlap
     ethr =  1.35E-03,  avg # of iterations =  2.0

     negative rho (up, down):  2.024E-05 0.000E+00

     total cpu time spent up to now is        2.9 secs

     total energy              =     -54.84865080 Ry
     estimated scf accuracy    <       0.02483545 Ry

     iteration #  4     ecut=    60.00 Ry     beta= 0.70
     Davidson diagonalization with overlap
     ethr =  1.55E-04,  avg # of iterations =  6.3

     negative rho (up, down):  1.055E-05 0.000E+00

     total cpu time spent up to now is        3.8 secs

     total energy              =     -54.86552710 Ry
     estimated scf accuracy    <       0.07336908 Ry

     iteration #  5     ecut=    60.00 Ry     beta= 0.70
     Davidson diagonalization with overlap
     ethr =  1.55E-04,  avg # of iterations =  2.0

     negative rho (up, down):  1.063E-05 0.000E+00

     total cpu time spent up to now is        4.4 secs

     total energy              =     -54.86826853 Ry
     estimated scf accuracy    <       0.01733727 Ry

     iteration #  6     ecut=    60.00 Ry     beta= 0.70
     Davidson diagonalization with overlap
     ethr =  1.08E-04,  avg # of iterations =  1.0

     negative rho (up, down):  9.964E-06 0.000E+00

     total cpu time spent up to now is        4.9 secs

     total energy              =     -54.86300131 Ry
     estimated scf accuracy    <       0.01257395 Ry

     iteration #  7     ecut=    60.00 Ry     beta= 0.70
     Davidson diagonalization with overlap
     ethr =  7.86E-05,  avg # of iterations =  3.0

     negative rho (up, down):  9.943E-06 0.000E+00

     total cpu time spent up to now is        5.5 secs

     total energy              =     -54.86666260 Ry
     estimated scf accuracy    <       0.00004058 Ry

     iteration #  8     ecut=    60.00 Ry     beta= 0.70
     Davidson diagonalization with overlap
     ethr =  2.54E-07,  avg # of iterations =  8.9

     negative rho (up, down):  9.618E-06 0.000E+00

     total cpu time spent up to now is        6.7 secs

     total energy              =     -54.86733337 Ry
     estimated scf accuracy    <       0.00083131 Ry

     iteration #  9     ecut=    60.00 Ry     beta= 0.70
     Davidson diagonalization with overlap
     ethr =  2.54E-07,  avg # of iterations =  1.0

     negative rho (up, down):  9.594E-06 0.000E+00

     total cpu time spent up to now is        7.2 secs

     total energy              =     -54.86681098 Ry
     estimated scf accuracy    <       0.00073096 Ry

     iteration # 10     ecut=    60.00 Ry     beta= 0.70
     Davidson diagonalization with overlap
     ethr =  2.54E-07,  avg # of iterations =  7.4

     negative rho (up, down):  9.626E-06 0.000E+00

     total cpu time spent up to now is        8.2 secs

     total energy              =     -54.86711469 Ry
     estimated scf accuracy    <       0.00052922 Ry

     iteration # 11     ecut=    60.00 Ry     beta= 0.70
     Davidson diagonalization with overlap
     ethr =  2.54E-07,  avg # of iterations =  3.8

     negative rho (up, down):  9.617E-06 0.000E+00

     total cpu time spent up to now is        9.0 secs

     total energy              =     -54.86713096 Ry
     estimated scf accuracy    <       0.00012628 Ry

     iteration # 12     ecut=    60.00 Ry     beta= 0.70
     Davidson diagonalization with overlap
     ethr =  2.54E-07,  avg # of iterations =  1.2

     negative rho (up, down):  9.620E-06 0.000E+00

     total cpu time spent up to now is        9.5 secs

     total energy              =     -54.86708913 Ry
     estimated scf accuracy    <       0.00009269 Ry

     iteration # 13     ecut=    60.00 Ry     beta= 0.70
     Davidson diagonalization with overlap
     ethr =  2.54E-07,  avg # of iterations =  4.3

     negative rho (up, down):  9.620E-06 0.000E+00

     total cpu time spent up to now is       10.2 secs

     total energy              =     -54.86711350 Ry
     estimated scf accuracy    <       0.00000054 Ry

     iteration # 14     ecut=    60.00 Ry     beta= 0.70
     Davidson diagonalization with overlap
     ethr =  3.37E-09,  avg # of iterations =  7.0

     negative rho (up, down):  9.606E-06 0.000E+00

     total cpu time spent up to now is       11.1 secs

     total energy              =     -54.86711533 Ry
     estimated scf accuracy    <       0.00000242 Ry

     iteration # 15     ecut=    60.00 Ry     beta= 0.70
     Davidson diagonalization with overlap
     ethr =  3.37E-09,  avg # of iterations =  8.2

     negative rho (up, down):  9.615E-06 0.000E+00

     total cpu time spent up to now is       12.2 secs

     total energy              =     -54.86711815 Ry
     estimated scf accuracy    <       0.00003190 Ry

     iteration # 16     ecut=    60.00 Ry     beta= 0.70
     Davidson diagonalization with overlap
     ethr =  3.37E-09,  avg # of iterations =  4.5

     negative rho (up, down):  9.613E-06 0.000E+00

     total cpu time spent up to now is       13.0 secs

     total energy              =     -54.86711660 Ry
     estimated scf accuracy    <       0.00001491 Ry

     iteration # 17     ecut=    60.00 Ry     beta= 0.70
     Davidson diagonalization with overlap
     ethr =  3.37E-09,  avg # of iterations =  3.3

     negative rho (up, down):  9.612E-06 0.000E+00

     total cpu time spent up to now is       13.7 secs

     total energy              =     -54.86711579 Ry
     estimated scf accuracy    <       0.00000825 Ry

     iteration # 18     ecut=    60.00 Ry     beta= 0.70
     Davidson diagonalization with overlap
     ethr =  3.37E-09,  avg # of iterations =  2.5

     negative rho (up, down):  9.613E-06 0.000E+00

     total cpu time spent up to now is       14.3 secs

     total energy              =     -54.86711423 Ry
     estimated scf accuracy    <       0.00000502 Ry

     iteration # 19     ecut=    60.00 Ry     beta= 0.70
     Davidson diagonalization with overlap
     ethr =  3.37E-09,  avg # of iterations =  4.7

     negative rho (up, down):  9.610E-06 0.000E+00

     total cpu time spent up to now is       15.0 secs

     total energy              =     -54.86711479 Ry
     estimated scf accuracy    <       0.00000069 Ry

     iteration # 20     ecut=    60.00 Ry     beta= 0.70
     Davidson diagonalization with overlap
     ethr =  3.37E-09,  avg # of iterations =  1.0

     negative rho (up, down):  9.610E-06 0.000E+00

     total cpu time spent up to now is       15.5 secs

     total energy              =     -54.86711488 Ry
     estimated scf accuracy    <       0.00000083 Ry

     iteration # 21     ecut=    60.00 Ry     beta= 0.70
     Davidson diagonalization with overlap
     ethr =  3.37E-09,  avg # of iterations =  1.0

     negative rho (up, down):  9.610E-06 0.000E+00

     total cpu time spent up to now is       16.0 secs

     total energy              =     -54.86711500 Ry
     estimated scf accuracy    <       0.00000104 Ry

     iteration # 22     ecut=    60.00 Ry     beta= 0.70
     Davidson diagonalization with overlap
     ethr =  3.37E-09,  avg # of iterations =  1.0

     negative rho (up, down):  9.607E-06 0.000E+00

     total cpu time spent up to now is       16.6 secs

     total energy              =     -54.86711425 Ry
     estimated scf accuracy    <       0.00000138 Ry

     iteration # 23     ecut=    60.00 Ry     beta= 0.70
     Davidson diagonalization with overlap
     ethr =  3.37E-09,  avg # of iterations =  3.1

     negative rho (up, down):  9.606E-06 0.000E+00

     total cpu time spent up to now is       17.3 secs

     total energy              =     -54.86711453 Ry
     estimated scf accuracy    <       0.00000004 Ry

     iteration # 24     ecut=    60.00 Ry     beta= 0.70
     Davidson diagonalization with overlap
     ethr =  2.46E-10,  avg # of iterations =  5.7

     negative rho (up, down):  9.607E-06 0.000E+00

     total cpu time spent up to now is       18.1 secs

     total energy              =     -54.86711455 Ry
     estimated scf accuracy    <       0.00000011 Ry

     iteration # 25     ecut=    60.00 Ry     beta= 0.70
     Davidson diagonalization with overlap
     ethr =  2.46E-10,  avg # of iterations =  2.0

     negative rho (up, down):  9.608E-06 0.000E+00

     total cpu time spent up to now is       18.6 secs

     total energy              =     -54.86711454 Ry
     estimated scf accuracy    <       0.00000003 Ry

     iteration # 26     ecut=    60.00 Ry     beta= 0.70
     Davidson diagonalization with overlap
     ethr =  1.85E-10,  avg # of iterations =  4.0

     negative rho (up, down):  9.608E-06 0.000E+00

     total cpu time spent up to now is       19.3 secs

     total energy              =     -54.86711454 Ry
     estimated scf accuracy    <          7.3E-09 Ry

     iteration # 27     ecut=    60.00 Ry     beta= 0.70
     Davidson diagonalization with overlap
     ethr =  4.54E-11,  avg # of iterations =  2.0

     negative rho (up, down):  9.608E-06 0.000E+00

     total cpu time spent up to now is       19.8 secs

     total energy              =     -54.86711455 Ry
     estimated scf accuracy    <          5.7E-10 Ry

     iteration # 28     ecut=    60.00 Ry     beta= 0.70
     Davidson diagonalization with overlap
     ethr =  3.59E-12,  avg # of iterations =  5.8

     negative rho (up, down):  9.608E-06 0.000E+00

     total cpu time spent up to now is       20.7 secs

     total energy              =     -54.86711455 Ry
     estimated scf accuracy    <          6.1E-10 Ry

     iteration # 29     ecut=    60.00 Ry     beta= 0.70
     Davidson diagonalization with overlap
     ethr =  3.59E-12,  avg # of iterations =  2.0

     negative rho (up, down):  9.608E-06 0.000E+00

     total cpu time spent up to now is       21.3 secs

     total energy              =     -54.86711455 Ry
     estimated scf accuracy    <          1.1E-10 Ry

     iteration # 30     ecut=    60.00 Ry     beta= 0.70
     Davidson diagonalization with overlap
     ethr =  6.98E-13,  avg # of iterations =  4.6

     negative rho (up, down):  9.608E-06 0.000E+00

     total cpu time spent up to now is       22.0 secs

     End of self-consistent calculation

          k = 0.0000 0.0000 0.0000 ( 11325 PWs)   bands (ev):

   -21.7908 -18.6034 -12.9676  -9.3621  -8.3027  -5.3797  -5.3342  -4.8786

          k = 0.0000 0.1225 0.0000 ( 11323 PWs)   bands (ev):

   -21.7169 -18.5554 -12.9098  -9.2624  -8.5885  -5.6892  -5.4891  -4.8082

          k = 0.0000 0.2450 0.0000 ( 11309 PWs)   bands (ev):

   -21.4973 -18.4219 -12.7388  -9.3218  -8.9657  -6.5031  -5.9306  -4.6091

          k = 0.0000 0.3674 0.0000 ( 11316 PWs)   bands (ev):

   -21.1388 -18.2395 -12.4664 -10.2361  -8.4796  -7.5969  -6.5964  -4.3281

          k = 0.0000 0.4899 0.0000 ( 11316 PWs)   bands (ev):

   -20.6545 -18.0829 -12.1516 -11.0152  -8.7788  -7.8190  -7.4033  -4.0759

          k = 0.0000 0.6124 0.0000 ( 11344 PWs)   bands (ev):

   -20.0692 -18.0699 -12.0727 -11.1514  -9.9198  -8.2713  -7.0123  -4.0528

          k = 0.0000 0.7349 0.0000 ( 11322 PWs)   bands (ev):

   -19.4257 -18.3109 -12.0614 -10.9169 -10.6481  -9.1340  -6.1078  -4.4449

          k = 0.0000-0.8574 0.0000 ( 11352 PWs)   bands (ev):

   -18.8008 -18.8008 -11.6684 -11.6684  -9.9416  -9.9416  -5.1987  -5.1987

          k = 0.0714 0.0000 0.0000 ( 11342 PWs)   bands (ev):

   -21.7656 -18.6808 -12.8485  -9.3281  -8.2758  -5.4402  -5.4319  -4.9996

          k = 0.0714 0.1225 0.0000 ( 11332 PWs)   bands (ev):

   -21.6918 -18.6315 -12.7931  -9.2286  -8.5607  -5.7902  -5.5373  -4.9277

          k = 0.0714 0.2450 0.0000 ( 11323 PWs)   bands (ev):

   -21.4726 -18.4942 -12.6312  -9.2912  -8.9322  -6.6138  -5.9457  -4.7239

          k = 0.0714 0.3674 0.0000 ( 11327 PWs)   bands (ev):

   -21.1149 -18.3041 -12.3822 -10.1934  -8.4470  -7.7121  -6.5748  -4.4333

          k = 0.0714 0.4899 0.0000 ( 11319 PWs)   bands (ev):

   -20.6319 -18.1339 -12.1383 -10.9205  -8.8977  -7.7880  -7.3460  -4.1612

          k = 0.0714 0.6124 0.0000 ( 11340 PWs)   bands (ev):

   -20.0492 -18.1011 -12.1637 -10.9795 -10.0407  -8.1829  -6.9841  -4.1038

          k = 0.0714 0.7349 0.0000 ( 11331 PWs)   bands (ev):

   -19.4106 -18.3206 -12.1704 -11.0375 -10.4894  -9.0198  -6.0855  -4.4586

          k = 0.0714-0.8574 0.0000 ( 11354 PWs)   bands (ev):

   -18.7947 -18.7947 -11.7852 -11.7852  -9.8047  -9.8047  -5.1880  -5.1880

          k = 0.1429 0.0000 0.0000 ( 11294 PWs)   bands (ev):

   -21.6900 -18.8931 -12.5111  -9.2260  -8.1941  -5.7455  -5.5817  -5.3240

          k = 0.1429 0.1225 0.0000 ( 11337 PWs)   bands (ev):

   -21.6168 -18.8410 -12.4629  -9.1272  -8.4774  -6.0678  -5.6921  -5.2489

          k = 0.1429 0.2450 0.0000 ( 11324 PWs)   bands (ev):

   -21.3987 -18.6940 -12.3270  -9.1990  -8.8321  -6.8940  -6.0322  -5.0340

          k = 0.1429 0.3674 0.0000 ( 11332 PWs)   bands (ev):

   -21.0431 -18.4842 -12.1467 -10.0642  -8.3493  -7.9984  -6.5677  -4.7192

          k = 0.1429 0.4899 0.0000 ( 11340 PWs)   bands (ev):

   -20.5646 -18.2789 -12.0896 -10.6560  -9.1894  -7.6954  -7.2421  -4.3972

          k = 0.1429 0.6124 0.0000 ( 11350 PWs)   bands (ev):

   -19.9894 -18.1925 -12.3163 -10.5905 -10.3330  -7.9917  -6.9000  -4.2516

          k = 0.1429 0.7349 0.0000 ( 11365 PWs)   bands (ev):

   -19.3656 -18.3508 -12.3952 -11.3231 -10.1196  -8.7560  -6.0195  -4.5016

          k = 0.1429-0.8574 0.0000 ( 11386 PWs)   bands (ev):

   -18.7774 -18.7774 -12.0505 -12.0505  -9.4819  -9.4818  -5.1586  -5.1586

          k = 0.2143 0.0000 0.0000 ( 11362 PWs)   bands (ev):

   -21.5652 -19.1973 -12.0028  -9.0575  -8.0600  -6.2230  -5.8131  -5.7745

          k = 0.2143 0.1225 0.0000 ( 11346 PWs)   bands (ev):

   -21.4924 -19.1415 -11.9652  -8.9591  -8.3401  -6.4907  -5.9449  -5.6950

          k = 0.2143 0.2450 0.0000 ( 11343 PWs)   bands (ev):

   -21.2762 -18.9824 -11.8702  -9.0452  -8.6662  -7.2785  -6.2356  -5.4667

          k = 0.2143 0.3674 0.0000 ( 11316 PWs)   bands (ev):

   -20.9246 -18.7474 -11.8006  -9.8439  -8.3731  -8.1880  -6.6554  -5.1218

          k = 0.2143 0.4899 0.0000 ( 11351 PWs)   bands (ev):

   -20.4533 -18.4966 -11.9917 -10.2624  -9.5606  -7.5422  -7.1930  -4.7394

          k = 0.2143 0.6124 0.0000 ( 11360 PWs)   bands (ev):

   -19.8915 -18.3363 -12.4193 -10.6961 -10.1094  -7.8114  -6.7622  -4.4798

          k = 0.2143 0.7349 0.0000 ( 11362 PWs)   bands (ev):

   -19.2928 -18.4027 -12.6136 -11.6656  -9.6682  -8.4622  -5.9123  -4.5768

          k = 0.2143-0.8574 0.0000 ( 11398 PWs)   bands (ev):

   -18.7519 -18.7519 -12.3484 -12.3484  -9.0974  -9.0974  -5.1148  -5.1148

          k = 0.2857 0.0000 0.0000 ( 11338 PWs)   bands (ev):

   -21.3918 -19.5489 -11.3704  -8.8231  -7.8757  -6.8327  -6.2806  -6.1005

          k = 0.2857 0.1225 0.0000 ( 11344 PWs)   bands (ev):

   -21.3199 -19.4896 -11.3477  -8.7255  -8.1511  -7.0365  -6.2640  -6.1975

          k = 0.2857 0.2450 0.0000 ( 11332 PWs)   bands (ev):

   -21.1066 -19.3185 -11.3088  -8.8298  -8.4360  -7.7318  -6.5544  -5.9557

          k = 0.2857 0.3674 0.0000 ( 11335 PWs)   bands (ev):

   -20.7606 -19.0588 -11.3926  -9.5301  -8.7887  -7.9642  -6.8715  -5.5821

          k = 0.2857 0.4899 0.0000 ( 11364 PWs)   bands (ev):

   -20.2999 -18.7615 -11.8389  -9.9576  -9.7828  -7.3304  -7.2573  -5.1408

          k = 0.2857 0.6124 0.0000 ( 11358 PWs)   bands (ev):

   -19.7576 -18.5213 -12.4420 -11.0725  -9.5928  -7.7138  -6.5730  -4.7666

          k = 0.2857 0.7349 0.0000 ( 11382 PWs)   bands (ev):

   -19.1958 -18.4777 -12.7720 -12.0050  -9.2049  -8.2164  -5.7686  -4.6883

          k = 0.2857-0.8574 0.0000 ( 11388 PWs)   bands (ev):

   -18.7228 -18.7228 -12.6178 -12.6177  -8.7278  -8.7278  -5.0646  -5.0646

          k = 0.3571 0.0000 0.0000 ( 11332 PWs)   bands (ev):

   -21.1722 -19.9148 -10.6543  -8.5253  -7.6458  -7.5374  -6.7969  -6.4206

          k = 0.3571 0.1225 0.0000 ( 11332 PWs)   bands (ev):

   -21.1014 -19.8523 -10.6506  -8.4290  -7.9139  -7.6805  -6.7101  -6.6155

          k = 0.3571 0.2450 0.0000 ( 11328 PWs)   bands (ev):

   -20.8919 -19.6705 -10.6864  -8.5531  -8.2403  -8.1437  -6.9563  -6.4562

          k = 0.3571 0.3674 0.0000 ( 11353 PWs)   bands (ev):

   -20.5536 -19.3888 -10.9603  -9.2203  -9.1272  -7.6807  -7.2130  -6.0575

          k = 0.3571 0.4899 0.0000 ( 11371 PWs)   bands (ev):

   -20.1071 -19.0494 -11.6316 -10.3517  -9.2569  -7.4566  -7.0631  -5.5651

          k = 0.3571 0.6124 0.0000 ( 11399 PWs)   bands (ev):

   -19.5914 -18.7339 -12.3807 -11.4315  -9.0789  -7.7399  -6.3373  -5.0890

          k = 0.3571 0.7349 0.0000 ( 11397 PWs)   bands (ev):

   -19.0799 -18.5749 -12.8488 -12.3091  -8.7751  -8.0679  -5.5961  -4.8346

          k = 0.3571-0.8574 0.0000 ( 11384 PWs)   bands (ev):

   -18.6959 -18.6959 -12.8278 -12.8278  -8.4235  -8.4235  -5.0176  -5.0176

          k = 0.4286 0.0000 0.0000 ( 11312 PWs)   bands (ev):

   -20.9092 -20.2724  -9.8863  -8.3010  -8.1676  -7.3760  -7.2941  -6.7504

          k = 0.4286 0.1225 0.0000 ( 11315 PWs)   bands (ev):

   -20.8399 -20.2071  -9.9068  -8.3936  -8.0731  -7.6330  -7.2041  -6.9724

          k = 0.4286 0.2450 0.0000 ( 11333 PWs)   bands (ev):

   -20.6352 -20.0163 -10.0407  -8.7990  -8.2162  -7.7933  -7.3948  -6.9401

          k = 0.4286 0.3674 0.0000 ( 11346 PWs)   bands (ev):

   -20.3068 -19.7159 -10.5245  -9.6556  -8.6546  -7.6518  -7.3414  -6.5201

          k = 0.4286 0.4899 0.0000 ( 11393 PWs)   bands (ev):

   -19.8789 -19.3408 -11.3736 -10.7261  -8.7229  -7.7858  -6.7453  -5.9854

          k = 0.4286 0.6124 0.0000 ( 11401 PWs)   bands (ev):

   -19.3980 -18.9592 -12.2398 -11.7544  -8.6025  -7.9042  -6.0609  -5.4237

          k = 0.4286 0.7349 0.0000 ( 11401 PWs)   bands (ev):

   -18.9517 -18.6907 -12.8369 -12.5581  -8.4178  -8.0478  -5.4040  -5.0097

          k = 0.4286-0.8574 0.0000 ( 11380 PWs)   bands (ev):

   -18.6769 -18.6769 -12.9606 -12.9606  -8.2232  -8.2232  -4.9838  -4.9838

          k =-0.5000 0.0000 0.0000 ( 11324 PWs)   bands (ev):

   -20.6072 -20.6072  -9.0934  -9.0933  -7.7547  -7.7546  -7.0741  -7.0741

          k =-0.5000 0.1225 0.0000 ( 11302 PWs)   bands (ev):

   -20.5396 -20.5396  -9.1452  -9.1452  -7.6622  -7.6622  -7.3161  -7.3161

          k =-0.5000 0.2450 0.0000 ( 11296 PWs)   bands (ev):

   -20.3411 -20.3410  -9.4033  -9.4032  -7.8249  -7.8249  -7.3895  -7.3895

          k =-0.5000 0.3674 0.0000 ( 11360 PWs)   bands (ev):

   -20.0253 -20.0253 -10.0901 -10.0901  -8.1479  -8.1479  -6.9521  -6.9521

          k =-0.5000 0.4899 0.0000 ( 11386 PWs)   bands (ev):

   -19.6209 -19.6209 -11.0695 -11.0695  -8.2197  -8.2197  -6.3829  -6.3829

          k =-0.5000 0.6124 0.0000 ( 11410 PWs)   bands (ev):

   -19.1843 -19.1843 -12.0276 -12.0276  -8.2000  -8.2000  -5.7527  -5.7527

          k =-0.5000 0.7349 0.0000 ( 11398 PWs)   bands (ev):

   -18.8191 -18.8190 -12.7376 -12.7376  -8.1673  -8.1673  -5.2041  -5.2041

          k =-0.5000-0.8574 0.0000 ( 11384 PWs)   bands (ev):

   -18.6701 -18.6701 -13.0059 -13.0059  -8.1533  -8.1533  -4.9717  -4.9717

     highest occupied level (ev):    -4.0528

!    total energy              =     -54.86711455 Ry
     estimated scf accuracy    <          2.3E-12 Ry

     The total energy is the sum of the following terms:
     one-electron contribution =    -447.28686364 Ry
     hartree contribution      =     226.92431781 Ry
     xc contribution           =     -18.67000735 Ry
     ewald contribution        =     184.16543863 Ry

     convergence has been achieved in  30 iterations

     negative rho (up, down):  9.608E-06 0.000E+00

     Forces acting on atoms (cartesian axes, Ry/au):

     atom    1 type  2   force =    -0.00550474    0.00000000    0.00000000
     atom    2 type  1   force =     0.00550439    0.00000000    0.00000000
     atom    3 type  2   force =    -0.00550735    0.00000000    0.00000000
     atom    4 type  1   force =     0.00550770    0.00000000    0.00000000

     Total force =     0.011012     Total SCF correction =     0.000000

     BFGS Geometry Optimization

     number of scf cycles    =   1
     number of bfgs steps    =   0

     energy   new            =     -54.8671145456 Ry

     new trust radius        =       0.0055076951 bohr
     new conv_thr            =            1.0E-10 Ry


ATOMIC_POSITIONS (crystal)
N            -0.0006652129        0.0000000000        0.5000000000
B             0.3340237077        0.0000000000        0.5000000000
N             0.4993346592        0.5000000000        0.5000000000
B             0.8340238460        0.5000000000        0.5000000000



     Writing output data file ./wfc-out/pwscf.save/
     NEW-OLD atomic charge density approx. for the potential

     Check: negative core charge=   -0.000004

     negative rho (up, down):  9.652E-06 0.000E+00

     total cpu time spent up to now is       23.5 secs

     Self-consistent Calculation

     iteration #  1     ecut=    60.00 Ry     beta= 0.70
     Davidson diagonalization with overlap
     ethr =  1.00E-06,  avg # of iterations =  4.8

     negative rho (up, down):  9.586E-06 0.000E+00

     total cpu time spent up to now is       24.3 secs

     total energy              =     -54.86711903 Ry
     estimated scf accuracy    <       0.00002806 Ry

     iteration #  2     ecut=    60.00 Ry     beta= 0.70
     Davidson diagonalization with overlap
     ethr =  1.75E-07,  avg # of iterations =  2.8

     negative rho (up, down):  9.593E-06 0.000E+00

     total cpu time spent up to now is       24.9 secs

     total energy              =     -54.86712508 Ry
     estimated scf accuracy    <       0.00000075 Ry

     iteration #  3     ecut=    60.00 Ry     beta= 0.70
     Davidson diagonalization with overlap
     ethr =  4.70E-09,  avg # of iterations =  6.3

     negative rho (up, down):  9.597E-06 0.000E+00

     total cpu time spent up to now is       25.8 secs

     total energy              =     -54.86712634 Ry
     estimated scf accuracy    <       0.00000011 Ry

     iteration #  4     ecut=    60.00 Ry     beta= 0.70
     Davidson diagonalization with overlap
     ethr =  7.15E-10,  avg # of iterations =  4.0

     negative rho (up, down):  9.599E-06 0.000E+00

     total cpu time spent up to now is       26.5 secs

     total energy              =     -54.86712638 Ry
     estimated scf accuracy    <       0.00000002 Ry

     iteration #  5     ecut=    60.00 Ry     beta= 0.70
     Davidson diagonalization with overlap
     ethr =  1.13E-10,  avg # of iterations =  3.3

     negative rho (up, down):  9.600E-06 0.000E+00

     total cpu time spent up to now is       27.1 secs

     total energy              =     -54.86712638 Ry
     estimated scf accuracy    <          3.4E-09 Ry

     iteration #  6     ecut=    60.00 Ry     beta= 0.70
     Davidson diagonalization with overlap
     ethr =  2.10E-11,  avg # of iterations =  3.4

     negative rho (up, down):  9.600E-06 0.000E+00

     total cpu time spent up to now is       27.8 secs

     total energy              =     -54.86712638 Ry
     estimated scf accuracy    <          5.2E-10 Ry

     iteration #  7     ecut=    60.00 Ry     beta= 0.70
     Davidson diagonalization with overlap
     ethr =  3.26E-12,  avg # of iterations =  3.0

     negative rho (up, down):  9.600E-06 0.000E+00

     total cpu time spent up to now is       28.4 secs

     End of self-consistent calculation

          k = 0.0000 0.0000 0.0000 ( 11325 PWs)   bands (ev):

   -21.7906 -18.5938 -12.9568  -9.3619  -8.3381  -5.4481  -5.2653  -4.9003

          k = 0.0000 0.1225 0.0000 ( 11323 PWs)   bands (ev):

   -21.7169 -18.5462 -12.8990  -9.2621  -8.6218  -5.7534  -5.4229  -4.8291

          k = 0.0000 0.2450 0.0000 ( 11309 PWs)   bands (ev):

   -21.4977 -18.4138 -12.7281  -9.3500  -8.9649  -6.5570  -5.8716  -4.6277

          k = 0.0000 0.3674 0.0000 ( 11316 PWs)   bands (ev):

   -21.1399 -18.2335 -12.4559 -10.2577  -8.4777  -7.6388  -6.5471  -4.3420

          k = 0.0000 0.4899 0.0000 ( 11316 PWs)   bands (ev):

   -20.6565 -18.0799 -12.1439 -11.0274  -8.8095  -7.8157  -7.3640  -4.0819

          k = 0.0000 0.6124 0.0000 ( 11344 PWs)   bands (ev):

   -20.0723 -18.0704 -12.0767 -11.1454  -9.9410  -8.2408  -7.0070  -4.0489

          k = 0.0000 0.7349 0.0000 ( 11322 PWs)   bands (ev):

   -19.4297 -18.3142 -12.0683 -10.9307 -10.6345  -9.1104  -6.1000  -4.4350

          k = 0.0000-0.8574 0.0000 ( 11352 PWs)   bands (ev):

   -18.8052 -18.8052 -11.6774 -11.6774  -9.9234  -9.9234  -5.1886  -5.1886

          k = 0.0714 0.0000 0.0000 ( 11342 PWs)   bands (ev):

   -21.7654 -18.6715 -12.8370  -9.3280  -8.3114  -5.4994  -5.3727  -5.0198

          k = 0.0714 0.1225 0.0000 ( 11332 PWs)   bands (ev):

   -21.6918 -18.6227 -12.7817  -9.2283  -8.5942  -5.8358  -5.4900  -4.9471

          k = 0.0714 0.2450 0.0000 ( 11323 PWs)   bands (ev):

   -21.4730 -18.4864 -12.6199  -9.3195  -8.9314  -6.6579  -5.8967  -4.7412

          k = 0.0714 0.3674 0.0000 ( 11327 PWs)   bands (ev):

   -21.1159 -18.2983 -12.3716 -10.2147  -8.4452  -7.7483  -6.5314  -4.4461

          k = 0.0714 0.4899 0.0000 ( 11319 PWs)   bands (ev):

   -20.6339 -18.1310 -12.1321 -10.9309  -8.9247  -7.7848  -7.3103  -4.1667

          k = 0.0714 0.6124 0.0000 ( 11340 PWs)   bands (ev):

   -20.0523 -18.1016 -12.1678 -10.9733 -10.0594  -8.1547  -6.9788  -4.0998

          k = 0.0714 0.7349 0.0000 ( 11331 PWs)   bands (ev):

   -19.4146 -18.3239 -12.1765 -11.0498 -10.4764  -8.9977  -6.0777  -4.4487

          k = 0.0714-0.8574 0.0000 ( 11354 PWs)   bands (ev):

   -18.7990 -18.7990 -11.7932 -11.7932  -9.7875  -9.7875  -5.1778  -5.1778

          k = 0.1429 0.0000 0.0000 ( 11294 PWs)   bands (ev):

   -21.6897 -18.8849 -12.4978  -9.2261  -8.2303  -5.6821  -5.6467  -5.3407

          k = 0.1429 0.1225 0.0000 ( 11337 PWs)   bands (ev):

   -21.6166 -18.8331 -12.4497  -9.1271  -8.5114  -6.0796  -5.6801  -5.2649

          k = 0.1429 0.2450 0.0000 ( 11324 PWs)   bands (ev):

   -21.3989 -18.6871 -12.3144  -9.2275  -8.8315  -6.9222  -6.0001  -5.0482

          k = 0.1429 0.3674 0.0000 ( 11332 PWs)   bands (ev):

   -21.0441 -18.4791 -12.1360 -10.0846  -8.3476  -8.0251  -6.5340  -4.7296

          k = 0.1429 0.4899 0.0000 ( 11340 PWs)   bands (ev):

   -20.5664 -18.2763 -12.0867 -10.6623  -9.2104  -7.6922  -7.2123  -4.4014

          k = 0.1429 0.6124 0.0000 ( 11350 PWs)   bands (ev):

   -19.9923 -18.1931 -12.3209 -10.5833 -10.3479  -7.9670  -6.8947  -4.2476

          k = 0.1429 0.7349 0.0000 ( 11365 PWs)   bands (ev):

   -19.3695 -18.3541 -12.4006 -11.3329 -10.1070  -8.7360  -6.0116  -4.4916

          k = 0.1429-0.8574 0.0000 ( 11386 PWs)   bands (ev):

   -18.7817 -18.7817 -12.0570 -12.0570  -9.4657  -9.4657  -5.1483  -5.1483

          k = 0.2143 0.0000 0.0000 ( 11362 PWs)   bands (ev):

   -21.5646 -19.1903 -11.9868  -9.0579  -8.0972  -6.1653  -5.8745  -5.7873

          k = 0.2143 0.1225 0.0000 ( 11346 PWs)   bands (ev):

   -21.4919 -19.1348 -11.9496  -8.9592  -8.3750  -6.4752  -5.9621  -5.7073

          k = 0.2143 0.2450 0.0000 ( 11343 PWs)   bands (ev):

   -21.2762 -18.9765 -11.8557  -9.0740  -8.6658  -7.2933  -6.2181  -5.4774

          k = 0.2143 0.3674 0.0000 ( 11316 PWs)   bands (ev):

   -20.9253 -18.7431 -11.7904  -9.8623  -8.3924  -8.1865  -6.6297  -5.1295

          k = 0.2143 0.4899 0.0000 ( 11351 PWs)   bands (ev):

   -20.4549 -18.4945 -11.9921 -10.2643  -9.5771  -7.5391  -7.1677  -4.7421

          k = 0.2143 0.6124 0.0000 ( 11360 PWs)   bands (ev):

   -19.8942 -18.3370 -12.4247 -10.7083 -10.1005  -7.7890  -6.7569  -4.4755

          k = 0.2143 0.7349 0.0000 ( 11362 PWs)   bands (ev):

   -19.2966 -18.4058 -12.6188 -11.6739  -9.6550  -8.4432  -5.9043  -4.5668

          k = 0.2143-0.8574 0.0000 ( 11398 PWs)   bands (ev):

   -18.7561 -18.7561 -12.3542 -12.3542  -9.0814  -9.0814  -5.1043  -5.1043

          k = 0.2857 0.0000 0.0000 ( 11338 PWs)   bands (ev):

   -21.3909 -19.5431 -11.3512  -8.8239  -7.9143  -6.7816  -6.2901  -6.1578

          k = 0.2857 0.1225 0.0000 ( 11344 PWs)   bands (ev):

   -21.3191 -19.4841 -11.3289  -8.7262  -8.1873  -7.0067  -6.2978  -6.2066

          k = 0.2857 0.2450 0.0000 ( 11332 PWs)   bands (ev):

   -21.1062 -19.3137 -11.2922  -8.8588  -8.4360  -7.7359  -6.5495  -5.9635

          k = 0.2857 0.3674 0.0000 ( 11335 PWs)   bands (ev):

   -20.7610 -19.0553 -11.3839  -9.5452  -8.8027  -7.9631  -6.8521  -5.5875

          k = 0.2857 0.4899 0.0000 ( 11364 PWs)   bands (ev):

   -20.3013 -18.7599 -11.8421  -9.9711  -9.7803  -7.3276  -7.2352  -5.1421

          k = 0.2857 0.6124 0.0000 ( 11358 PWs)   bands (ev):

   -19.7601 -18.5222 -12.4483 -11.0830  -9.5820  -7.6929  -6.5678  -4.7621

          k = 0.2857 0.7349 0.0000 ( 11382 PWs)   bands (ev):

   -19.1995 -18.4808 -12.7775 -12.0124  -9.1906  -8.1976  -5.7604  -4.6785

          k = 0.2857-0.8574 0.0000 ( 11388 PWs)   bands (ev):

   -18.7269 -18.7269 -12.6233 -12.6233  -8.7112  -8.7112  -5.0538  -5.0538

          k = 0.3571 0.0000 0.0000 ( 11332 PWs)   bands (ev):

   -21.1708 -19.9102 -10.6311  -8.5267  -7.6864  -7.4928  -6.8038  -6.4738

          k = 0.3571 0.1225 0.0000 ( 11332 PWs)   bands (ev):

   -21.1001 -19.8479 -10.6282  -8.4303  -7.9515  -7.6463  -6.7167  -6.6560

          k = 0.3571 0.2450 0.0000 ( 11328 PWs)   bands (ev):

   -20.8911 -19.6667 -10.6682  -8.5816  -8.2352  -8.1443  -6.9627  -6.4617

          k = 0.3571 0.3674 0.0000 ( 11353 PWs)   bands (ev):

   -20.5536 -19.3862 -10.9545  -9.2301  -9.1375  -7.6800  -7.1994  -6.0610

          k = 0.3571 0.4899 0.0000 ( 11371 PWs)   bands (ev):

   -20.1081 -19.0484 -11.6369 -10.3632  -9.2505  -7.4373  -7.0606  -5.5653

          k = 0.3571 0.6124 0.0000 ( 11399 PWs)   bands (ev):

   -19.5937 -18.7350 -12.3877 -11.4410  -9.0660  -7.7201  -6.3322  -5.0843

          k = 0.3571 0.7349 0.0000 ( 11397 PWs)   bands (ev):

   -19.0834 -18.5779 -12.8547 -12.3161  -8.7595  -8.0492  -5.5876  -4.8249

          k = 0.3571-0.8574 0.0000 ( 11384 PWs)   bands (ev):

   -18.6999 -18.6999 -12.8333 -12.8333  -8.4062  -8.4062  -5.0065  -5.0065

          k = 0.4286 0.0000 0.0000 ( 11312 PWs)   bands (ev):

   -20.9072 -20.2688  -9.8586  -8.2626  -8.1699  -7.4190  -7.2990  -6.7998

          k = 0.4286 0.1225 0.0000 ( 11315 PWs)   bands (ev):

   -20.8380 -20.2037  -9.8806  -8.3604  -8.0752  -7.6724  -7.2087  -7.0143

          k = 0.4286 0.2450 0.0000 ( 11333 PWs)   bands (ev):

   -20.6339 -20.0135 -10.0219  -8.7865  -8.2430  -7.7947  -7.4108  -6.9439

          k = 0.4286 0.3674 0.0000 ( 11346 PWs)   bands (ev):

   -20.3063 -19.7141 -10.5225  -9.6615  -8.6589  -7.6440  -7.3414  -6.5220

          k = 0.4286 0.4899 0.0000 ( 11393 PWs)   bands (ev):

   -19.8796 -19.3405 -11.3806 -10.7361  -8.7130  -7.7694  -6.7432  -5.9846

          k = 0.4286 0.6124 0.0000 ( 11401 PWs)   bands (ev):

   -19.4000 -18.9606 -12.2474 -11.7631  -8.5875  -7.8857  -6.0559  -5.4189

          k = 0.4286 0.7349 0.0000 ( 11401 PWs)   bands (ev):

   -18.9550 -18.6939 -12.8431 -12.5648  -8.4009  -8.0292  -5.3952  -5.0003

          k = 0.4286-0.8574 0.0000 ( 11380 PWs)   bands (ev):

   -18.6808 -18.6808 -12.9661 -12.9661  -8.2053  -8.2053  -4.9726  -4.9726

          k =-0.5000 0.0000 0.0000 ( 11324 PWs)   bands (ev):

   -20.6044 -20.6044  -9.0606  -9.0606  -7.7581  -7.7581  -7.1200  -7.1200

          k =-0.5000 0.1225 0.0000 ( 11302 PWs)   bands (ev):

   -20.5370 -20.5370  -9.1151  -9.1151  -7.6654  -7.6654  -7.3572  -7.3572

          k =-0.5000 0.2450 0.0000 ( 11296 PWs)   bands (ev):

   -20.3390 -20.3390  -9.3862  -9.3862  -7.8478  -7.8478  -7.3919  -7.3919

          k =-0.5000 0.3674 0.0000 ( 11360 PWs)   bands (ev):

   -20.0242 -20.0242 -10.0921 -10.0921  -8.1461  -8.1461  -6.9530  -6.9530

          k =-0.5000 0.4899 0.0000 ( 11386 PWs)   bands (ev):

   -19.6210 -19.6210 -11.0780 -11.0780  -8.2065  -8.2065  -6.3814  -6.3814

          k =-0.5000 0.6124 0.0000 ( 11410 PWs)   bands (ev):

   -19.1860 -19.1860 -12.0358 -12.0358  -8.1831  -8.1831  -5.7477  -5.7477

          k =-0.5000 0.7349 0.0000 ( 11398 PWs)   bands (ev):

   -18.8223 -18.8223 -12.7440 -12.7440  -8.1493  -8.1493  -5.1950  -5.1950

          k =-0.5000-0.8574 0.0000 ( 11384 PWs)   bands (ev):

   -18.6740 -18.6740 -13.0115 -13.0115  -8.1351  -8.1351  -4.9604  -4.9604

     highest occupied level (ev):    -4.0489

!    total energy              =     -54.86712638 Ry
     estimated scf accuracy    <          5.4E-11 Ry

     The total energy is the sum of the following terms:
     one-electron contribution =    -447.28464500 Ry
     hartree contribution      =     226.92319894 Ry
     xc contribution           =     -18.66978110 Ry
     ewald contribution        =     184.16410078 Ry

     convergence has been achieved in   7 iterations

     negative rho (up, down):  9.600E-06 0.000E+00

     Forces acting on atoms (cartesian axes, Ry/au):

     atom    1 type  2   force =     0.00440267    0.00000000    0.00000000
     atom    2 type  1   force =    -0.00440267    0.00000000    0.00000000
     atom    3 type  2   force =     0.00440436    0.00000000    0.00000000
     atom    4 type  1   force =    -0.00440436    0.00000000    0.00000000

     Total force =     0.008807     Total SCF correction =     0.000014

     number of scf cycles    =   2
     number of bfgs steps    =   1

     energy   old            =     -54.8671145456 Ry
     energy   new            =     -54.8671263830 Ry

     CASE: energy  _new < energy  _old

     new trust radius        =       0.0024471934 bohr
     new conv_thr            =            1.2E-11 Ry


ATOMIC_POSITIONS (crystal)
N            -0.0003632019        0.0000000000        0.5000000000
B             0.3337216965        0.0000000000        0.5000000000
N             0.4996367864        0.5000000000        0.5000000000
B             0.8337217191        0.5000000000        0.5000000000



     Writing output data file ./wfc-out/pwscf.save/
     NEW-OLD atomic charge density approx. for the potential

     Check: negative core charge=   -0.000004

     negative rho (up, down):  9.610E-06 0.000E+00

     total cpu time spent up to now is       31.6 secs

     Self-consistent Calculation

     iteration #  1     ecut=    60.00 Ry     beta= 0.70
     Davidson diagonalization with overlap
     ethr =  1.00E-06,  avg # of iterations =  3.1

     Threshold (ethr) on eigenvalues was too large:
     Diagonalizing with lowered threshold

     Davidson diagonalization with overlap
     ethr =  2.70E-08,  avg # of iterations =  4.9

     negative rho (up, down):  9.603E-06 0.000E+00

     total cpu time spent up to now is       33.1 secs

     total energy              =     -54.86714701 Ry
     estimated scf accuracy    <       0.00000639 Ry

     iteration #  2     ecut=    60.00 Ry     beta= 0.70
     Davidson diagonalization with overlap
     ethr =  3.99E-08,  avg # of iterations =  2.0

     negative rho (up, down):  9.603E-06 0.000E+00

     total cpu time spent up to now is       33.7 secs

     total energy              =     -54.86714795 Ry
     estimated scf accuracy    <       0.00000008 Ry

     iteration #  3     ecut=    60.00 Ry     beta= 0.70
     Davidson diagonalization with overlap
     ethr =  4.75E-10,  avg # of iterations =  5.7

     negative rho (up, down):  9.603E-06 0.000E+00

     total cpu time spent up to now is       34.5 secs

     total energy              =     -54.86714805 Ry
     estimated scf accuracy    <       0.00000002 Ry

     iteration #  4     ecut=    60.00 Ry     beta= 0.70
     Davidson diagonalization with overlap
     ethr =  1.05E-10,  avg # of iterations =  3.5

     negative rho (up, down):  9.603E-06 0.000E+00

     total cpu time spent up to now is       35.2 secs

     total energy              =     -54.86714805 Ry
     estimated scf accuracy    <          4.8E-09 Ry

     iteration #  5     ecut=    60.00 Ry     beta= 0.70
     Davidson diagonalization with overlap
     ethr =  3.03E-11,  avg # of iterations =  2.9

     negative rho (up, down):  9.603E-06 0.000E+00

     total cpu time spent up to now is       35.8 secs

     total energy              =     -54.86714805 Ry
     estimated scf accuracy    <          7.3E-10 Ry

     iteration #  6     ecut=    60.00 Ry     beta= 0.70
     Davidson diagonalization with overlap
     ethr =  4.56E-12,  avg # of iterations =  4.2

     negative rho (up, down):  9.603E-06 0.000E+00

     total cpu time spent up to now is       36.5 secs

     total energy              =     -54.86714805 Ry
     estimated scf accuracy    <          1.3E-10 Ry

     iteration #  7     ecut=    60.00 Ry     beta= 0.70
     Davidson diagonalization with overlap
     ethr =  8.18E-13,  avg # of iterations =  2.6

     negative rho (up, down):  9.603E-06 0.000E+00

     total cpu time spent up to now is       37.1 secs

     total energy              =     -54.86714805 Ry
     estimated scf accuracy    <          1.9E-11 Ry

     iteration #  8     ecut=    60.00 Ry     beta= 0.70
     Davidson diagonalization with overlap
     ethr =  1.17E-13,  avg # of iterations =  4.5

     negative rho (up, down):  9.602E-06 0.000E+00

     total cpu time spent up to now is       37.8 secs

     End of self-consistent calculation

          k = 0.0000 0.0000 0.0000 ( 11325 PWs)   bands (ev):

   -21.7907 -18.5981 -12.9616  -9.3620  -8.3224  -5.4177  -5.2959  -4.8906

          k = 0.0000 0.1225 0.0000 ( 11323 PWs)   bands (ev):

   -21.7169 -18.5503 -12.9038  -9.2622  -8.6070  -5.7247  -5.4526  -4.8198

          k = 0.0000 0.2450 0.0000 ( 11309 PWs)   bands (ev):

   -21.4975 -18.4174 -12.7329  -9.3375  -8.9652  -6.5328  -5.8982  -4.6194

          k = 0.0000 0.3674 0.0000 ( 11316 PWs)   bands (ev):

   -21.1394 -18.2362 -12.4607 -10.2481  -8.4785  -7.6199  -6.5693  -4.3358

          k = 0.0000 0.4899 0.0000 ( 11316 PWs)   bands (ev):

   -20.6556 -18.0812 -12.1473 -11.0221  -8.7957  -7.8172  -7.3817  -4.0792

          k = 0.0000 0.6124 0.0000 ( 11344 PWs)   bands (ev):

   -20.0709 -18.0701 -12.0749 -11.1482  -9.9315  -8.2546  -7.0093  -4.0506

          k = 0.0000 0.7349 0.0000 ( 11322 PWs)   bands (ev):

   -19.4279 -18.3127 -12.0652 -10.9245 -10.6406  -9.1211  -6.1035  -4.4394

          k = 0.0000-0.8574 0.0000 ( 11352 PWs)   bands (ev):

   -18.8032 -18.8032 -11.6733 -11.6733  -9.9317  -9.9317  -5.1930  -5.1930

          k = 0.0714 0.0000 0.0000 ( 11342 PWs)   bands (ev):

   -21.7655 -18.6756 -12.8422  -9.3280  -8.2955  -5.4694  -5.4027  -5.0108

          k = 0.0714 0.1225 0.0000 ( 11332 PWs)   bands (ev):

   -21.6918 -18.6266 -12.7868  -9.2284  -8.5793  -5.8138  -5.5128  -4.9385

          k = 0.0714 0.2450 0.0000 ( 11323 PWs)   bands (ev):

   -21.4728 -18.4898 -12.6249  -9.3069  -8.9318  -6.6377  -5.9191  -4.7335

          k = 0.0714 0.3674 0.0000 ( 11327 PWs)   bands (ev):

   -21.1155 -18.3008 -12.3764 -10.2053  -8.4460  -7.7319  -6.5511  -4.4404

          k = 0.0714 0.4899 0.0000 ( 11319 PWs)   bands (ev):

   -20.6330 -18.1323 -12.1348 -10.9264  -8.9125  -7.7862  -7.3264  -4.1642

          k = 0.0714 0.6124 0.0000 ( 11340 PWs)   bands (ev):

   -20.0509 -18.1013 -12.1659 -10.9762 -10.0510  -8.1674  -6.9811  -4.1015

          k = 0.0714 0.7349 0.0000 ( 11331 PWs)   bands (ev):

   -19.4128 -18.3224 -12.1738 -11.0442 -10.4823  -9.0077  -6.0811  -4.4531

          k = 0.0714-0.8574 0.0000 ( 11354 PWs)   bands (ev):

   -18.7971 -18.7971 -11.7896 -11.7896  -9.7953  -9.7953  -5.1823  -5.1823

          k = 0.1429 0.0000 0.0000 ( 11294 PWs)   bands (ev):

   -21.6898 -18.8885 -12.5038  -9.2261  -8.2142  -5.7103  -5.6178  -5.3332

          k = 0.1429 0.1225 0.0000 ( 11337 PWs)   bands (ev):

   -21.6167 -18.8366 -12.4556  -9.1272  -8.4963  -6.0719  -5.6878  -5.2578

          k = 0.1429 0.2450 0.0000 ( 11324 PWs)   bands (ev):

   -21.3988 -18.6901 -12.3201  -9.2148  -8.8317  -6.9090  -6.0151  -5.0419

          k = 0.1429 0.3674 0.0000 ( 11332 PWs)   bands (ev):

   -21.0436 -18.4813 -12.1408 -10.0756  -8.3484  -8.0129  -6.5494  -4.7250

          k = 0.1429 0.4899 0.0000 ( 11340 PWs)   bands (ev):

   -20.5656 -18.2774 -12.0880 -10.6596  -9.2009  -7.6936  -7.2258  -4.3995

          k = 0.1429 0.6124 0.0000 ( 11350 PWs)   bands (ev):

   -19.9910 -18.1928 -12.3188 -10.5866 -10.3411  -7.9782  -6.8970  -4.2493

          k = 0.1429 0.7349 0.0000 ( 11365 PWs)   bands (ev):

   -19.3678 -18.3526 -12.3982 -11.3285 -10.1127  -8.7450  -6.0151  -4.4960

          k = 0.1429-0.8574 0.0000 ( 11386 PWs)   bands (ev):

   -18.7798 -18.7798 -12.0541 -12.0541  -9.4730  -9.4730  -5.1529  -5.1529

          k = 0.2143 0.0000 0.0000 ( 11362 PWs)   bands (ev):

   -21.5649 -19.1934 -11.9939  -9.0577  -8.0806  -6.1910  -5.8472  -5.7816

          k = 0.2143 0.1225 0.0000 ( 11346 PWs)   bands (ev):

   -21.4921 -19.1377 -11.9566  -8.9592  -8.3594  -6.4806  -5.9559  -5.7018

          k = 0.2143 0.2450 0.0000 ( 11343 PWs)   bands (ev):

   -21.2762 -18.9791 -11.8622  -9.0612  -8.6660  -7.2861  -6.2266  -5.4726

          k = 0.2143 0.3674 0.0000 ( 11316 PWs)   bands (ev):

   -20.9250 -18.7450 -11.7949  -9.8542  -8.3835  -8.1871  -6.6415  -5.1261

          k = 0.2143 0.4899 0.0000 ( 11351 PWs)   bands (ev):

   -20.4542 -18.4954 -11.9919 -10.2635  -9.5697  -7.5405  -7.1792  -4.7409

          k = 0.2143 0.6124 0.0000 ( 11360 PWs)   bands (ev):

   -19.8930 -18.3367 -12.4223 -10.7028 -10.1046  -7.7991  -6.7592  -4.4774

          k = 0.2143 0.7349 0.0000 ( 11362 PWs)   bands (ev):

   -19.2949 -18.4044 -12.6165 -11.6702  -9.6610  -8.4518  -5.9078  -4.5712

          k = 0.2143-0.8574 0.0000 ( 11398 PWs)   bands (ev):

   -18.7542 -18.7542 -12.3516 -12.3516  -9.0886  -9.0886  -5.1090  -5.1090

          k = 0.2857 0.0000 0.0000 ( 11338 PWs)   bands (ev):

   -21.3913 -19.5457 -11.3597  -8.8235  -7.8971  -6.8043  -6.2859  -6.1323

          k = 0.2857 0.1225 0.0000 ( 11344 PWs)   bands (ev):

   -21.3194 -19.4866 -11.3373  -8.7259  -8.1712  -7.0193  -6.2833  -6.2026

          k = 0.2857 0.2450 0.0000 ( 11332 PWs)   bands (ev):

   -21.1064 -19.3158 -11.2996  -8.8459  -8.4360  -7.7335  -6.5522  -5.9600

          k = 0.2857 0.3674 0.0000 ( 11335 PWs)   bands (ev):

   -20.7609 -19.0568 -11.3878  -9.5386  -8.7962  -7.9636  -6.8610  -5.5851

          k = 0.2857 0.4899 0.0000 ( 11364 PWs)   bands (ev):

   -20.3006 -18.7606 -11.8406  -9.9650  -9.7815  -7.3289  -7.2452  -5.1415

          k = 0.2857 0.6124 0.0000 ( 11358 PWs)   bands (ev):

   -19.7590 -18.5218 -12.4455 -11.0783  -9.5869  -7.7023  -6.5701  -4.7640

          k = 0.2857 0.7349 0.0000 ( 11382 PWs)   bands (ev):

   -19.1978 -18.4793 -12.7751 -12.0091  -9.1971  -8.2061  -5.7640  -4.6828

          k = 0.2857-0.8574 0.0000 ( 11388 PWs)   bands (ev):

   -18.7250 -18.7250 -12.6208 -12.6208  -8.7187  -8.7187  -5.0586  -5.0586

          k = 0.3571 0.0000 0.0000 ( 11332 PWs)   bands (ev):

   -21.1715 -19.9122 -10.6414  -8.5261  -7.6683  -7.5126  -6.8007  -6.4501

          k = 0.3571 0.1225 0.0000 ( 11332 PWs)   bands (ev):

   -21.1007 -19.8499 -10.6382  -8.4297  -7.9348  -7.6613  -6.7137  -6.6382

          k = 0.3571 0.2450 0.0000 ( 11328 PWs)   bands (ev):

   -20.8914 -19.6684 -10.6762  -8.5690  -8.2370  -8.1441  -6.9603  -6.4592

          k = 0.3571 0.3674 0.0000 ( 11353 PWs)   bands (ev):

   -20.5536 -19.3873 -10.9570  -9.2255  -9.1330  -7.6803  -7.2057  -6.0594

          k = 0.3571 0.4899 0.0000 ( 11371 PWs)   bands (ev):

   -20.1076 -19.0489 -11.6345 -10.3580  -9.2535  -7.4461  -7.0617  -5.5652

          k = 0.3571 0.6124 0.0000 ( 11399 PWs)   bands (ev):

   -19.5927 -18.7345 -12.3846 -11.4367  -9.0718  -7.7290  -6.3345  -5.0863

          k = 0.3571 0.7349 0.0000 ( 11397 PWs)   bands (ev):

   -19.0818 -18.5765 -12.8521 -12.3130  -8.7665  -8.0576  -5.5914  -4.8292

          k = 0.3571-0.8574 0.0000 ( 11384 PWs)   bands (ev):

   -18.6981 -18.6981 -12.8308 -12.8308  -8.4140  -8.4140  -5.0114  -5.0114

          k = 0.4286 0.0000 0.0000 ( 11312 PWs)   bands (ev):

   -20.9081 -20.2704  -9.8709  -8.2797  -8.1688  -7.3999  -7.2968  -6.7778

          k = 0.4286 0.1225 0.0000 ( 11315 PWs)   bands (ev):

   -20.8389 -20.2052  -9.8922  -8.3751  -8.0742  -7.6549  -7.2067  -6.9957

          k = 0.4286 0.2450 0.0000 ( 11333 PWs)   bands (ev):

   -20.6345 -20.0147 -10.0302  -8.7918  -8.2312  -7.7941  -7.4040  -6.9422

          k = 0.4286 0.3674 0.0000 ( 11346 PWs)   bands (ev):

   -20.3065 -19.7149 -10.5233  -9.6587  -8.6571  -7.6476  -7.3414  -6.5211

          k = 0.4286 0.4899 0.0000 ( 11393 PWs)   bands (ev):

   -19.8793 -19.3406 -11.3774 -10.7316  -8.7175  -7.7768  -6.7441  -5.9850

          k = 0.4286 0.6124 0.0000 ( 11401 PWs)   bands (ev):

   -19.3991 -18.9600 -12.2440 -11.7592  -8.5943  -7.8940  -6.0581  -5.4210

          k = 0.4286 0.7349 0.0000 ( 11401 PWs)   bands (ev):

   -18.9535 -18.6924 -12.8404 -12.5618  -8.4085  -8.0376  -5.3991  -5.0044

          k = 0.4286-0.8574 0.0000 ( 11380 PWs)   bands (ev):

   -18.6791 -18.6791 -12.9637 -12.9637  -8.2133  -8.2133  -4.9776  -4.9776

          k =-0.5000 0.0000 0.0000 ( 11324 PWs)   bands (ev):

   -20.6056 -20.6056  -9.0752  -9.0752  -7.7566  -7.7565  -7.0996  -7.0996

          k =-0.5000 0.1225 0.0000 ( 11302 PWs)   bands (ev):

   -20.5382 -20.5382  -9.1284  -9.1284  -7.6639  -7.6639  -7.3389  -7.3389

          k =-0.5000 0.2450 0.0000 ( 11296 PWs)   bands (ev):

   -20.3399 -20.3399  -9.3936  -9.3936  -7.8378  -7.8378  -7.3908  -7.3908

          k =-0.5000 0.3674 0.0000 ( 11360 PWs)   bands (ev):

   -20.0247 -20.0247 -10.0911 -10.0911  -8.1471  -8.1471  -6.9526  -6.9526

          k =-0.5000 0.4899 0.0000 ( 11386 PWs)   bands (ev):

   -19.6210 -19.6209 -11.0741 -11.0741  -8.2125  -8.2125  -6.3821  -6.3821

          k =-0.5000 0.6124 0.0000 ( 11410 PWs)   bands (ev):

   -19.1852 -19.1852 -12.0321 -12.0321  -8.1907  -8.1907  -5.7499  -5.7499

          k =-0.5000 0.7349 0.0000 ( 11398 PWs)   bands (ev):

   -18.8208 -18.8208 -12.7412 -12.7412  -8.1574  -8.1574  -5.1990  -5.1990

          k =-0.5000-0.8574 0.0000 ( 11384 PWs)   bands (ev):

   -18.6722 -18.6722 -13.0090 -13.0090  -8.1433  -8.1433  -4.9654  -4.9654

     highest occupied level (ev):    -4.0506

!    total energy              =     -54.86714805 Ry
     estimated scf accuracy    <          1.3E-12 Ry

     The total energy is the sum of the following terms:
     one-electron contribution =    -447.28550851 Ry
     hartree contribution      =     226.92363269 Ry
     xc contribution           =     -18.66986760 Ry
     ewald contribution        =     184.16459537 Ry

     convergence has been achieved in   8 iterations

     negative rho (up, down):  9.602E-06 0.000E+00

     Forces acting on atoms (cartesian axes, Ry/au):

     atom    1 type  2   force =     0.00002080    0.00000000    0.00000000
     atom    2 type  1   force =    -0.00002074    0.00000000    0.00000000
     atom    3 type  2   force =     0.00002090    0.00000000    0.00000000
     atom    4 type  1   force =    -0.00002097    0.00000000    0.00000000

     Total force =     0.000042     Total SCF correction =     0.000001

     number of scf cycles    =   3
     number of bfgs steps    =   2

     energy   old            =     -54.8671263830 Ry
     energy   new            =     -54.8671480508 Ry

     CASE: energy  _new < energy  _old

     small trust_radius: resetting bfgs history

     new trust radius        =       0.0000209698 bohr
     new conv_thr            =            1.0E-12 Ry


ATOMIC_POSITIONS (crystal)
N            -0.0003606336        0.0000000000        0.5000000000
B             0.3337191362        0.0000000000        0.5000000000
N             0.4996393672        0.5000000000        0.5000000000
B             0.8337191302        0.5000000000        0.5000000000



     Writing output data file ./wfc-out/pwscf.save/
     NEW-OLD atomic charge density approx. for the potential

     Check: negative core charge=   -0.000004

     negative rho (up, down):  9.603E-06 0.000E+00

     total cpu time spent up to now is       39.3 secs

     Self-consistent Calculation

     iteration #  1     ecut=    60.00 Ry     beta= 0.70
     Davidson diagonalization with overlap
     ethr =  1.00E-06,  avg # of iterations =  1.0

     Threshold (ethr) on eigenvalues was too large:
     Diagonalizing with lowered threshold

     Davidson diagonalization with overlap
     ethr =  3.17E-13,  avg # of iterations =  9.0

     negative rho (up, down):  9.603E-06 0.000E+00

     total cpu time spent up to now is       41.0 secs

     total energy              =     -54.86714805 Ry
     estimated scf accuracy    <          5.0E-10 Ry

     iteration #  2     ecut=    60.00 Ry     beta= 0.70
     Davidson diagonalization with overlap
     ethr =  3.09E-12,  avg # of iterations =  2.0

     negative rho (up, down):  9.603E-06 0.000E+00

     total cpu time spent up to now is       41.6 secs

     total energy              =     -54.86714805 Ry
     estimated scf accuracy    <          5.0E-12 Ry

     iteration #  3     ecut=    60.00 Ry     beta= 0.70
     Davidson diagonalization with overlap
     ethr =  1.00E-13,  avg # of iterations =  2.7

     negative rho (up, down):  9.603E-06 0.000E+00

     total cpu time spent up to now is       42.2 secs

     End of self-consistent calculation

          k = 0.0000 0.0000 0.0000 ( 11325 PWs)   bands (ev):

   -21.7907 -18.5981 -12.9617  -9.3620  -8.3222  -5.4175  -5.2962  -4.8906

          k = 0.0000 0.1225 0.0000 ( 11323 PWs)   bands (ev):

   -21.7169 -18.5503 -12.9039  -9.2622  -8.6068  -5.7244  -5.4528  -4.8197

          k = 0.0000 0.2450 0.0000 ( 11309 PWs)   bands (ev):

   -21.4975 -18.4174 -12.7329  -9.3374  -8.9652  -6.5326  -5.8984  -4.6194

          k = 0.0000 0.3674 0.0000 ( 11316 PWs)   bands (ev):

   -21.1394 -18.2362 -12.4607 -10.2480  -8.4785  -7.6197  -6.5695  -4.3358

          k = 0.0000 0.4899 0.0000 ( 11316 PWs)   bands (ev):

   -20.6556 -18.0812 -12.1474 -11.0220  -8.7956  -7.8172  -7.3819  -4.0792

          k = 0.0000 0.6124 0.0000 ( 11344 PWs)   bands (ev):

   -20.0709 -18.0701 -12.0748 -11.1482  -9.9314  -8.2547  -7.0093  -4.0506

          k = 0.0000 0.7349 0.0000 ( 11322 PWs)   bands (ev):

   -19.4279 -18.3127 -12.0652 -10.9244 -10.6407  -9.1212  -6.1035  -4.4394

          k = 0.0000-0.8574 0.0000 ( 11352 PWs)   bands (ev):

   -18.8032 -18.8032 -11.6733 -11.6733  -9.9317  -9.9317  -5.1931  -5.1931

          k = 0.0714 0.0000 0.0000 ( 11342 PWs)   bands (ev):

   -21.7655 -18.6757 -12.8422  -9.3280  -8.2954  -5.4692  -5.4030  -5.0107

          k = 0.0714 0.1225 0.0000 ( 11332 PWs)   bands (ev):

   -21.6918 -18.6266 -12.7868  -9.2284  -8.5792  -5.8136  -5.5130  -4.9384

          k = 0.0714 0.2450 0.0000 ( 11323 PWs)   bands (ev):

   -21.4728 -18.4899 -12.6250  -9.3068  -8.9318  -6.6376  -5.9193  -4.7334

          k = 0.0714 0.3674 0.0000 ( 11327 PWs)   bands (ev):

   -21.1154 -18.3008 -12.3764 -10.2052  -8.4460  -7.7318  -6.5512  -4.4403

          k = 0.0714 0.4899 0.0000 ( 11319 PWs)   bands (ev):

   -20.6330 -18.1323 -12.1348 -10.9263  -8.9124  -7.7862  -7.3265  -4.1642

          k = 0.0714 0.6124 0.0000 ( 11340 PWs)   bands (ev):

   -20.0509 -18.1013 -12.1659 -10.9762 -10.0509  -8.1675  -6.9812  -4.1015

          k = 0.0714 0.7349 0.0000 ( 11331 PWs)   bands (ev):

   -19.4128 -18.3224 -12.1738 -11.0442 -10.4823  -9.0078  -6.0812  -4.4531

          k = 0.0714-0.8574 0.0000 ( 11354 PWs)   bands (ev):

   -18.7970 -18.7970 -11.7896 -11.7896  -9.7954  -9.7954  -5.1824  -5.1824

          k = 0.1429 0.0000 0.0000 ( 11294 PWs)   bands (ev):

   -21.6898 -18.8885 -12.5038  -9.2261  -8.2140  -5.7105  -5.6176  -5.3332

          k = 0.1429 0.1225 0.0000 ( 11337 PWs)   bands (ev):

   -21.6167 -18.8366 -12.4557  -9.1272  -8.4962  -6.0719  -5.6879  -5.2577

          k = 0.1429 0.2450 0.0000 ( 11324 PWs)   bands (ev):

   -21.3988 -18.6901 -12.3201  -9.2147  -8.8317  -6.9088  -6.0153  -5.0418

          k = 0.1429 0.3674 0.0000 ( 11332 PWs)   bands (ev):

   -21.0436 -18.4813 -12.1408 -10.0755  -8.3484  -8.0128  -6.5495  -4.7249

          k = 0.1429 0.4899 0.0000 ( 11340 PWs)   bands (ev):

   -20.5656 -18.2774 -12.0880 -10.6595  -9.2008  -7.6936  -7.2259  -4.3995

          k = 0.1429 0.6124 0.0000 ( 11350 PWs)   bands (ev):

   -19.9910 -18.1928 -12.3188 -10.5866 -10.3411  -7.9783  -6.8971  -4.2493

          k = 0.1429 0.7349 0.0000 ( 11365 PWs)   bands (ev):

   -19.3678 -18.3526 -12.3982 -11.3284 -10.1127  -8.7451  -6.0151  -4.4960

          k = 0.1429-0.8574 0.0000 ( 11386 PWs)   bands (ev):

   -18.7797 -18.7797 -12.0540 -12.0540  -9.4730  -9.4730  -5.1529  -5.1529

          k = 0.2143 0.0000 0.0000 ( 11362 PWs)   bands (ev):

   -21.5649 -19.1934 -11.9940  -9.0577  -8.0805  -6.1912  -5.8470  -5.7815

          k = 0.2143 0.1225 0.0000 ( 11346 PWs)   bands (ev):

   -21.4921 -19.1378 -11.9566  -8.9591  -8.3593  -6.4807  -5.9559  -5.7018

          k = 0.2143 0.2450 0.0000 ( 11343 PWs)   bands (ev):

   -21.2762 -18.9791 -11.8622  -9.0611  -8.6660  -7.2860  -6.2266  -5.4726

          k = 0.2143 0.3674 0.0000 ( 11316 PWs)   bands (ev):

   -20.9250 -18.7450 -11.7950  -9.8541  -8.3835  -8.1871  -6.6415  -5.1260

          k = 0.2143 0.4899 0.0000 ( 11351 PWs)   bands (ev):

   -20.4542 -18.4954 -11.9919 -10.2635  -9.5696  -7.5405  -7.1793  -4.7409

          k = 0.2143 0.6124 0.0000 ( 11360 PWs)   bands (ev):

   -19.8930 -18.3367 -12.4223 -10.7028 -10.1046  -7.7992  -6.7593  -4.4774

          k = 0.2143 0.7349 0.0000 ( 11362 PWs)   bands (ev):

   -19.2949 -18.4044 -12.6165 -11.6701  -9.6610  -8.4518  -5.9078  -4.5713

          k = 0.2143-0.8574 0.0000 ( 11398 PWs)   bands (ev):

   -18.7542 -18.7542 -12.3516 -12.3516  -9.0887  -9.0887  -5.1090  -5.1090

          k = 0.2857 0.0000 0.0000 ( 11338 PWs)   bands (ev):

   -21.3913 -19.5457 -11.3598  -8.8235  -7.8970  -6.8045  -6.2859  -6.1321

          k = 0.2857 0.1225 0.0000 ( 11344 PWs)   bands (ev):

   -21.3194 -19.4866 -11.3373  -8.7259  -8.1710  -7.0194  -6.2832  -6.2025

          k = 0.2857 0.2450 0.0000 ( 11332 PWs)   bands (ev):

   -21.1064 -19.3158 -11.2996  -8.8458  -8.4360  -7.7335  -6.5522  -5.9599

          k = 0.2857 0.3674 0.0000 ( 11335 PWs)   bands (ev):

   -20.7609 -19.0569 -11.3878  -9.5385  -8.7962  -7.9636  -6.8610  -5.5850

          k = 0.2857 0.4899 0.0000 ( 11364 PWs)   bands (ev):

   -20.3006 -18.7606 -11.8406  -9.9649  -9.7815  -7.3289  -7.2453  -5.1415

          k = 0.2857 0.6124 0.0000 ( 11358 PWs)   bands (ev):

   -19.7590 -18.5218 -12.4455 -11.0782  -9.5869  -7.7024  -6.5701  -4.7640

          k = 0.2857 0.7349 0.0000 ( 11382 PWs)   bands (ev):

   -19.1978 -18.4793 -12.7751 -12.0090  -9.1971  -8.2062  -5.7641  -4.6829

          k = 0.2857-0.8574 0.0000 ( 11388 PWs)   bands (ev):

   -18.7250 -18.7250 -12.6208 -12.6208  -8.7188  -8.7188  -5.0586  -5.0586

          k = 0.3571 0.0000 0.0000 ( 11332 PWs)   bands (ev):

   -21.1715 -19.9122 -10.6415  -8.5261  -7.6681  -7.5128  -6.8006  -6.4499

          k = 0.3571 0.1225 0.0000 ( 11332 PWs)   bands (ev):

   -21.1007 -19.8499 -10.6383  -8.4297  -7.9346  -7.6614  -6.7137  -6.6380

          k = 0.3571 0.2450 0.0000 ( 11328 PWs)   bands (ev):

   -20.8914 -19.6684 -10.6763  -8.5689  -8.2370  -8.1440  -6.9602  -6.4592

          k = 0.3571 0.3674 0.0000 ( 11353 PWs)   bands (ev):

   -20.5536 -19.3874 -10.9570  -9.2255  -9.1330  -7.6803  -7.2058  -6.0594

          k = 0.3571 0.4899 0.0000 ( 11371 PWs)   bands (ev):

   -20.1076 -19.0489 -11.6345 -10.3579  -9.2535  -7.4461  -7.0617  -5.5652

          k = 0.3571 0.6124 0.0000 ( 11399 PWs)   bands (ev):

   -19.5926 -18.7345 -12.3846 -11.4367  -9.0718  -7.7291  -6.3345  -5.0863

          k = 0.3571 0.7349 0.0000 ( 11397 PWs)   bands (ev):

   -19.0818 -18.5765 -12.8521 -12.3129  -8.7666  -8.0577  -5.5914  -4.8292

          k = 0.3571-0.8574 0.0000 ( 11384 PWs)   bands (ev):

   -18.6981 -18.6981 -12.8308 -12.8308  -8.4141  -8.4141  -5.0115  -5.0115

          k = 0.4286 0.0000 0.0000 ( 11312 PWs)   bands (ev):

   -20.9081 -20.2704  -9.8710  -8.2798  -8.1688  -7.3997  -7.2968  -6.7776

          k = 0.4286 0.1225 0.0000 ( 11315 PWs)   bands (ev):

   -20.8389 -20.2052  -9.8923  -8.3752  -8.0742  -7.6548  -7.2066  -6.9956

          k = 0.4286 0.2450 0.0000 ( 11333 PWs)   bands (ev):

   -20.6345 -20.0147 -10.0303  -8.7918  -8.2311  -7.7941  -7.4039  -6.9422

          k = 0.4286 0.3674 0.0000 ( 11346 PWs)   bands (ev):

   -20.3065 -19.7149 -10.5233  -9.6587  -8.6571  -7.6477  -7.3414  -6.5211

          k = 0.4286 0.4899 0.0000 ( 11393 PWs)   bands (ev):

   -19.8793 -19.3406 -11.3774 -10.7315  -8.7175  -7.7769  -6.7441  -5.9850

          k = 0.4286 0.6124 0.0000 ( 11401 PWs)   bands (ev):

   -19.3991 -18.9600 -12.2440 -11.7592  -8.5943  -7.8941  -6.0581  -5.4210

          k = 0.4286 0.7349 0.0000 ( 11401 PWs)   bands (ev):

   -18.9535 -18.6924 -12.8404 -12.5618  -8.4086  -8.0376  -5.3991  -5.0045

          k = 0.4286-0.8574 0.0000 ( 11380 PWs)   bands (ev):

   -18.6790 -18.6790 -12.9636 -12.9636  -8.2134  -8.2134  -4.9776  -4.9776

          k =-0.5000 0.0000 0.0000 ( 11324 PWs)   bands (ev):

   -20.6056 -20.6056  -9.0753  -9.0753  -7.7565  -7.7565  -7.0994  -7.0994

          k =-0.5000 0.1225 0.0000 ( 11302 PWs)   bands (ev):

   -20.5382 -20.5382  -9.1285  -9.1285  -7.6639  -7.6639  -7.3388  -7.3388

          k =-0.5000 0.2450 0.0000 ( 11296 PWs)   bands (ev):

   -20.3399 -20.3399  -9.3937  -9.3937  -7.8377  -7.8377  -7.3908  -7.3908

          k =-0.5000 0.3674 0.0000 ( 11360 PWs)   bands (ev):

   -20.0247 -20.0247 -10.0911 -10.0911  -8.1471  -8.1471  -6.9526  -6.9526

          k =-0.5000 0.4899 0.0000 ( 11386 PWs)   bands (ev):

   -19.6209 -19.6209 -11.0741 -11.0741  -8.2125  -8.2125  -6.3821  -6.3821

          k =-0.5000 0.6124 0.0000 ( 11410 PWs)   bands (ev):

   -19.1852 -19.1852 -12.0321 -12.0321  -8.1908  -8.1908  -5.7499  -5.7499

          k =-0.5000 0.7349 0.0000 ( 11398 PWs)   bands (ev):

   -18.8208 -18.8208 -12.7411 -12.7411  -8.1574  -8.1574  -5.1991  -5.1991

          k =-0.5000-0.8574 0.0000 ( 11384 PWs)   bands (ev):

   -18.6722 -18.6722 -13.0090 -13.0090  -8.1433  -8.1433  -4.9655  -4.9655

     highest occupied level (ev):    -4.0506

!    total energy              =     -54.86714805 Ry
     estimated scf accuracy    <          6.0E-13 Ry

     The total energy is the sum of the following terms:
     one-electron contribution =    -447.28551317 Ry
     hartree contribution      =     226.92363259 Ry
     xc contribution           =     -18.66986774 Ry
     ewald contribution        =     184.16460027 Ry

     convergence has been achieved in   3 iterations

     negative rho (up, down):  9.603E-06 0.000E+00

     Forces acting on atoms (cartesian axes, Ry/au):

     atom    1 type  2   force =    -0.00001628    0.00000000    0.00000000
     atom    2 type  1   force =     0.00001621    0.00000000    0.00000000
     atom    3 type  2   force =    -0.00001625    0.00000000    0.00000000
     atom    4 type  1   force =     0.00001632    0.00000000    0.00000000

     Total force =     0.000033     Total SCF correction =     0.000001

     bfgs converged in   4 scf cycles and   3 bfgs steps
     (criteria: energy <  1.0E-06 Ry, force <  1.0E-04 Ry/Bohr)

     End of BFGS Geometry Optimization

     Final energy   =     -54.8671480518 Ry

     File ./wfc-out/pwscf.bfgs deleted, as requested
Begin final coordinates

ATOMIC_POSITIONS (crystal)
N            -0.0003606336        0.0000000000        0.5000000000
B             0.3337191362        0.0000000000        0.5000000000
N             0.4996393672        0.5000000000        0.5000000000
B             0.8337191302        0.5000000000        0.5000000000
End final coordinates



     Writing output data file ./wfc-out/pwscf.save/
 
     init_run     :      0.54s CPU      0.56s WALL (       1 calls)
     electrons    :     25.84s CPU     40.25s WALL (       4 calls)
     update_pot   :      0.53s CPU      0.54s WALL (       3 calls)
     forces       :      0.64s CPU      0.65s WALL (       4 calls)

     Called by init_run:
     wfcinit      :      0.25s CPU      0.27s WALL (       1 calls)
     potinit      :      0.06s CPU      0.06s WALL (       1 calls)
     hinit0       :      0.13s CPU      0.13s WALL (       1 calls)

     Called by electrons:
     c_bands      :     21.58s CPU     30.56s WALL (      50 calls)
     sum_band     :      3.23s CPU      3.39s WALL (      50 calls)
     v_of_rho     :      0.55s CPU      0.56s WALL (      52 calls)
     newd         :      0.32s CPU      0.33s WALL (      52 calls)
     mix_rho      :      0.09s CPU      0.09s WALL (      50 calls)

     Called by c_bands:
     init_us_2    :      0.62s CPU      0.67s WALL (    6720 calls)
     cegterg      :     19.87s CPU     20.92s WALL (    3200 calls)

     Called by *egterg:
     cdiaghg      :      1.20s CPU      1.27s WALL (   14658 calls)
     h_psi        :     16.48s CPU     17.36s WALL (   15042 calls)
     s_psi        :      0.30s CPU      0.32s WALL (   15042 calls)
     g_psi        :      0.10s CPU      0.10s WALL (   11778 calls)

     Called by h_psi:
     h_psi:calbec :      0.85s CPU      0.89s WALL (   15042 calls)
     vloc_psi     :     15.17s CPU     15.98s WALL (   15042 calls)
     add_vuspsi   :      0.33s CPU      0.35s WALL (   15042 calls)

     General routines
     calbec       :      1.06s CPU      1.11s WALL (   19266 calls)
     fft          :      0.41s CPU      0.42s WALL (     717 calls)
     ffts         :      0.02s CPU      0.02s WALL (     102 calls)
     fftw         :     15.87s CPU     16.72s WALL (  209452 calls)
     interpolate  :      0.04s CPU      0.04s WALL (      52 calls)
 
     Parallel routines
     fft_scatt_xy :      1.94s CPU      2.04s WALL (  210271 calls)
     fft_scatt_yz :      9.02s CPU      9.51s WALL (  210271 calls)
 
     PWSCF        :     27.98s CPU   1m17.73s WALL

 
   This run was terminated on:  17:29: 8  12Dec2022            

=------------------------------------------------------------------------------=
   JOB DONE.
=------------------------------------------------------------------------------=
