
     Program PWSCF v.6.6 starts on 12Dec2022 at 17:29: 9 

     This program is part of the open-source Quantum ESPRESSO suite
     for quantum simulation of materials; please cite
         "P. Giannozzi et al., J. Phys.:Condens. Matter 21 395502 (2009);
         "P. Giannozzi et al., J. Phys.:Condens. Matter 29 465901 (2017);
          URL http://www.quantum-espresso.org", 
     in publications or presentations arising from this work. More details at
     http://www.quantum-espresso.org/quote

     Parallel version (MPI), running on    24 processors

     MPI processes distributed on     1 nodes
     R & G space division:  proc/nbgrp/npool/nimage =      24
     Fft bands division:     nmany     =       1
     Reading input from INCAR-nscf.pw

     Current dimensions of program PWSCF are:
     Max number of different atomic species (ntypx) = 10
     Max number of k-points (npk) =  40000
     Max angular momentum in pseudopotentials (lmaxx) =  3

     Atomic positions and unit cell read from directory:
     ./wfc-out/pwscf.save/
     Atomic positions from file used, from input discarded
 

     Subspace diagonalization in iterative solution of the eigenvalue problem:
     a serial algorithm will be used

     Found symmetry operation: I + ( -0.5000  0.5000  0.0000)
     This is a supercell, fractional translations are disabled
 
     Parallelization info
     --------------------
     sticks:   dense  smooth     PW     G-vecs:    dense   smooth      PW
     Min          63      30      9                11371     3774     673
     Max          64      31     10                11394     3789     702
     Sum        1517     729    235               272977    90779   16491
 


     bravais-lattice index     =            0
     lattice parameter (alat)  =       8.0999  a.u.
     unit-cell volume          =    1446.0634 (a.u.)^3
     number of atoms/cell      =            4
     number of atomic types    =            2
     number of electrons       =        16.00
     number of Kohn-Sham states=            8
     kinetic-energy cutoff     =      60.0000  Ry
     charge density cutoff     =     500.0000  Ry
     Exchange-correlation= PBE
                           (   1   4   3   4   0   0   0)

     celldm(1)=   8.214863  celldm(2)=   0.000000  celldm(3)=   0.000000
     celldm(4)=   0.000000  celldm(5)=   0.000000  celldm(6)=   0.000000

     crystal axes: (cart. coord. in units of alat)
               a(1) = (   1.000000   0.000000   0.000000 )  
               a(2) = (   0.000000   0.583178   0.000000 )  
               a(3) = (   0.000000   0.000000   4.666060 )  

     reciprocal axes: (cart. coord. in units 2 pi/alat)
               b(1) = (  1.000000  0.000000  0.000000 )  
               b(2) = (  0.000000  1.714741  0.000000 )  
               b(3) = (  0.000000  0.000000  0.214314 )  


     PseudoPot. # 1 for B  read from file:
     ./B_pbe_v1.01.uspp.F.UPF
     MD5 check sum: d081ebb89d0c768e112975f650467a00
     Pseudo is Ultrasoft + core correction, Zval =  3.0
     Generated by new atomic code, or converted to UPF format
     Using radial grid of  781 points,  4 beta functions with: 
                l(1) =   0
                l(2) =   0
                l(3) =   1
                l(4) =   1
     Q(r) pseudized with  8 coefficients,  rinner =    1.100   1.100   1.100


     PseudoPot. # 2 for N  read from file:
     ./N.oncvpsp.upf
     MD5 check sum: 563d65bfb082928f0c9eb97172f6c357
     Pseudo is Norm-conserving + core correction, Zval =  5.0
     Generated using ONCVPSP code by D. R. Hamann
     Using radial grid of 1058 points,  4 beta functions with: 
                l(1) =   0
                l(2) =   0
                l(3) =   1
                l(4) =   1

     atomic species   valence    mass     pseudopotential
        B              3.00    10.81100     B ( 1.00)
        N              5.00    14.00674     N ( 1.00)

     No symmetry found



   Cartesian axes

     site n.     atom                  positions (alat units)
         1           N   tau(   1) = (  -0.0003606   0.0000000   2.3330302  )
         2           B   tau(   2) = (   0.3337191   0.0000000   2.3330302  )
         3           N   tau(   3) = (   0.4996394   0.2915892   2.3330302  )
         4           B   tau(   4) = (   0.8337191   0.2915892   2.3330302  )

     number of k points=   112

     Number of k-points >= 100: set verbosity='high' to print them.

     Dense  grid:   272977 G-vectors     FFT dimensions: (  60,  36, 270)

     Smooth grid:    90779 G-vectors     FFT dimensions: (  40,  24, 192)

     Estimated max dynamical RAM per process >      12.78 MB

     Estimated total dynamical RAM >     306.61 MB

     Check: negative core charge=   -0.000004

     The potential is recalculated from file :
     ./wfc-out/pwscf.save/charge-density


     negative rho (up, down):  9.603E-06 0.000E+00
     Starting wfcs are   16 randomized atomic wfcs

     Band Structure Calculation
     Davidson diagonalization with overlap

     ethr =  6.25E-13,  avg # of iterations = 37.4

     total cpu time spent up to now is        9.9 secs

     End of band structure calculation

     Number of k-points >= 100: set verbosity='high' to print the bands.

     highest occupied level (ev):    -4.0506



               ==================================================
                            POLARIZATION CALCULATION
                         !!! NOT THOROUGHLY TESTED !!!
               --------------------------------------------------


                     K-POINTS STRINGS USED IN CALCULATIONS
                     ~~~~~~~~~~~~~~~~~~~~~~~~~~~~~~~~~~~~~

       G-vector along string (2 pi/a):  1.00000  0.00000  0.00000
       Modulus of the vector (1/bohr):  0.77571
       Number of k-points per string:  14
       Number of different strings  :   8


                               IONIC POLARIZATION
                               ~~~~~~~~~~~~~~~~~~

  ============================================================================
    Ion    Species    Charge              Position                Phase
  ----------------------------------------------------------------------------
     1        N        5.000      -0.0004  0.0000  2.3330    -0.00180 (mod 1)
     2        B        3.000       0.3337  0.0000  2.3330     0.00116 (mod 1)
     3        N        5.000       0.4996  0.2916  2.3330     0.49820 (mod 1)
     4        B        3.000       0.8337  0.2916  2.3330    -0.49884 (mod 1)
  ----------------------------------------------------------------------------
                                               IONIC PHASE:  -0.00129 (mod 1)
  ============================================================================


                            ELECTRONIC POLARIZATION
                            ~~~~~~~~~~~~~~~~~~~~~~~

  ============================================================================
    String     Weight      First k-point in string         Phase
  ----------------------------------------------------------------------------
       1      0.071429      0.0000  0.0000  0.0000     0.11779
       2      0.142857      0.0000  0.1225  0.0000     0.10997
       3      0.142857      0.0000  0.2450  0.0000     0.08827
       4      0.142857      0.0000  0.3674  0.0000     0.05284
       5      0.142857      0.0000  0.4899  0.0000    -0.00186
       6      0.142857      0.0000  0.6124  0.0000    -0.07688
       7      0.142857      0.0000  0.7349  0.0000    -0.14609
       8      0.071429      0.0000 -0.8574  0.0000    -0.17297
  ----------------------------------------------------------------------------
                                          ELECTRONIC PHASE:  -0.00019
  ============================================================================


                               SUMMARY OF PHASES
                               ~~~~~~~~~~~~~~~~~

                          Ionic Phase: -0.00129
                     Electronic Phase: -0.00019
                          TOTAL PHASE: -0.00148 MOD_TOT: 1


                             VALUES OF POLARIZATION
                             ~~~~~~~~~~~~~~~~~~~~~~

        The calculation of phases done along the direction of vector 1
        of the reciprocal lattice gives the following contribution to
        the polarization vector (in different units, and being Omega
        the volume of the unit cell):

           P =  -0.0120125  (mod   8.0998787)  (e/Omega).bohr

           P =  -0.0000083  (mod   0.0056013)  e/bohr^2

           P =  -0.0004749  (mod   0.3202377)  C/m^2

        The polarization direction is:  ( 1.00000 , 0.00000 , 0.00000 )


               ==================================================



     Writing output data file ./wfc-out/pwscf.save/
 
     init_run     :      0.25s CPU      0.28s WALL (       1 calls)
     electrons    :      9.32s CPU     10.47s WALL (       1 calls)

     Called by init_run:
     wfcinit      :      0.00s CPU      0.01s WALL (       1 calls)
     potinit      :      0.02s CPU      0.02s WALL (       1 calls)
     hinit0       :      0.11s CPU      0.11s WALL (       1 calls)

     Called by electrons:
     c_bands      :      8.26s CPU      9.36s WALL (       1 calls)
     v_of_rho     :      0.01s CPU      0.01s WALL (       1 calls)
     newd         :      0.01s CPU      0.01s WALL (       1 calls)

     Called by c_bands:
     init_us_2    :      0.03s CPU      0.03s WALL (     320 calls)
     cegterg      :      7.14s CPU      7.46s WALL (     224 calls)

     Called by *egterg:
     cdiaghg      :      0.42s CPU      0.44s WALL (    4298 calls)
     h_psi        :      6.24s CPU      6.52s WALL (    4522 calls)
     s_psi        :      0.10s CPU      0.11s WALL (    4522 calls)
     g_psi        :      0.04s CPU      0.05s WALL (    4186 calls)

     Called by h_psi:
     h_psi:calbec :      0.30s CPU      0.32s WALL (    4522 calls)
     vloc_psi     :      5.79s CPU      6.05s WALL (    4522 calls)
     add_vuspsi   :      0.11s CPU      0.11s WALL (    4522 calls)

     General routines
     calbec       :      0.53s CPU      0.55s WALL (    4730 calls)
     fft          :      0.01s CPU      0.01s WALL (      13 calls)
     ffts         :      0.00s CPU      0.00s WALL (       1 calls)
     fftw         :      5.35s CPU      5.59s WALL (   68648 calls)
     interpolate  :      0.00s CPU      0.00s WALL (       1 calls)
     davcio       :      0.02s CPU      0.51s WALL (     432 calls)
 
     Parallel routines
     fft_scatt_xy :      0.60s CPU      0.63s WALL (   68662 calls)
     fft_scatt_yz :      3.04s CPU      3.17s WALL (   68662 calls)
 
     PWSCF        :     10.74s CPU   1m 3.80s WALL

 
   This run was terminated on:  17:30:13  12Dec2022            

=------------------------------------------------------------------------------=
   JOB DONE.
=------------------------------------------------------------------------------=
