 vasp.5.4.4.18Apr17-6-g9f103f2a35 (build Sep 16 2021 13:51:27) complex          
  
 executed on             LinuxIFC date 2023.03.16  12:57:39
 running on   24 total cores
 distrk:  each k-point on   24 cores,    1 groups
 distr:  one band on NCORES_PER_BAND=  24 cores,    1 groups


--------------------------------------------------------------------------------------------------------


 INCAR:
 POTCAR:    PAW_PBE Sn 08Apr2002                  
 POTCAR:    PAW_PBE Se 06Sep2000                  

 ----------------------------------------------------------------------------- 
|                                                                             |
|           W    W    AA    RRRRR   N    N  II  N    N   GGGG   !!!           |
|           W    W   A  A   R    R  NN   N  II  NN   N  G    G  !!!           |
|           W    W  A    A  R    R  N N  N  II  N N  N  G       !!!           |
|           W WW W  AAAAAA  RRRRR   N  N N  II  N  N N  G  GGG   !            |
|           WW  WW  A    A  R   R   N   NN  II  N   NN  G    G                |
|           W    W  A    A  R    R  N    N  II  N    N   GGGG   !!!           |
|                                                                             |
|      For optimal performance we recommend to set                            |
|        NCORE= 4 - approx SQRT( number of cores)                             |
|      NCORE specifies how many cores store one orbital (NPAR=cpu/NCORE).     |
|      This setting can  greatly improve the performance of VASP for DFT.     |
|      The default,   NCORE=1            might be grossly inefficient         |
|      on modern multi-core architectures or massively parallel machines.     |
|      Do your own testing !!!!                                               |
|      Unfortunately you need to use the default for GW and RPA calculations. |
|      (for HF NCORE is supported but not extensively tested yet)             |
|                                                                             |
 ----------------------------------------------------------------------------- 

 POTCAR:    PAW_PBE Sn 08Apr2002                  
   VRHFIN =Sn: s2p2                                                             
   LEXCH  = PE                                                                  
   EATOM  =    94.0860 eV,    6.9151 Ry                                         
                                                                                
   TITEL  = PAW_PBE Sn 08Apr2002                                                
   LULTRA =        F    use ultrasoft PP ?                                      
   IUNSCR =        1    unscreen: 0-lin 1-nonlin 2-no                           
   RPACOR =    2.000    partial core radius                                     
   POMASS =  118.710; ZVAL   =    4.000    mass and valenz                      
   RCORE  =    3.000    outmost cutoff radius                                   
   RWIGS  =    2.960; RWIGS  =    1.566    wigner-seitz radius (au A)           
   ENMAX  =  103.236; ENMIN  =   77.427 eV                                      
   ICORE  =        3    local potential                                         
   LCOR   =        T    correct aug charges                                     
   LPAW   =        T    paw PP                                                  
   EAUG   =  263.585                                                            
   DEXC   =    0.000                                                            
   RMAX   =    3.078    core radius for proj-oper                               
   RAUG   =    1.300    factor for augmentation sphere                          
   RDEP   =    3.022    radius for radial grids                                 
   RDEPT  =    2.655    core radius for aug-charge                              
                                                                                
   Atomic configuration                                                         
   13 entries                                                                   
     n  l   j            E        occ.                                          
     1  0  0.50    -29007.2859   2.0000                                         
     2  0  0.50     -4378.8056   2.0000                                         
     2  1  1.50     -3930.4293   6.0000                                         
     3  0  0.50      -845.0264   2.0000                                         
     3  1  1.50      -698.5725   6.0000                                         
     3  2  2.50      -473.2839  10.0000                                         
     4  0  0.50      -133.9036   2.0000                                         
     4  1  1.50       -89.6752   6.0000                                         
     4  2  2.50       -25.8375  10.0000                                         
     5  0  0.50       -10.5484   2.0000                                         
     5  1  0.50        -3.6940   2.0000                                         
     5  2  1.50        -1.3606   0.0000                                         
     4  3  2.50        -4.0817   0.0000                                         
   Description                                                                  
     l       E           TYP  RCUT    TYP  RCUT                                 
     0    -10.5483727     23  3.000                                             
     0     27.2116520     23  3.000                                             
     1     -3.6939829     23  3.000                                             
     1      1.9821976     23  3.000                                             
     2     -1.3605826     23  3.000                                             
     3     -2.7211652     23  3.000                                             
  local pseudopotential read in
  partial core-charges read in
  partial kinetic energy density read in
  atomic valenz-charges read in
  non local Contribution for L=           0  read in
    real space projection operators read in
  non local Contribution for L=           0  read in
    real space projection operators read in
  non local Contribution for L=           1  read in
    real space projection operators read in
  non local Contribution for L=           1  read in
    real space projection operators read in
  non local Contribution for L=           2  read in
    real space projection operators read in
    PAW grid and wavefunctions read in
 
   number of l-projection  operators is LMAX  =           5
   number of lm-projection operators is LMMAX =          13
 
 POTCAR:    PAW_PBE Se 06Sep2000                  
   VRHFIN =Se: s2p4                                                             
   LEXCH  = PE                                                                  
   EATOM  =   257.1286 eV,   18.8984 Ry                                         
                                                                                
   TITEL  = PAW_PBE Se 06Sep2000                                                
   LULTRA =        F    use ultrasoft PP ?                                      
   IUNSCR =        1    unscreen: 0-lin 1-nonlin 2-no                           
   RPACOR =    1.900    partial core radius                                     
   POMASS =   78.960; ZVAL   =    6.000    mass and valenz                      
   RCORE  =    2.100    outmost cutoff radius                                   
   RWIGS  =    2.200; RWIGS  =    1.164    wigner-seitz radius (au A)           
   ENMAX  =  211.555; ENMIN  =  158.666 eV                                      
   ICORE  =        3    local potential                                         
   LCOR   =        T    correct aug charges                                     
   LPAW   =        T    paw PP                                                  
   EAUG   =  446.842                                                            
   DEXC   =    0.000                                                            
   RMAX   =    2.147    core radius for proj-oper                               
   RAUG   =    1.300    factor for augmentation sphere                          
   RDEP   =    2.177    radius for radial grids                                 
   RDEPT  =    1.928    core radius for aug-charge                              
                                                                                
   Atomic configuration                                                         
   10 entries                                                                   
     n  l   j            E        occ.                                          
     1  0  0.50    -12503.4787   2.0000                                         
     2  0  0.50     -1606.9547   2.0000                                         
     2  1  1.50     -1413.3140   6.0000                                         
     3  0  0.50      -213.4885   2.0000                                         
     3  1  1.50      -152.9538   6.0000                                         
     3  2  2.50       -53.1221  10.0000                                         
     4  0  0.50       -17.2865   2.0000                                         
     4  1  0.50        -6.5110   4.0000                                         
     4  2  2.50        -6.8029   0.0000                                         
     4  3  2.50        -6.8029   0.0000                                         
   Description                                                                  
     l       E           TYP  RCUT    TYP  RCUT                                 
     0    -17.2865377     23  2.100                                             
     0    -15.3094411     23  2.100                                             
     1     -6.5110275     23  2.100                                             
     1     -0.0695192     23  2.100                                             
     2     -6.8029130     23  2.100                                             
     3     -1.3605826      7  2.100                                             
  local pseudopotential read in
  partial core-charges read in
  partial kinetic energy density read in
  atomic valenz-charges read in
  non local Contribution for L=           0  read in
    real space projection operators read in
  non local Contribution for L=           0  read in
    real space projection operators read in
  non local Contribution for L=           1  read in
    real space projection operators read in
  non local Contribution for L=           1  read in
    real space projection operators read in
  non local Contribution for L=           2  read in
    real space projection operators read in
    PAW grid and wavefunctions read in
 
   number of l-projection  operators is LMAX  =           5
   number of lm-projection operators is LMMAX =          13
 
 WARNING: PSMAXN for non-local potential too small
          PSMAXN should be >   12.5490833729506       NTYP=           1
  PAW_PBE Sn 08Apr2002                  :
 energy of atom  1       EATOM=  -94.0860
 kinetic energy error for atom=    0.0000 (will be added to EATOM!!)
  PAW_PBE Se 06Sep2000                  :
 energy of atom  2       EATOM= -257.1286
 kinetic energy error for atom=    0.0006 (will be added to EATOM!!)
 
 
 POSCAR:  POSCAR with strain of 0.007            
  positions in direct lattice
  No initial velocities read in
 exchange correlation table for  LEXCH =        8
   RHO(1)=    0.500       N(1)  =     2000
   RHO(2)=  100.500       N(2)  =     4000
 


--------------------------------------------------------------------------------------------------------


 ion  position               nearest neighbor table
   1  0.581  0.750  0.569-   4 2.72   3 2.93   3 2.93   3 3.24   3 3.24
   2  0.081  0.250  0.431-   3 2.72   4 2.93   4 2.93   4 3.24   4 3.24
   3  0.033  0.250  0.567-   2 2.72   1 2.93   1 2.93   1 3.24   1 3.24
   4  0.533  0.750  0.433-   1 2.72   2 2.93   2 2.93   2 3.24   2 3.24
 

IMPORTANT INFORMATION: All symmetrisations will be switched off!
NOSYMM: (Re-)initialisation of all symmetry stuff for point group C_1.

 
 
 KPOINTS: KMesh Grid                              

Automatic generation of k-mesh.
Space group operators:
 irot       det(A)        alpha          n_x          n_y          n_z        tau_x        tau_y        tau_z
    1     1.000000     0.000000     1.000000     0.000000     0.000000     0.000000     0.000000     0.000000
 
 Subroutine IBZKPT returns following result:
 ===========================================
 
 Found    113 irreducible k-points:
 
 Following reciprocal coordinates:
            Coordinates               Weight
  0.000000  0.000000  0.000000      1.000000
  0.066667  0.000000  0.000000      2.000000
  0.133333  0.000000  0.000000      2.000000
  0.200000  0.000000  0.000000      2.000000
  0.266667  0.000000  0.000000      2.000000
  0.333333  0.000000  0.000000      2.000000
  0.400000  0.000000  0.000000      2.000000
  0.466667  0.000000  0.000000      2.000000
  0.000000  0.066667  0.000000      2.000000
  0.066667  0.066667  0.000000      2.000000
  0.133333  0.066667  0.000000      2.000000
  0.200000  0.066667  0.000000      2.000000
  0.266667  0.066667  0.000000      2.000000
  0.333333  0.066667  0.000000      2.000000
  0.400000  0.066667  0.000000      2.000000
  0.466667  0.066667  0.000000      2.000000
 -0.466667  0.066667  0.000000      2.000000
 -0.400000  0.066667  0.000000      2.000000
 -0.333333  0.066667  0.000000      2.000000
 -0.266667  0.066667  0.000000      2.000000
 -0.200000  0.066667  0.000000      2.000000
 -0.133333  0.066667  0.000000      2.000000
 -0.066667  0.066667  0.000000      2.000000
  0.000000  0.133333  0.000000      2.000000
  0.066667  0.133333  0.000000      2.000000
  0.133333  0.133333  0.000000      2.000000
  0.200000  0.133333  0.000000      2.000000
  0.266667  0.133333  0.000000      2.000000
  0.333333  0.133333  0.000000      2.000000
  0.400000  0.133333  0.000000      2.000000
  0.466667  0.133333  0.000000      2.000000
 -0.466667  0.133333  0.000000      2.000000
 -0.400000  0.133333  0.000000      2.000000
 -0.333333  0.133333  0.000000      2.000000
 -0.266667  0.133333  0.000000      2.000000
 -0.200000  0.133333  0.000000      2.000000
 -0.133333  0.133333  0.000000      2.000000
 -0.066667  0.133333  0.000000      2.000000
  0.000000  0.200000  0.000000      2.000000
  0.066667  0.200000  0.000000      2.000000
  0.133333  0.200000  0.000000      2.000000
  0.200000  0.200000  0.000000      2.000000
  0.266667  0.200000  0.000000      2.000000
  0.333333  0.200000  0.000000      2.000000
  0.400000  0.200000  0.000000      2.000000
  0.466667  0.200000  0.000000      2.000000
 -0.466667  0.200000  0.000000      2.000000
 -0.400000  0.200000  0.000000      2.000000
 -0.333333  0.200000  0.000000      2.000000
 -0.266667  0.200000  0.000000      2.000000
 -0.200000  0.200000  0.000000      2.000000
 -0.133333  0.200000  0.000000      2.000000
 -0.066667  0.200000  0.000000      2.000000
  0.000000  0.266667  0.000000      2.000000
  0.066667  0.266667  0.000000      2.000000
  0.133333  0.266667  0.000000      2.000000
  0.200000  0.266667  0.000000      2.000000
  0.266667  0.266667  0.000000      2.000000
  0.333333  0.266667  0.000000      2.000000
  0.400000  0.266667  0.000000      2.000000
  0.466667  0.266667  0.000000      2.000000
 -0.466667  0.266667  0.000000      2.000000
 -0.400000  0.266667  0.000000      2.000000
 -0.333333  0.266667  0.000000      2.000000
 -0.266667  0.266667  0.000000      2.000000
 -0.200000  0.266667  0.000000      2.000000
 -0.133333  0.266667  0.000000      2.000000
 -0.066667  0.266667  0.000000      2.000000
  0.000000  0.333333  0.000000      2.000000
  0.066667  0.333333  0.000000      2.000000
  0.133333  0.333333  0.000000      2.000000
  0.200000  0.333333  0.000000      2.000000
  0.266667  0.333333  0.000000      2.000000
  0.333333  0.333333  0.000000      2.000000
  0.400000  0.333333  0.000000      2.000000
  0.466667  0.333333  0.000000      2.000000
 -0.466667  0.333333  0.000000      2.000000
 -0.400000  0.333333  0.000000      2.000000
 -0.333333  0.333333  0.000000      2.000000
 -0.266667  0.333333  0.000000      2.000000
 -0.200000  0.333333  0.000000      2.000000
 -0.133333  0.333333  0.000000      2.000000
 -0.066667  0.333333  0.000000      2.000000
  0.000000  0.400000  0.000000      2.000000
  0.066667  0.400000  0.000000      2.000000
  0.133333  0.400000  0.000000      2.000000
  0.200000  0.400000  0.000000      2.000000
  0.266667  0.400000  0.000000      2.000000
  0.333333  0.400000  0.000000      2.000000
  0.400000  0.400000  0.000000      2.000000
  0.466667  0.400000  0.000000      2.000000
 -0.466667  0.400000  0.000000      2.000000
 -0.400000  0.400000  0.000000      2.000000
 -0.333333  0.400000  0.000000      2.000000
 -0.266667  0.400000  0.000000      2.000000
 -0.200000  0.400000  0.000000      2.000000
 -0.133333  0.400000  0.000000      2.000000
 -0.066667  0.400000  0.000000      2.000000
  0.000000  0.466667  0.000000      2.000000
  0.066667  0.466667  0.000000      2.000000
  0.133333  0.466667  0.000000      2.000000
  0.200000  0.466667  0.000000      2.000000
  0.266667  0.466667  0.000000      2.000000
  0.333333  0.466667  0.000000      2.000000
  0.400000  0.466667  0.000000      2.000000
  0.466667  0.466667  0.000000      2.000000
 -0.466667  0.466667  0.000000      2.000000
 -0.400000  0.466667  0.000000      2.000000
 -0.333333  0.466667  0.000000      2.000000
 -0.266667  0.466667  0.000000      2.000000
 -0.200000  0.466667  0.000000      2.000000
 -0.133333  0.466667  0.000000      2.000000
 -0.066667  0.466667  0.000000      2.000000
 
 Following cartesian coordinates:
            Coordinates               Weight
  0.000000  0.000000  0.000000      1.000000
  0.015099  0.000000  0.000000      2.000000
  0.030199  0.000000  0.000000      2.000000
  0.045298  0.000000  0.000000      2.000000
  0.060397  0.000000  0.000000      2.000000
  0.075496  0.000000  0.000000      2.000000
  0.090596  0.000000  0.000000      2.000000
  0.105695  0.000000  0.000000      2.000000
  0.000000  0.015531  0.000000      2.000000
  0.015099  0.015531  0.000000      2.000000
  0.030199  0.015531  0.000000      2.000000
  0.045298  0.015531  0.000000      2.000000
  0.060397  0.015531  0.000000      2.000000
  0.075496  0.015531  0.000000      2.000000
  0.090596  0.015531  0.000000      2.000000
  0.105695  0.015531  0.000000      2.000000
 -0.105695  0.015531  0.000000      2.000000
 -0.090596  0.015531  0.000000      2.000000
 -0.075496  0.015531  0.000000      2.000000
 -0.060397  0.015531  0.000000      2.000000
 -0.045298  0.015531  0.000000      2.000000
 -0.030199  0.015531  0.000000      2.000000
 -0.015099  0.015531  0.000000      2.000000
  0.000000  0.031062  0.000000      2.000000
  0.015099  0.031062  0.000000      2.000000
  0.030199  0.031062  0.000000      2.000000
  0.045298  0.031062  0.000000      2.000000
  0.060397  0.031062  0.000000      2.000000
  0.075496  0.031062  0.000000      2.000000
  0.090596  0.031062  0.000000      2.000000
  0.105695  0.031062  0.000000      2.000000
 -0.105695  0.031062  0.000000      2.000000
 -0.090596  0.031062  0.000000      2.000000
 -0.075496  0.031062  0.000000      2.000000
 -0.060397  0.031062  0.000000      2.000000
 -0.045298  0.031062  0.000000      2.000000
 -0.030199  0.031062  0.000000      2.000000
 -0.015099  0.031062  0.000000      2.000000
  0.000000  0.046593  0.000000      2.000000
  0.015099  0.046593  0.000000      2.000000
  0.030199  0.046593  0.000000      2.000000
  0.045298  0.046593  0.000000      2.000000
  0.060397  0.046593  0.000000      2.000000
  0.075496  0.046593  0.000000      2.000000
  0.090596  0.046593  0.000000      2.000000
  0.105695  0.046593  0.000000      2.000000
 -0.105695  0.046593  0.000000      2.000000
 -0.090596  0.046593  0.000000      2.000000
 -0.075496  0.046593  0.000000      2.000000
 -0.060397  0.046593  0.000000      2.000000
 -0.045298  0.046593  0.000000      2.000000
 -0.030199  0.046593  0.000000      2.000000
 -0.015099  0.046593  0.000000      2.000000
  0.000000  0.062124  0.000000      2.000000
  0.015099  0.062124  0.000000      2.000000
  0.030199  0.062124  0.000000      2.000000
  0.045298  0.062124  0.000000      2.000000
  0.060397  0.062124  0.000000      2.000000
  0.075496  0.062124  0.000000      2.000000
  0.090596  0.062124  0.000000      2.000000
  0.105695  0.062124  0.000000      2.000000
 -0.105695  0.062124  0.000000      2.000000
 -0.090596  0.062124  0.000000      2.000000
 -0.075496  0.062124  0.000000      2.000000
 -0.060397  0.062124  0.000000      2.000000
 -0.045298  0.062124  0.000000      2.000000
 -0.030199  0.062124  0.000000      2.000000
 -0.015099  0.062124  0.000000      2.000000
  0.000000  0.077655  0.000000      2.000000
  0.015099  0.077655  0.000000      2.000000
  0.030199  0.077655  0.000000      2.000000
  0.045298  0.077655  0.000000      2.000000
  0.060397  0.077655  0.000000      2.000000
  0.075496  0.077655  0.000000      2.000000
  0.090596  0.077655  0.000000      2.000000
  0.105695  0.077655  0.000000      2.000000
 -0.105695  0.077655  0.000000      2.000000
 -0.090596  0.077655  0.000000      2.000000
 -0.075496  0.077655  0.000000      2.000000
 -0.060397  0.077655  0.000000      2.000000
 -0.045298  0.077655  0.000000      2.000000
 -0.030199  0.077655  0.000000      2.000000
 -0.015099  0.077655  0.000000      2.000000
  0.000000  0.093186  0.000000      2.000000
  0.015099  0.093186  0.000000      2.000000
  0.030199  0.093186  0.000000      2.000000
  0.045298  0.093186  0.000000      2.000000
  0.060397  0.093186  0.000000      2.000000
  0.075496  0.093186  0.000000      2.000000
  0.090596  0.093186  0.000000      2.000000
  0.105695  0.093186  0.000000      2.000000
 -0.105695  0.093186  0.000000      2.000000
 -0.090596  0.093186  0.000000      2.000000
 -0.075496  0.093186  0.000000      2.000000
 -0.060397  0.093186  0.000000      2.000000
 -0.045298  0.093186  0.000000      2.000000
 -0.030199  0.093186  0.000000      2.000000
 -0.015099  0.093186  0.000000      2.000000
  0.000000  0.108717  0.000000      2.000000
  0.015099  0.108717  0.000000      2.000000
  0.030199  0.108717  0.000000      2.000000
  0.045298  0.108717  0.000000      2.000000
  0.060397  0.108717  0.000000      2.000000
  0.075496  0.108717  0.000000      2.000000
  0.090596  0.108717  0.000000      2.000000
  0.105695  0.108717  0.000000      2.000000
 -0.105695  0.108717  0.000000      2.000000
 -0.090596  0.108717  0.000000      2.000000
 -0.075496  0.108717  0.000000      2.000000
 -0.060397  0.108717  0.000000      2.000000
 -0.045298  0.108717  0.000000      2.000000
 -0.030199  0.108717  0.000000      2.000000
 -0.015099  0.108717  0.000000      2.000000
 


--------------------------------------------------------------------------------------------------------




 Dimension of arrays:
   k-points           NKPTS =    113   k-points in BZ     NKDIM =    113   number of bands    NBANDS=     14
   number of dos      NEDOS =    301   number of ions     NIONS =      4
   non local maximal  LDIM  =      5   non local SUM 2l+1 LMDIM =     13
   total plane-waves  NPLWV = 207360
   max r-space proj   IRMAX =      1   max aug-charges    IRDMAX=  52852
   dimension x,y,z NGX =    36 NGY =   36 NGZ =  160
   dimension x,y,z NGXF=    72 NGYF=   72 NGZF=  320
   support grid    NGXF=    72 NGYF=   72 NGZF=  320
   ions per type =               2   2
   NGX,Y,Z   is equivalent  to a cutoff of  13.56, 13.94, 13.30 a.u.
   NGXF,Y,Z  is equivalent  to a cutoff of  27.11, 27.89, 26.60 a.u.

 SYSTEM =  SnSe                                    
 POSCAR =   POSCAR with strain of 0.007            

 Startparameter for this run:
   NWRITE =      2    write-flag & timer
   PREC   = accura    normal or accurate (medium, high low for compatibility)
   ISTART =      0    job   : 0-new  1-cont  2-samecut
   ICHARG =      2    charge: 1-file 2-atom 10-const
   ISPIN  =      1    spin polarized calculation?
   LNONCOLLINEAR =      F non collinear calculations
   LSORBIT =      F    spin-orbit coupling
   INIWAV =      1    electr: 0-lowe 1-rand  2-diag
   LASPH  =      F    aspherical Exc in radial PAW
   METAGGA=      F    non-selfconsistent MetaGGA calc.

 Electronic Relaxation 1
   ENCUT  =  600.0 eV  44.10 Ry    6.64 a.u.   8.82  8.57 39.94*2*pi/ulx,y,z
   ENINI  =  600.0     initial cutoff
   ENAUG  =  446.8 eV  augmentation charge cutoff
   NELM   =     60;   NELMIN=  2; NELMDL= -5     # of ELM steps 
   EDIFF  = 0.1E-05   stopping-criterion for ELM
   LREAL  =      F    real-space projection
   NLSPLINE    = F    spline interpolate recip. space projectors
   LCOMPAT=      F    compatible to vasp.4.4
   GGA_COMPAT  = T    GGA compatible to vasp.4.4-vasp.4.6
   LMAXPAW     = -100 max onsite density
   LMAXMIX     =    2 max onsite mixed and CHGCAR
   VOSKOWN=      0    Vosko Wilk Nusair interpolation
   ROPT   =    0.00000   0.00000
 Ionic relaxation
   EDIFFG = -.1E-02   stopping-criterion for IOM
   NSW    =    100    number of steps for IOM
   NBLOCK =      1;   KBLOCK =    100    inner block; outer block 
   IBRION =      2    ionic relax: 0-MD 1-quasi-New 2-CG
   NFREE  =      1    steps in history (QN), initial steepest desc. (CG)
   ISIF   =      2    stress and relaxation
   IWAVPR =     11    prediction:  0-non 1-charg 2-wave 3-comb
   ISYM   =      0    0-nonsym 1-usesym 2-fastsym
   LCORR  =      T    Harris-Foulkes like correction to forces

   POTIM  = 0.5000    time-step for ionic-motion
   TEIN   =    0.0    initial temperature
   TEBEG  =    0.0;   TEEND  =   0.0 temperature during run
   SMASS  =  -3.00    Nose mass-parameter (am)
   estimated Nose-frequenzy (Omega)   =  0.10E-29 period in steps =****** mass=  -0.445E-27a.u.
   SCALEE = 1.0000    scale energy and forces
   NPACO  =    256;   APACO  = 16.0  distance and # of slots for P.C.
   PSTRESS=    0.0 pullay stress

  Mass of Ions in am
   POMASS = 118.71 78.96
  Ionic Valenz
   ZVAL   =   4.00  6.00
  Atomic Wigner-Seitz radii
   RWIGS  =  -1.00 -1.00
  virtual crystal weights 
   VCA    =   1.00  1.00
   NELECT =      20.0000    total number of electrons
   NUPDOWN=      -1.0000    fix difference up-down

 DOS related values:
   EMIN   =  10.00;   EMAX   =-10.00  energy-range for DOS
   EFERMI =   0.00
   ISMEAR =     0;   SIGMA  =   0.10  broadening in eV -4-tet -1-fermi 0-gaus

 Electronic relaxation 2 (details)
   IALGO  =     38    algorithm
   LDIAG  =      T    sub-space diagonalisation (order eigenvalues)
   LSUBROT=      F    optimize rotation matrix (better conditioning)
   TURBO    =      0    0=normal 1=particle mesh
   IRESTART =      0    0=no restart 2=restart with 2 vectors
   NREBOOT  =      0    no. of reboots
   NMIN     =      0    reboot dimension
   EREF     =   0.00    reference energy to select bands
   IMIX   =      4    mixing-type and parameters
     AMIX     =   0.40;   BMIX     =  1.00
     AMIX_MAG =   1.60;   BMIX_MAG =  1.00
     AMIN     =   0.10
     WC   =   100.;   INIMIX=   1;  MIXPRE=   1;  MAXMIX= -45

 Intra band minimization:
   WEIMIN = 0.0010     energy-eigenvalue tresh-hold
   EBREAK =  0.18E-07  absolut break condition
   DEPER  =   0.30     relativ break condition  

   TIME   =   0.40     timestep for ELM

  volume/ion in A,a.u.               =      94.76       639.48
  Fermi-wavevector in a.u.,A,eV,Ry     =   0.614028  1.160344  5.129803  0.377030
  Thomas-Fermi vector in A             =   1.670890
 
 Write flags
   LWAVE        =      T    write WAVECAR
   LDOWNSAMPLE  =      F    k-point downsampling of WAVECAR
   LCHARG       =      T    write CHGCAR
   LVTOT        =      F    write LOCPOT, total local potential
   LVHAR        =      F    write LOCPOT, Hartree potential only
   LELF         =      F    write electronic localiz. function (ELF)
   LORBIT       =      0    0 simple, 1 ext, 2 COOP (PROOUT), +10 PAW based schemes


 Dipole corrections
   LMONO  =      F    monopole corrections only (constant potential shift)
   LDIPOL =      F    correct potential (dipole corrections)
   IDIPOL =      0    1-x, 2-y, 3-z, 4-all directions 
   EPSILON=  1.0000000 bulk dielectric constant

 Exchange correlation treatment:
   GGA     =    PE    GGA type
   LEXCH   =     8    internal setting for exchange type
   VOSKOWN=      0    Vosko Wilk Nusair interpolation
   LHFCALC =     F    Hartree Fock is set to
   LHFONE  =     F    Hartree Fock one center treatment
   AEXX    =    0.0000 exact exchange contribution

 Linear response parameters
   LEPSILON=     F    determine dielectric tensor
   LRPA    =     F    only Hartree local field effects (RPA)
   LNABLA  =     F    use nabla operator in PAW spheres
   LVEL    =     F    velocity operator in full k-point grid
   LINTERFAST=   F  fast interpolation
   KINTER  =     0    interpolate to denser k-point grid
   CSHIFT  =0.1000    complex shift for real part using Kramers Kronig
   OMEGAMAX=  -1.0    maximum frequency
   DEG_THRESHOLD= 0.2000000E-02 threshold for treating states as degnerate
   RTIME   =   -0.100 relaxation time in fs
  (WPLASMAI=    0.000 imaginary part of plasma frequency in eV, 0.658/RTIME)
   DFIELD  = 0.0000000 0.0000000 0.0000000 field for delta impulse in time
 
 Orbital magnetization related:
   ORBITALMAG=     F  switch on orbital magnetization
   LCHIMAG   =     F  perturbation theory with respect to B field
   DQ        =  0.001000  dq finite difference perturbation B field
   LLRAUG    =     F  two centre corrections for induced B field



--------------------------------------------------------------------------------------------------------


 conjugate gradient relaxation of ions
 charge density and potential will be updated during run
 non-spin polarized calculation
 Variant of blocked Davidson
 Davidson routine will perform the subspace rotation
 perform sub-space diagonalisation
    after iterative eigenvector-optimisation
 modified Broyden-mixing scheme, WC =      100.0
 initial mixing is a Kerker type mixing with AMIX =  0.4000 and BMIX =      1.0000
 Hartree-type preconditioning will be used
 using additional bands            4
 reciprocal scheme for non local part
 use partial core corrections
 calculate Harris-corrections to forces 
   (improved forces if not selfconsistent)
 use gradient corrections 
 use of overlap-Matrix (Vanderbilt PP)
 Gauss-broadening in eV      SIGMA  =   0.10


--------------------------------------------------------------------------------------------------------


  energy-cutoff  :      600.00
  volume of cell :      379.05
      direct lattice vectors                 reciprocal lattice vectors
     4.415224441  0.000000000  0.000000000     0.226489052  0.000000000  0.000000000
     0.000000000  4.292477857  0.000000000     0.000000000  0.232965675  0.000000000
     0.000000000  0.000000000 20.000000000     0.000000000  0.000000000  0.050000000

  length of vectors
     4.415224441  4.292477857 20.000000000     0.226489052  0.232965675  0.050000000


 
 k-points in units of 2pi/SCALE and weight: KMesh Grid                              
   0.00000000  0.00000000  0.00000000       0.004
   0.01509927  0.00000000  0.00000000       0.009
   0.03019854  0.00000000  0.00000000       0.009
   0.04529781  0.00000000  0.00000000       0.009
   0.06039708  0.00000000  0.00000000       0.009
   0.07549635  0.00000000  0.00000000       0.009
   0.09059562  0.00000000  0.00000000       0.009
   0.10569489  0.00000000  0.00000000       0.009
   0.00000000  0.01553104  0.00000000       0.009
   0.01509927  0.01553104  0.00000000       0.009
   0.03019854  0.01553104  0.00000000       0.009
   0.04529781  0.01553104  0.00000000       0.009
   0.06039708  0.01553104  0.00000000       0.009
   0.07549635  0.01553104  0.00000000       0.009
   0.09059562  0.01553104  0.00000000       0.009
   0.10569489  0.01553104  0.00000000       0.009
  -0.10569489  0.01553104  0.00000000       0.009
  -0.09059562  0.01553104  0.00000000       0.009
  -0.07549635  0.01553104  0.00000000       0.009
  -0.06039708  0.01553104  0.00000000       0.009
  -0.04529781  0.01553104  0.00000000       0.009
  -0.03019854  0.01553104  0.00000000       0.009
  -0.01509927  0.01553104  0.00000000       0.009
   0.00000000  0.03106209  0.00000000       0.009
   0.01509927  0.03106209  0.00000000       0.009
   0.03019854  0.03106209  0.00000000       0.009
   0.04529781  0.03106209  0.00000000       0.009
   0.06039708  0.03106209  0.00000000       0.009
   0.07549635  0.03106209  0.00000000       0.009
   0.09059562  0.03106209  0.00000000       0.009
   0.10569489  0.03106209  0.00000000       0.009
  -0.10569489  0.03106209  0.00000000       0.009
  -0.09059562  0.03106209  0.00000000       0.009
  -0.07549635  0.03106209  0.00000000       0.009
  -0.06039708  0.03106209  0.00000000       0.009
  -0.04529781  0.03106209  0.00000000       0.009
  -0.03019854  0.03106209  0.00000000       0.009
  -0.01509927  0.03106209  0.00000000       0.009
   0.00000000  0.04659313  0.00000000       0.009
   0.01509927  0.04659313  0.00000000       0.009
   0.03019854  0.04659313  0.00000000       0.009
   0.04529781  0.04659313  0.00000000       0.009
   0.06039708  0.04659313  0.00000000       0.009
   0.07549635  0.04659313  0.00000000       0.009
   0.09059562  0.04659313  0.00000000       0.009
   0.10569489  0.04659313  0.00000000       0.009
  -0.10569489  0.04659313  0.00000000       0.009
  -0.09059562  0.04659313  0.00000000       0.009
  -0.07549635  0.04659313  0.00000000       0.009
  -0.06039708  0.04659313  0.00000000       0.009
  -0.04529781  0.04659313  0.00000000       0.009
  -0.03019854  0.04659313  0.00000000       0.009
  -0.01509927  0.04659313  0.00000000       0.009
   0.00000000  0.06212418  0.00000000       0.009
   0.01509927  0.06212418  0.00000000       0.009
   0.03019854  0.06212418  0.00000000       0.009
   0.04529781  0.06212418  0.00000000       0.009
   0.06039708  0.06212418  0.00000000       0.009
   0.07549635  0.06212418  0.00000000       0.009
   0.09059562  0.06212418  0.00000000       0.009
   0.10569489  0.06212418  0.00000000       0.009
  -0.10569489  0.06212418  0.00000000       0.009
  -0.09059562  0.06212418  0.00000000       0.009
  -0.07549635  0.06212418  0.00000000       0.009
  -0.06039708  0.06212418  0.00000000       0.009
  -0.04529781  0.06212418  0.00000000       0.009
  -0.03019854  0.06212418  0.00000000       0.009
  -0.01509927  0.06212418  0.00000000       0.009
   0.00000000  0.07765522  0.00000000       0.009
   0.01509927  0.07765522  0.00000000       0.009
   0.03019854  0.07765522  0.00000000       0.009
   0.04529781  0.07765522  0.00000000       0.009
   0.06039708  0.07765522  0.00000000       0.009
   0.07549635  0.07765522  0.00000000       0.009
   0.09059562  0.07765522  0.00000000       0.009
   0.10569489  0.07765522  0.00000000       0.009
  -0.10569489  0.07765522  0.00000000       0.009
  -0.09059562  0.07765522  0.00000000       0.009
  -0.07549635  0.07765522  0.00000000       0.009
  -0.06039708  0.07765522  0.00000000       0.009
  -0.04529781  0.07765522  0.00000000       0.009
  -0.03019854  0.07765522  0.00000000       0.009
  -0.01509927  0.07765522  0.00000000       0.009
   0.00000000  0.09318627  0.00000000       0.009
   0.01509927  0.09318627  0.00000000       0.009
   0.03019854  0.09318627  0.00000000       0.009
   0.04529781  0.09318627  0.00000000       0.009
   0.06039708  0.09318627  0.00000000       0.009
   0.07549635  0.09318627  0.00000000       0.009
   0.09059562  0.09318627  0.00000000       0.009
   0.10569489  0.09318627  0.00000000       0.009
  -0.10569489  0.09318627  0.00000000       0.009
  -0.09059562  0.09318627  0.00000000       0.009
  -0.07549635  0.09318627  0.00000000       0.009
  -0.06039708  0.09318627  0.00000000       0.009
  -0.04529781  0.09318627  0.00000000       0.009
  -0.03019854  0.09318627  0.00000000       0.009
  -0.01509927  0.09318627  0.00000000       0.009
   0.00000000  0.10871731  0.00000000       0.009
   0.01509927  0.10871731  0.00000000       0.009
   0.03019854  0.10871731  0.00000000       0.009
   0.04529781  0.10871731  0.00000000       0.009
   0.06039708  0.10871731  0.00000000       0.009
   0.07549635  0.10871731  0.00000000       0.009
   0.09059562  0.10871731  0.00000000       0.009
   0.10569489  0.10871731  0.00000000       0.009
  -0.10569489  0.10871731  0.00000000       0.009
  -0.09059562  0.10871731  0.00000000       0.009
  -0.07549635  0.10871731  0.00000000       0.009
  -0.06039708  0.10871731  0.00000000       0.009
  -0.04529781  0.10871731  0.00000000       0.009
  -0.03019854  0.10871731  0.00000000       0.009
  -0.01509927  0.10871731  0.00000000       0.009
 
 k-points in reciprocal lattice and weights: KMesh Grid                              
   0.00000000  0.00000000  0.00000000       0.004
   0.06666667  0.00000000  0.00000000       0.009
   0.13333333  0.00000000  0.00000000       0.009
   0.20000000  0.00000000  0.00000000       0.009
   0.26666667  0.00000000  0.00000000       0.009
   0.33333333  0.00000000  0.00000000       0.009
   0.40000000  0.00000000  0.00000000       0.009
   0.46666667  0.00000000  0.00000000       0.009
   0.00000000  0.06666667  0.00000000       0.009
   0.06666667  0.06666667  0.00000000       0.009
   0.13333333  0.06666667  0.00000000       0.009
   0.20000000  0.06666667  0.00000000       0.009
   0.26666667  0.06666667  0.00000000       0.009
   0.33333333  0.06666667  0.00000000       0.009
   0.40000000  0.06666667  0.00000000       0.009
   0.46666667  0.06666667  0.00000000       0.009
  -0.46666667  0.06666667  0.00000000       0.009
  -0.40000000  0.06666667  0.00000000       0.009
  -0.33333333  0.06666667  0.00000000       0.009
  -0.26666667  0.06666667  0.00000000       0.009
  -0.20000000  0.06666667  0.00000000       0.009
  -0.13333333  0.06666667  0.00000000       0.009
  -0.06666667  0.06666667  0.00000000       0.009
   0.00000000  0.13333333  0.00000000       0.009
   0.06666667  0.13333333  0.00000000       0.009
   0.13333333  0.13333333  0.00000000       0.009
   0.20000000  0.13333333  0.00000000       0.009
   0.26666667  0.13333333  0.00000000       0.009
   0.33333333  0.13333333  0.00000000       0.009
   0.40000000  0.13333333  0.00000000       0.009
   0.46666667  0.13333333  0.00000000       0.009
  -0.46666667  0.13333333  0.00000000       0.009
  -0.40000000  0.13333333  0.00000000       0.009
  -0.33333333  0.13333333  0.00000000       0.009
  -0.26666667  0.13333333  0.00000000       0.009
  -0.20000000  0.13333333  0.00000000       0.009
  -0.13333333  0.13333333  0.00000000       0.009
  -0.06666667  0.13333333  0.00000000       0.009
   0.00000000  0.20000000  0.00000000       0.009
   0.06666667  0.20000000  0.00000000       0.009
   0.13333333  0.20000000  0.00000000       0.009
   0.20000000  0.20000000  0.00000000       0.009
   0.26666667  0.20000000  0.00000000       0.009
   0.33333333  0.20000000  0.00000000       0.009
   0.40000000  0.20000000  0.00000000       0.009
   0.46666667  0.20000000  0.00000000       0.009
  -0.46666667  0.20000000  0.00000000       0.009
  -0.40000000  0.20000000  0.00000000       0.009
  -0.33333333  0.20000000  0.00000000       0.009
  -0.26666667  0.20000000  0.00000000       0.009
  -0.20000000  0.20000000  0.00000000       0.009
  -0.13333333  0.20000000  0.00000000       0.009
  -0.06666667  0.20000000  0.00000000       0.009
   0.00000000  0.26666667  0.00000000       0.009
   0.06666667  0.26666667  0.00000000       0.009
   0.13333333  0.26666667  0.00000000       0.009
   0.20000000  0.26666667  0.00000000       0.009
   0.26666667  0.26666667  0.00000000       0.009
   0.33333333  0.26666667  0.00000000       0.009
   0.40000000  0.26666667  0.00000000       0.009
   0.46666667  0.26666667  0.00000000       0.009
  -0.46666667  0.26666667  0.00000000       0.009
  -0.40000000  0.26666667  0.00000000       0.009
  -0.33333333  0.26666667  0.00000000       0.009
  -0.26666667  0.26666667  0.00000000       0.009
  -0.20000000  0.26666667  0.00000000       0.009
  -0.13333333  0.26666667  0.00000000       0.009
  -0.06666667  0.26666667  0.00000000       0.009
   0.00000000  0.33333333  0.00000000       0.009
   0.06666667  0.33333333  0.00000000       0.009
   0.13333333  0.33333333  0.00000000       0.009
   0.20000000  0.33333333  0.00000000       0.009
   0.26666667  0.33333333  0.00000000       0.009
   0.33333333  0.33333333  0.00000000       0.009
   0.40000000  0.33333333  0.00000000       0.009
   0.46666667  0.33333333  0.00000000       0.009
  -0.46666667  0.33333333  0.00000000       0.009
  -0.40000000  0.33333333  0.00000000       0.009
  -0.33333333  0.33333333  0.00000000       0.009
  -0.26666667  0.33333333  0.00000000       0.009
  -0.20000000  0.33333333  0.00000000       0.009
  -0.13333333  0.33333333  0.00000000       0.009
  -0.06666667  0.33333333  0.00000000       0.009
   0.00000000  0.40000000  0.00000000       0.009
   0.06666667  0.40000000  0.00000000       0.009
   0.13333333  0.40000000  0.00000000       0.009
   0.20000000  0.40000000  0.00000000       0.009
   0.26666667  0.40000000  0.00000000       0.009
   0.33333333  0.40000000  0.00000000       0.009
   0.40000000  0.40000000  0.00000000       0.009
   0.46666667  0.40000000  0.00000000       0.009
  -0.46666667  0.40000000  0.00000000       0.009
  -0.40000000  0.40000000  0.00000000       0.009
  -0.33333333  0.40000000  0.00000000       0.009
  -0.26666667  0.40000000  0.00000000       0.009
  -0.20000000  0.40000000  0.00000000       0.009
  -0.13333333  0.40000000  0.00000000       0.009
  -0.06666667  0.40000000  0.00000000       0.009
   0.00000000  0.46666667  0.00000000       0.009
   0.06666667  0.46666667  0.00000000       0.009
   0.13333333  0.46666667  0.00000000       0.009
   0.20000000  0.46666667  0.00000000       0.009
   0.26666667  0.46666667  0.00000000       0.009
   0.33333333  0.46666667  0.00000000       0.009
   0.40000000  0.46666667  0.00000000       0.009
   0.46666667  0.46666667  0.00000000       0.009
  -0.46666667  0.46666667  0.00000000       0.009
  -0.40000000  0.46666667  0.00000000       0.009
  -0.33333333  0.46666667  0.00000000       0.009
  -0.26666667  0.46666667  0.00000000       0.009
  -0.20000000  0.46666667  0.00000000       0.009
  -0.13333333  0.46666667  0.00000000       0.009
  -0.06666667  0.46666667  0.00000000       0.009
 
 position of ions in fractional coordinates (direct lattice) 
   0.58124336  0.75000000  0.56874314
   0.08124336  0.25000000  0.43125686
   0.03286064  0.25000000  0.56707387
   0.53286061  0.75000000  0.43292613
 
 position of ions in cartesian coordinates  (Angst):
   2.56631988  3.21935839 11.37486283
   0.35870766  1.07311946  8.62513717
   0.14508711  1.07311946 11.34147733
   2.35269921  3.21935839  8.65852267
 


--------------------------------------------------------------------------------------------------------


 k-point  1 :   0.0000 0.0000 0.0000  plane waves:   12703
 k-point  2 :   0.0667 0.0000 0.0000  plane waves:   12699
 k-point  3 :   0.1333 0.0000 0.0000  plane waves:   12677
 k-point  4 :   0.2000 0.0000 0.0000  plane waves:   12656
 k-point  5 :   0.2667 0.0000 0.0000  plane waves:   12632
 k-point  6 :   0.3333 0.0000 0.0000  plane waves:   12672
 k-point  7 :   0.4000 0.0000 0.0000  plane waves:   12678
 k-point  8 :   0.4667 0.0000 0.0000  plane waves:   12692
 k-point  9 :   0.0000 0.0667 0.0000  plane waves:   12649
 k-point 10 :   0.0667 0.0667 0.0000  plane waves:   12669
 k-point 11 :   0.1333 0.0667 0.0000  plane waves:   12676
 k-point 12 :   0.2000 0.0667 0.0000  plane waves:   12649
 k-point 13 :   0.2667 0.0667 0.0000  plane waves:   12667
 k-point 14 :   0.3333 0.0667 0.0000  plane waves:   12678
 k-point 15 :   0.4000 0.0667 0.0000  plane waves:   12668
 k-point 16 :   0.4667 0.0667 0.0000  plane waves:   12686
 k-point 17 :  -0.4667 0.0667 0.0000  plane waves:   12686
 k-point 18 :  -0.4000 0.0667 0.0000  plane waves:   12668
 k-point 19 :  -0.3333 0.0667 0.0000  plane waves:   12678
 k-point 20 :  -0.2667 0.0667 0.0000  plane waves:   12667
 k-point 21 :  -0.2000 0.0667 0.0000  plane waves:   12649
 k-point 22 :  -0.1333 0.0667 0.0000  plane waves:   12676
 k-point 23 :  -0.0667 0.0667 0.0000  plane waves:   12669
 k-point 24 :   0.0000 0.1333 0.0000  plane waves:   12651
 k-point 25 :   0.0667 0.1333 0.0000  plane waves:   12646
 k-point 26 :   0.1333 0.1333 0.0000  plane waves:   12658
 k-point 27 :   0.2000 0.1333 0.0000  plane waves:   12636
 k-point 28 :   0.2667 0.1333 0.0000  plane waves:   12645
 k-point 29 :   0.3333 0.1333 0.0000  plane waves:   12664
 k-point 30 :   0.4000 0.1333 0.0000  plane waves:   12681
 k-point 31 :   0.4667 0.1333 0.0000  plane waves:   12673
 k-point 32 :  -0.4667 0.1333 0.0000  plane waves:   12673
 k-point 33 :  -0.4000 0.1333 0.0000  plane waves:   12681
 k-point 34 :  -0.3333 0.1333 0.0000  plane waves:   12664
 k-point 35 :  -0.2667 0.1333 0.0000  plane waves:   12645
 k-point 36 :  -0.2000 0.1333 0.0000  plane waves:   12636
 k-point 37 :  -0.1333 0.1333 0.0000  plane waves:   12658
 k-point 38 :  -0.0667 0.1333 0.0000  plane waves:   12646
 k-point 39 :   0.0000 0.2000 0.0000  plane waves:   12659
 k-point 40 :   0.0667 0.2000 0.0000  plane waves:   12656
 k-point 41 :   0.1333 0.2000 0.0000  plane waves:   12634
 k-point 42 :   0.2000 0.2000 0.0000  plane waves:   12658
 k-point 43 :   0.2667 0.2000 0.0000  plane waves:   12658
 k-point 44 :   0.3333 0.2000 0.0000  plane waves:   12645
 k-point 45 :   0.4000 0.2000 0.0000  plane waves:   12671
 k-point 46 :   0.4667 0.2000 0.0000  plane waves:   12674
 k-point 47 :  -0.4667 0.2000 0.0000  plane waves:   12674
 k-point 48 :  -0.4000 0.2000 0.0000  plane waves:   12671
 k-point 49 :  -0.3333 0.2000 0.0000  plane waves:   12645
 k-point 50 :  -0.2667 0.2000 0.0000  plane waves:   12658
 k-point 51 :  -0.2000 0.2000 0.0000  plane waves:   12658
 k-point 52 :  -0.1333 0.2000 0.0000  plane waves:   12634
 k-point 53 :  -0.0667 0.2000 0.0000  plane waves:   12656
 k-point 54 :   0.0000 0.2667 0.0000  plane waves:   12631
 k-point 55 :   0.0667 0.2667 0.0000  plane waves:   12632
 k-point 56 :   0.1333 0.2667 0.0000  plane waves:   12638
 k-point 57 :   0.2000 0.2667 0.0000  plane waves:   12643
 k-point 58 :   0.2667 0.2667 0.0000  plane waves:   12658
 k-point 59 :   0.3333 0.2667 0.0000  plane waves:   12654
 k-point 60 :   0.4000 0.2667 0.0000  plane waves:   12655
 k-point 61 :   0.4667 0.2667 0.0000  plane waves:   12671
 k-point 62 :  -0.4667 0.2667 0.0000  plane waves:   12671
 k-point 63 :  -0.4000 0.2667 0.0000  plane waves:   12655
 k-point 64 :  -0.3333 0.2667 0.0000  plane waves:   12654
 k-point 65 :  -0.2667 0.2667 0.0000  plane waves:   12658
 k-point 66 :  -0.2000 0.2667 0.0000  plane waves:   12643
 k-point 67 :  -0.1333 0.2667 0.0000  plane waves:   12638
 k-point 68 :  -0.0667 0.2667 0.0000  plane waves:   12632
 k-point 69 :   0.0000 0.3333 0.0000  plane waves:   12607
 k-point 70 :   0.0667 0.3333 0.0000  plane waves:   12620
 k-point 71 :   0.1333 0.3333 0.0000  plane waves:   12629
 k-point 72 :   0.2000 0.3333 0.0000  plane waves:   12640
 k-point 73 :   0.2667 0.3333 0.0000  plane waves:   12643
 k-point 74 :   0.3333 0.3333 0.0000  plane waves:   12644
 k-point 75 :   0.4000 0.3333 0.0000  plane waves:   12659
 k-point 76 :   0.4667 0.3333 0.0000  plane waves:   12657
 k-point 77 :  -0.4667 0.3333 0.0000  plane waves:   12657
 k-point 78 :  -0.4000 0.3333 0.0000  plane waves:   12659
 k-point 79 :  -0.3333 0.3333 0.0000  plane waves:   12644
 k-point 80 :  -0.2667 0.3333 0.0000  plane waves:   12643
 k-point 81 :  -0.2000 0.3333 0.0000  plane waves:   12640
 k-point 82 :  -0.1333 0.3333 0.0000  plane waves:   12629
 k-point 83 :  -0.0667 0.3333 0.0000  plane waves:   12620
 k-point 84 :   0.0000 0.4000 0.0000  plane waves:   12599
 k-point 85 :   0.0667 0.4000 0.0000  plane waves:   12606
 k-point 86 :   0.1333 0.4000 0.0000  plane waves:   12607
 k-point 87 :   0.2000 0.4000 0.0000  plane waves:   12627
 k-point 88 :   0.2667 0.4000 0.0000  plane waves:   12641
 k-point 89 :   0.3333 0.4000 0.0000  plane waves:   12643
 k-point 90 :   0.4000 0.4000 0.0000  plane waves:   12647
 k-point 91 :   0.4667 0.4000 0.0000  plane waves:   12642
 k-point 92 :  -0.4667 0.4000 0.0000  plane waves:   12642
 k-point 93 :  -0.4000 0.4000 0.0000  plane waves:   12647
 k-point 94 :  -0.3333 0.4000 0.0000  plane waves:   12643
 k-point 95 :  -0.2667 0.4000 0.0000  plane waves:   12641
 k-point 96 :  -0.2000 0.4000 0.0000  plane waves:   12627
 k-point 97 :  -0.1333 0.4000 0.0000  plane waves:   12607
 k-point 98 :  -0.0667 0.4000 0.0000  plane waves:   12606
 k-point 99 :   0.0000 0.4667 0.0000  plane waves:   12622
 k-point ** :   0.0667 0.4667 0.0000  plane waves:   12604
 k-point ** :   0.1333 0.4667 0.0000  plane waves:   12614
 k-point ** :   0.2000 0.4667 0.0000  plane waves:   12621
 k-point ** :   0.2667 0.4667 0.0000  plane waves:   12625
 k-point ** :   0.3333 0.4667 0.0000  plane waves:   12637
 k-point ** :   0.4000 0.4667 0.0000  plane waves:   12634
 k-point ** :   0.4667 0.4667 0.0000  plane waves:   12632
 k-point ** :  -0.4667 0.4667 0.0000  plane waves:   12632
 k-point ** :  -0.4000 0.4667 0.0000  plane waves:   12634
 k-point ** :  -0.3333 0.4667 0.0000  plane waves:   12637
 k-point ** :  -0.2667 0.4667 0.0000  plane waves:   12625
 k-point ** :  -0.2000 0.4667 0.0000  plane waves:   12621
 k-point ** :  -0.1333 0.4667 0.0000  plane waves:   12614
 k-point ** :  -0.0667 0.4667 0.0000  plane waves:   12604

 maximum and minimum number of plane-waves per node :       547      508

 maximum number of plane-waves:     12703
 maximum index in each direction: 
   IXMAX=    9   IYMAX=    8   IZMAX=   39
   IXMIN=   -9   IYMIN=   -9   IZMIN=  -39


 parallel 3D FFT for wavefunctions:
    minimum data exchange during FFTs selected (reduces bandwidth)
 parallel 3D FFT for charge:
    minimum data exchange during FFTs selected (reduces bandwidth)


 total amount of memory used by VASP MPI-rank0    63270. kBytes
=======================================================================

   base      :      30000. kBytes
   nonl-proj :      12491. kBytes
   fftplans  :       2678. kBytes
   grid      :       4349. kBytes
   one-center:          8. kBytes
   wavefun   :      13744. kBytes
 
     INWAV:  cpu time    0.0000: real time    0.0000
 Broyden mixing: mesh for mixing (old mesh)
   NGX = 17   NGY = 17   NGZ = 79
  (NGX  = 72   NGY  = 72   NGZ  =320)
  gives a total of  22831 points

 initial charge density was supplied:
 charge density of overlapping atoms calculated
 number of electron      20.0000000 magnetization 
 keeping initial charge density in first step


--------------------------------------------------------------------------------------------------------


 Maximum index for augmentation-charges         2204 (set IRDMAX)


--------------------------------------------------------------------------------------------------------


 First call to EWALD:  gamma=   0.245
 Maximum number of real-space cells 4x 4x 1
 Maximum number of reciprocal cells 2x 2x 7

    FEWALD:  cpu time    0.0016: real time    0.0024


--------------------------------------- Iteration      1(   1)  ---------------------------------------


    POTLOK:  cpu time    0.0581: real time    0.2410
    SETDIJ:  cpu time    0.0048: real time    0.0051
     EDDAV:  cpu time    2.8925: real time    2.9043
       DOS:  cpu time    0.0059: real time    0.0059
    --------------------------------------------
      LOOP:  cpu time    2.9614: real time    3.1564

 eigenvalue-minimisations  :  3164
 total energy-change (2. order) : 0.1440319E+03  (-0.6274686E+03)
 number of electron      20.0000000 magnetization 
 augmentation part       20.0000000 magnetization 

 Free energy of the ion-electron system (eV)
  ---------------------------------------------------
  alpha Z        PSCENC =         9.43346654
  Ewald energy   TEWEN  =      1140.76780708
  -Hartree energ DENC   =     -1742.50953188
  -exchange      EXHF   =         0.00000000
  -V(xc)+E(xc)   XCENC  =      -238.63847042
  PAW double counting   =       799.43158084     -524.17639913
  entropy T*S    EENTRO =        -0.01328974
  eigenvalues    EBANDS =        -2.69120076
  atomic energy  EATOM  =       702.42789710
  Solvation  Ediel_sol  =         0.00000000
  ---------------------------------------------------
  free energy    TOTEN  =       144.03185964 eV

  energy without entropy =      144.04514939  energy(sigma->0) =      144.03850452


--------------------------------------------------------------------------------------------------------




--------------------------------------- Iteration      1(   2)  ---------------------------------------


     EDDAV:  cpu time    4.1652: real time    4.1737
       DOS:  cpu time    0.0060: real time    0.0060
    --------------------------------------------
      LOOP:  cpu time    4.1712: real time    4.1797

 eigenvalue-minimisations  :  5230
 total energy-change (2. order) :-0.1392346E+03  (-0.1347061E+03)
 number of electron      20.0000000 magnetization 
 augmentation part       20.0000000 magnetization 

 Free energy of the ion-electron system (eV)
  ---------------------------------------------------
  alpha Z        PSCENC =         9.43346654
  Ewald energy   TEWEN  =      1140.76780708
  -Hartree energ DENC   =     -1742.50953188
  -exchange      EXHF   =         0.00000000
  -V(xc)+E(xc)   XCENC  =      -238.63847042
  PAW double counting   =       799.43158084     -524.17639913
  entropy T*S    EENTRO =        -0.00272863
  eigenvalues    EBANDS =      -141.93637520
  atomic energy  EATOM  =       702.42789710
  Solvation  Ediel_sol  =         0.00000000
  ---------------------------------------------------
  free energy    TOTEN  =         4.79724631 eV

  energy without entropy =        4.79997494  energy(sigma->0) =        4.79861063


--------------------------------------------------------------------------------------------------------




--------------------------------------- Iteration      1(   3)  ---------------------------------------


     EDDAV:  cpu time    3.2732: real time    3.2814
       DOS:  cpu time    0.0040: real time    0.0040
    --------------------------------------------
      LOOP:  cpu time    3.2772: real time    3.2853

 eigenvalue-minimisations  :  3986
 total energy-change (2. order) :-0.2076190E+02  (-0.2055017E+02)
 number of electron      20.0000000 magnetization 
 augmentation part       20.0000000 magnetization 

 Free energy of the ion-electron system (eV)
  ---------------------------------------------------
  alpha Z        PSCENC =         9.43346654
  Ewald energy   TEWEN  =      1140.76780708
  -Hartree energ DENC   =     -1742.50953188
  -exchange      EXHF   =         0.00000000
  -V(xc)+E(xc)   XCENC  =      -238.63847042
  PAW double counting   =       799.43158084     -524.17639913
  entropy T*S    EENTRO =        -0.00000000
  eigenvalues    EBANDS =      -162.70100397
  atomic energy  EATOM  =       702.42789710
  Solvation  Ediel_sol  =         0.00000000
  ---------------------------------------------------
  free energy    TOTEN  =       -15.96465383 eV

  energy without entropy =      -15.96465383  energy(sigma->0) =      -15.96465383


--------------------------------------------------------------------------------------------------------




--------------------------------------- Iteration      1(   4)  ---------------------------------------


     EDDAV:  cpu time    3.6346: real time    3.6419
       DOS:  cpu time    0.0041: real time    0.0041
    --------------------------------------------
      LOOP:  cpu time    3.6387: real time    3.6460

 eigenvalue-minimisations  :  4530
 total energy-change (2. order) :-0.8198146E+00  (-0.8174343E+00)
 number of electron      20.0000000 magnetization 
 augmentation part       20.0000000 magnetization 

 Free energy of the ion-electron system (eV)
  ---------------------------------------------------
  alpha Z        PSCENC =         9.43346654
  Ewald energy   TEWEN  =      1140.76780708
  -Hartree energ DENC   =     -1742.50953188
  -exchange      EXHF   =         0.00000000
  -V(xc)+E(xc)   XCENC  =      -238.63847042
  PAW double counting   =       799.43158084     -524.17639913
  entropy T*S    EENTRO =        -0.00000000
  eigenvalues    EBANDS =      -163.52081854
  atomic energy  EATOM  =       702.42789710
  Solvation  Ediel_sol  =         0.00000000
  ---------------------------------------------------
  free energy    TOTEN  =       -16.78446839 eV

  energy without entropy =      -16.78446839  energy(sigma->0) =      -16.78446839


--------------------------------------------------------------------------------------------------------




--------------------------------------- Iteration      1(   5)  ---------------------------------------


     EDDAV:  cpu time    3.4269: real time    3.4355
       DOS:  cpu time    0.0042: real time    0.0042
    CHARGE:  cpu time    0.2458: real time    0.2462
    MIXING:  cpu time    0.0020: real time    0.0021
    --------------------------------------------
      LOOP:  cpu time    3.6789: real time    3.6879

 eigenvalue-minimisations  :  4114
 total energy-change (2. order) :-0.1816277E-01  (-0.1815210E-01)
 number of electron      20.0000001 magnetization 
 augmentation part       -4.5210290 magnetization 

 Broyden mixing:
  rms(total) = 0.44813E+00    rms(broyden)= 0.44813E+00
  rms(prec ) = 0.48971E+00
  weight for this iteration     100.00

 Free energy of the ion-electron system (eV)
  ---------------------------------------------------
  alpha Z        PSCENC =         9.43346654
  Ewald energy   TEWEN  =      1140.76780708
  -Hartree energ DENC   =     -1742.50953188
  -exchange      EXHF   =         0.00000000
  -V(xc)+E(xc)   XCENC  =      -238.63847042
  PAW double counting   =       799.43158084     -524.17639913
  entropy T*S    EENTRO =        -0.00000000
  eigenvalues    EBANDS =      -163.53898131
  atomic energy  EATOM  =       702.42789710
  Solvation  Ediel_sol  =         0.00000000
  ---------------------------------------------------
  free energy    TOTEN  =       -16.80263116 eV

  energy without entropy =      -16.80263116  energy(sigma->0) =      -16.80263116


--------------------------------------------------------------------------------------------------------




--------------------------------------- Iteration      1(   6)  ---------------------------------------


    POTLOK:  cpu time    0.0450: real time    0.0451
    SETDIJ:  cpu time    0.0038: real time    0.0038
     EDDAV:  cpu time    3.4184: real time    3.4302
       DOS:  cpu time    0.0044: real time    0.0044
    CHARGE:  cpu time    0.2457: real time    0.2461
    MIXING:  cpu time    0.0021: real time    0.0023
    --------------------------------------------
      LOOP:  cpu time    3.7194: real time    3.7319

 eigenvalue-minimisations  :  3958
 total energy-change (2. order) : 0.4997900E+00  (-0.1284693E+00)
 number of electron      20.0000001 magnetization 
 augmentation part       -4.4880854 magnetization 

 Broyden mixing:
  rms(total) = 0.27432E+00    rms(broyden)= 0.27432E+00
  rms(prec ) = 0.28353E+00
  weight for this iteration     100.00

 eigenvalues of (default mixing * dielectric matrix)
  average eigenvalue GAMMA=   1.7715
  1.7715

 Free energy of the ion-electron system (eV)
  ---------------------------------------------------
  alpha Z        PSCENC =         9.43346654
  Ewald energy   TEWEN  =      1140.76780708
  -Hartree energ DENC   =     -1750.41988614
  -exchange      EXHF   =         0.00000000
  -V(xc)+E(xc)   XCENC  =      -238.15321414
  PAW double counting   =       922.39205259     -647.31485399
  entropy T*S    EENTRO =        -0.00000000
  eigenvalues    EBANDS =      -155.43611021
  atomic energy  EATOM  =       702.42789710
  Solvation  Ediel_sol  =         0.00000000
  ---------------------------------------------------
  free energy    TOTEN  =       -16.30284116 eV

  energy without entropy =      -16.30284116  energy(sigma->0) =      -16.30284116


--------------------------------------------------------------------------------------------------------




--------------------------------------- Iteration      1(   7)  ---------------------------------------


    POTLOK:  cpu time    0.0446: real time    0.0448
    SETDIJ:  cpu time    0.0037: real time    0.0037
     EDDAV:  cpu time    3.5169: real time    3.5279
       DOS:  cpu time    0.0044: real time    0.0044
    CHARGE:  cpu time    0.2986: real time    0.2989
    MIXING:  cpu time    0.0018: real time    0.0020
    --------------------------------------------
      LOOP:  cpu time    3.8700: real time    3.8817

 eigenvalue-minimisations  :  4076
 total energy-change (2. order) : 0.2657041E-01  (-0.3086625E-01)
 number of electron      20.0000001 magnetization 
 augmentation part       -4.4806130 magnetization 

 Broyden mixing:
  rms(total) = 0.10593E+00    rms(broyden)= 0.10593E+00
  rms(prec ) = 0.11130E+00
  weight for this iteration     100.00

 eigenvalues of (default mixing * dielectric matrix)
  average eigenvalue GAMMA=   1.7260
  1.3655  2.0866

 Free energy of the ion-electron system (eV)
  ---------------------------------------------------
  alpha Z        PSCENC =         9.43346654
  Ewald energy   TEWEN  =      1140.76780708
  -Hartree energ DENC   =     -1755.31116038
  -exchange      EXHF   =         0.00000000
  -V(xc)+E(xc)   XCENC  =      -237.83593599
  PAW double counting   =      1059.28473407     -784.33933436
  entropy T*S    EENTRO =        -0.00000000
  eigenvalues    EBANDS =      -150.70374482
  atomic energy  EATOM  =       702.42789710
  Solvation  Ediel_sol  =         0.00000000
  ---------------------------------------------------
  free energy    TOTEN  =       -16.27627075 eV

  energy without entropy =      -16.27627075  energy(sigma->0) =      -16.27627075


--------------------------------------------------------------------------------------------------------




--------------------------------------- Iteration      1(   8)  ---------------------------------------


    POTLOK:  cpu time    0.0456: real time    0.0457
    SETDIJ:  cpu time    0.0038: real time    0.0038
     EDDAV:  cpu time    3.6381: real time    3.6495
       DOS:  cpu time    0.0044: real time    0.0044
    CHARGE:  cpu time    0.2431: real time    0.2433
    MIXING:  cpu time    0.0017: real time    0.0017
    --------------------------------------------
      LOOP:  cpu time    3.9366: real time    3.9484

 eigenvalue-minimisations  :  4452
 total energy-change (2. order) : 0.9356274E-02  (-0.3727501E-02)
 number of electron      20.0000001 magnetization 
 augmentation part       -4.4847992 magnetization 

 Broyden mixing:
  rms(total) = 0.20312E-01    rms(broyden)= 0.20312E-01
  rms(prec ) = 0.27750E-01
  weight for this iteration     100.00

 eigenvalues of (default mixing * dielectric matrix)
  average eigenvalue GAMMA=   1.6944
  2.5140  1.2845  1.2845

 Free energy of the ion-electron system (eV)
  ---------------------------------------------------
  alpha Z        PSCENC =         9.43346654
  Ewald energy   TEWEN  =      1140.76780708
  -Hartree energ DENC   =     -1757.03893649
  -exchange      EXHF   =         0.00000000
  -V(xc)+E(xc)   XCENC  =      -237.75435462
  PAW double counting   =      1125.77195699     -850.86495629
  entropy T*S    EENTRO =        -0.00000000
  eigenvalues    EBANDS =      -149.00979479
  atomic energy  EATOM  =       702.42789710
  Solvation  Ediel_sol  =         0.00000000
  ---------------------------------------------------
  free energy    TOTEN  =       -16.26691448 eV

  energy without entropy =      -16.26691448  energy(sigma->0) =      -16.26691448


--------------------------------------------------------------------------------------------------------




--------------------------------------- Iteration      1(   9)  ---------------------------------------


    POTLOK:  cpu time    0.0455: real time    0.0457
    SETDIJ:  cpu time    0.0037: real time    0.0038
     EDDAV:  cpu time    3.5984: real time    3.6088
       DOS:  cpu time    0.0041: real time    0.0041
    CHARGE:  cpu time    0.2319: real time    0.2323
    MIXING:  cpu time    0.0018: real time    0.0018
    --------------------------------------------
      LOOP:  cpu time    3.8855: real time    3.8965

 eigenvalue-minimisations  :  4298
 total energy-change (2. order) : 0.3669606E-02  (-0.6513536E-03)
 number of electron      20.0000001 magnetization 
 augmentation part       -4.4829818 magnetization 

 Broyden mixing:
  rms(total) = 0.10007E-01    rms(broyden)= 0.10007E-01
  rms(prec ) = 0.15616E-01
  weight for this iteration     100.00

 eigenvalues of (default mixing * dielectric matrix)
  average eigenvalue GAMMA=   1.7085
  2.2296  2.2296  1.1873  1.1873

 Free energy of the ion-electron system (eV)
  ---------------------------------------------------
  alpha Z        PSCENC =         9.43346654
  Ewald energy   TEWEN  =      1140.76780708
  -Hartree energ DENC   =     -1758.97797704
  -exchange      EXHF   =         0.00000000
  -V(xc)+E(xc)   XCENC  =      -237.68219855
  PAW double counting   =      1143.26035156     -868.36469059
  entropy T*S    EENTRO =        -0.00000000
  eigenvalues    EBANDS =      -147.12790099
  atomic energy  EATOM  =       702.42789710
  Solvation  Ediel_sol  =         0.00000000
  ---------------------------------------------------
  free energy    TOTEN  =       -16.26324487 eV

  energy without entropy =      -16.26324487  energy(sigma->0) =      -16.26324487


--------------------------------------------------------------------------------------------------------




--------------------------------------- Iteration      1(  10)  ---------------------------------------


    POTLOK:  cpu time    0.0437: real time    0.0438
    SETDIJ:  cpu time    0.0037: real time    0.0037
     EDDAV:  cpu time    3.4644: real time    3.4716
       DOS:  cpu time    0.0042: real time    0.0042
    CHARGE:  cpu time    0.2681: real time    0.2686
    MIXING:  cpu time    0.0019: real time    0.0019
    --------------------------------------------
      LOOP:  cpu time    3.7859: real time    3.7936

 eigenvalue-minimisations  :  4358
 total energy-change (2. order) : 0.1302681E-02  (-0.1215595E-03)
 number of electron      20.0000001 magnetization 
 augmentation part       -4.4817212 magnetization 

 Broyden mixing:
  rms(total) = 0.49782E-02    rms(broyden)= 0.49782E-02
  rms(prec ) = 0.93142E-02
  weight for this iteration     100.00

 eigenvalues of (default mixing * dielectric matrix)
  average eigenvalue GAMMA=   1.8538
  3.3119  2.5927  1.2287  1.2287  0.9069

 Free energy of the ion-electron system (eV)
  ---------------------------------------------------
  alpha Z        PSCENC =         9.43346654
  Ewald energy   TEWEN  =      1140.76780708
  -Hartree energ DENC   =     -1760.25089162
  -exchange      EXHF   =         0.00000000
  -V(xc)+E(xc)   XCENC  =      -237.67020929
  PAW double counting   =      1133.33930289     -858.43407606
  entropy T*S    EENTRO =        -0.00000000
  eigenvalues    EBANDS =      -145.87523885
  atomic energy  EATOM  =       702.42789710
  Solvation  Ediel_sol  =         0.00000000
  ---------------------------------------------------
  free energy    TOTEN  =       -16.26194219 eV

  energy without entropy =      -16.26194219  energy(sigma->0) =      -16.26194219


--------------------------------------------------------------------------------------------------------




--------------------------------------- Iteration      1(  11)  ---------------------------------------


    POTLOK:  cpu time    0.0441: real time    0.0442
    SETDIJ:  cpu time    0.0037: real time    0.0037
     EDDAV:  cpu time    3.5430: real time    3.5506
       DOS:  cpu time    0.0042: real time    0.0041
    CHARGE:  cpu time    0.2514: real time    0.2530
    MIXING:  cpu time    0.0019: real time    0.0019
    --------------------------------------------
      LOOP:  cpu time    3.8482: real time    3.8575

 eigenvalue-minimisations  :  4298
 total energy-change (2. order) : 0.7426784E-03  (-0.1243431E-03)
 number of electron      20.0000001 magnetization 
 augmentation part       -4.4803563 magnetization 

 Broyden mixing:
  rms(total) = 0.32066E-02    rms(broyden)= 0.32066E-02
  rms(prec ) = 0.49792E-02
  weight for this iteration     100.00

 eigenvalues of (default mixing * dielectric matrix)
  average eigenvalue GAMMA=   1.8197
  3.3891  2.4012  1.8696  1.1846  1.1846  0.8892

 Free energy of the ion-electron system (eV)
  ---------------------------------------------------
  alpha Z        PSCENC =         9.43346654
  Ewald energy   TEWEN  =      1140.76780708
  -Hartree energ DENC   =     -1761.83312602
  -exchange      EXHF   =         0.00000000
  -V(xc)+E(xc)   XCENC  =      -237.63911316
  PAW double counting   =      1134.61978453     -859.71338676
  entropy T*S    EENTRO =        -0.00000000
  eigenvalues    EBANDS =      -144.32452884
  atomic energy  EATOM  =       702.42789710
  Solvation  Ediel_sol  =         0.00000000
  ---------------------------------------------------
  free energy    TOTEN  =       -16.26119951 eV

  energy without entropy =      -16.26119951  energy(sigma->0) =      -16.26119951


--------------------------------------------------------------------------------------------------------




--------------------------------------- Iteration      1(  12)  ---------------------------------------


    POTLOK:  cpu time    0.0444: real time    0.0445
    SETDIJ:  cpu time    0.0036: real time    0.0036
     EDDAV:  cpu time    3.0462: real time    3.0526
       DOS:  cpu time    0.0042: real time    0.0042
    CHARGE:  cpu time    0.2304: real time    0.2307
    MIXING:  cpu time    0.0021: real time    0.0021
    --------------------------------------------
      LOOP:  cpu time    3.3310: real time    3.3377

 eigenvalue-minimisations  :  3584
 total energy-change (2. order) :-0.7995392E-03  (-0.2704277E-04)
 number of electron      20.0000001 magnetization 
 augmentation part       -4.4797298 magnetization 

 Broyden mixing:
  rms(total) = 0.16984E-02    rms(broyden)= 0.16984E-02
  rms(prec ) = 0.27316E-02
  weight for this iteration     100.00

 eigenvalues of (default mixing * dielectric matrix)
  average eigenvalue GAMMA=   2.0618
  4.6044  3.0611  2.4983  1.1966  1.1966  1.0267  0.8489

 Free energy of the ion-electron system (eV)
  ---------------------------------------------------
  alpha Z        PSCENC =         9.43346654
  Ewald energy   TEWEN  =      1140.76780708
  -Hartree energ DENC   =     -1762.47226899
  -exchange      EXHF   =         0.00000000
  -V(xc)+E(xc)   XCENC  =      -237.62973976
  PAW double counting   =      1136.15881536     -861.25472056
  entropy T*S    EENTRO =        -0.00000000
  eigenvalues    EBANDS =      -143.69325583
  atomic energy  EATOM  =       702.42789710
  Solvation  Ediel_sol  =         0.00000000
  ---------------------------------------------------
  free energy    TOTEN  =       -16.26199905 eV

  energy without entropy =      -16.26199905  energy(sigma->0) =      -16.26199905


--------------------------------------------------------------------------------------------------------




--------------------------------------- Iteration      1(  13)  ---------------------------------------


    POTLOK:  cpu time    0.0448: real time    0.0449
    SETDIJ:  cpu time    0.0036: real time    0.0036
     EDDAV:  cpu time    3.1979: real time    3.2054
       DOS:  cpu time    0.0044: real time    0.0044
    CHARGE:  cpu time    0.2410: real time    0.2413
    MIXING:  cpu time    0.0020: real time    0.0021
    --------------------------------------------
      LOOP:  cpu time    3.4937: real time    3.5017

 eigenvalue-minimisations  :  3746
 total energy-change (2. order) :-0.4462576E-03  (-0.7776137E-05)
 number of electron      20.0000001 magnetization 
 augmentation part       -4.4795110 magnetization 

 Broyden mixing:
  rms(total) = 0.10867E-02    rms(broyden)= 0.10867E-02
  rms(prec ) = 0.14759E-02
  weight for this iteration     100.00

 eigenvalues of (default mixing * dielectric matrix)
  average eigenvalue GAMMA=   2.2357
  5.6514  3.2932  2.4982  2.1556  1.1551  1.1551  1.0665  0.9106

 Free energy of the ion-electron system (eV)
  ---------------------------------------------------
  alpha Z        PSCENC =         9.43346654
  Ewald energy   TEWEN  =      1140.76780708
  -Hartree energ DENC   =     -1762.89580313
  -exchange      EXHF   =         0.00000000
  -V(xc)+E(xc)   XCENC  =      -237.62799138
  PAW double counting   =      1135.17953415     -860.27443149
  entropy T*S    EENTRO =        -0.00000000
  eigenvalues    EBANDS =      -143.27292419
  atomic energy  EATOM  =       702.42789710
  Solvation  Ediel_sol  =         0.00000000
  ---------------------------------------------------
  free energy    TOTEN  =       -16.26244531 eV

  energy without entropy =      -16.26244531  energy(sigma->0) =      -16.26244531


--------------------------------------------------------------------------------------------------------




--------------------------------------- Iteration      1(  14)  ---------------------------------------


    POTLOK:  cpu time    0.0478: real time    0.0480
    SETDIJ:  cpu time    0.0038: real time    0.0038
     EDDAV:  cpu time    3.3300: real time    3.3409
       DOS:  cpu time    0.0045: real time    0.0045
    CHARGE:  cpu time    0.2533: real time    0.2542
    MIXING:  cpu time    0.0022: real time    0.0022
    --------------------------------------------
      LOOP:  cpu time    3.6416: real time    3.6534

 eigenvalue-minimisations  :  3884
 total energy-change (2. order) :-0.2680469E-03  (-0.4066082E-05)
 number of electron      20.0000001 magnetization 
 augmentation part       -4.4794787 magnetization 

 Broyden mixing:
  rms(total) = 0.38727E-03    rms(broyden)= 0.38727E-03
  rms(prec ) = 0.60953E-03
  weight for this iteration     100.00

 eigenvalues of (default mixing * dielectric matrix)
  average eigenvalue GAMMA=   2.2450
  6.7511  3.0740  2.5333  2.5333  1.1774  1.1774  1.0167  0.9711  0.9711

 Free energy of the ion-electron system (eV)
  ---------------------------------------------------
  alpha Z        PSCENC =         9.43346654
  Ewald energy   TEWEN  =      1140.76780708
  -Hartree energ DENC   =     -1763.10465120
  -exchange      EXHF   =         0.00000000
  -V(xc)+E(xc)   XCENC  =      -237.62787099
  PAW double counting   =      1135.40629561     -860.50068732
  entropy T*S    EENTRO =        -0.00000000
  eigenvalues    EBANDS =      -143.06497019
  atomic energy  EATOM  =       702.42789710
  Solvation  Ediel_sol  =         0.00000000
  ---------------------------------------------------
  free energy    TOTEN  =       -16.26271336 eV

  energy without entropy =      -16.26271336  energy(sigma->0) =      -16.26271336


--------------------------------------------------------------------------------------------------------




--------------------------------------- Iteration      1(  15)  ---------------------------------------


    POTLOK:  cpu time    0.0475: real time    0.0478
    SETDIJ:  cpu time    0.0038: real time    0.0038
     EDDAV:  cpu time    3.2935: real time    3.3036
       DOS:  cpu time    0.0043: real time    0.0043
    CHARGE:  cpu time    0.2383: real time    0.2387
    MIXING:  cpu time    0.0023: real time    0.0023
    --------------------------------------------
      LOOP:  cpu time    3.5898: real time    3.6005

 eigenvalue-minimisations  :  3836
 total energy-change (2. order) :-0.5774219E-04  (-0.1984506E-06)
 number of electron      20.0000001 magnetization 
 augmentation part       -4.4794959 magnetization 

 Broyden mixing:
  rms(total) = 0.31266E-03    rms(broyden)= 0.31266E-03
  rms(prec ) = 0.48994E-03
  weight for this iteration     100.00

 eigenvalues of (default mixing * dielectric matrix)
  average eigenvalue GAMMA=   2.3562
  6.5473  4.2872  2.7007  2.7007  1.9736  1.1395  1.1395  1.2013  0.9360  0.9360

 Free energy of the ion-electron system (eV)
  ---------------------------------------------------
  alpha Z        PSCENC =         9.43346654
  Ewald energy   TEWEN  =      1140.76780708
  -Hartree energ DENC   =     -1763.11981465
  -exchange      EXHF   =         0.00000000
  -V(xc)+E(xc)   XCENC  =      -237.62825817
  PAW double counting   =      1135.20549609     -860.29973868
  entropy T*S    EENTRO =        -0.00000000
  eigenvalues    EBANDS =      -143.04962642
  atomic energy  EATOM  =       702.42789710
  Solvation  Ediel_sol  =         0.00000000
  ---------------------------------------------------
  free energy    TOTEN  =       -16.26277110 eV

  energy without entropy =      -16.26277110  energy(sigma->0) =      -16.26277110


--------------------------------------------------------------------------------------------------------




--------------------------------------- Iteration      1(  16)  ---------------------------------------


    POTLOK:  cpu time    0.0470: real time    0.0472
    SETDIJ:  cpu time    0.0038: real time    0.0038
     EDDAV:  cpu time    3.1434: real time    3.1514
       DOS:  cpu time    0.0045: real time    0.0045
    CHARGE:  cpu time    0.2472: real time    0.2475
    MIXING:  cpu time    0.0023: real time    0.0023
    --------------------------------------------
      LOOP:  cpu time    3.4483: real time    3.4567

 eigenvalue-minimisations  :  3546
 total energy-change (2. order) :-0.4558000E-04  (-0.8280724E-06)
 number of electron      20.0000001 magnetization 
 augmentation part       -4.4795104 magnetization 

 Broyden mixing:
  rms(total) = 0.12285E-03    rms(broyden)= 0.12285E-03
  rms(prec ) = 0.22334E-03
  weight for this iteration     100.00

 eigenvalues of (default mixing * dielectric matrix)
  average eigenvalue GAMMA=   2.2807
  6.8030  4.5073  2.6496  2.6496  2.2587  1.1516  1.1516  1.1833  0.9365  0.9365
  0.8597

 Free energy of the ion-electron system (eV)
  ---------------------------------------------------
  alpha Z        PSCENC =         9.43346654
  Ewald energy   TEWEN  =      1140.76780708
  -Hartree energ DENC   =     -1763.17141595
  -exchange      EXHF   =         0.00000000
  -V(xc)+E(xc)   XCENC  =      -237.62833426
  PAW double counting   =      1135.08121943     -860.17546990
  entropy T*S    EENTRO =        -0.00000000
  eigenvalues    EBANDS =      -142.99798673
  atomic energy  EATOM  =       702.42789710
  Solvation  Ediel_sol  =         0.00000000
  ---------------------------------------------------
  free energy    TOTEN  =       -16.26281668 eV

  energy without entropy =      -16.26281668  energy(sigma->0) =      -16.26281668


--------------------------------------------------------------------------------------------------------




--------------------------------------- Iteration      1(  17)  ---------------------------------------


    POTLOK:  cpu time    0.0455: real time    0.0456
    SETDIJ:  cpu time    0.0038: real time    0.0039
     EDDAV:  cpu time    2.9519: real time    2.9606
       DOS:  cpu time    0.0044: real time    0.0044
    CHARGE:  cpu time    0.2434: real time    0.2442
    MIXING:  cpu time    0.0023: real time    0.0023
    --------------------------------------------
[...]
  band No.  band energies     occupation 
      1     -14.5788      2.00000
      2     -14.3284      2.00000
      3      -8.8553      2.00000
      4      -8.6316      2.00000
      5      -6.0700      2.00000
      6      -5.1297      2.00000
      7      -4.8592      2.00000
      8      -4.1292      2.00000
      9      -3.8618      2.00000
     10      -3.1038      2.00000
     11       0.0755      0.00000
     12       1.0303      0.00000
     13       1.1109      0.00000
     14       1.5278      0.00000

 k-point    96 :      -0.2000    0.4000    0.0000
  band No.  band energies     occupation 
      1     -14.6452      2.00000
      2     -14.3484      2.00000
      3      -9.0111      2.00000
      4      -8.7271      2.00000
      5      -5.6498      2.00000
      6      -4.8595      2.00000
      7      -4.5811      2.00000
      8      -3.9939      2.00000
      9      -3.5197      2.00000
     10      -2.7535      2.00000
     11      -0.3919      0.00000
     12       0.4913      0.00000
     13       0.6882      0.00000
     14       1.1913      0.00000

 k-point    97 :      -0.1333    0.4000    0.0000
  band No.  band energies     occupation 
      1     -14.6983      2.00000
      2     -14.3688      2.00000
      3      -9.1325      2.00000
      4      -8.8061      2.00000
      5      -5.1506      2.00000
      6      -4.7946      2.00000
      7      -4.1800      2.00000
      8      -3.9481      2.00000
      9      -2.9875      2.00000
     10      -2.5520      2.00000
     11      -0.6531      0.00000
     12      -0.2210      0.00000
     13       0.4797      0.00000
     14       0.7467      0.00000

 k-point    98 :      -0.0667    0.4000    0.0000
  band No.  band energies     occupation 
      1     -14.7325      2.00000
      2     -14.3835      2.00000
      3      -9.2087      2.00000
      4      -8.8577      2.00000
      5      -4.7944      2.00000
      6      -4.6344      2.00000
      7      -3.9773      2.00000
      8      -3.7910      2.00000
      9      -2.7136      2.00000
     10      -2.4463      2.00000
     11      -0.7977      0.00000
     12      -0.4142      0.00000
     13       0.1996      0.00000
     14       0.3662      0.00000

 k-point    99 :       0.0000    0.4667    0.0000
  band No.  band energies     occupation 
      1     -14.6016      2.00000
      2     -14.4793      2.00000
      3      -9.2174      2.00000
      4      -9.0941      2.00000
      5      -4.5599      2.00000
      6      -4.3531      2.00000
      7      -3.9108      2.00000
      8      -3.7238      2.00000
      9      -2.6314      2.00000
     10      -2.3111      2.00000
     11      -0.9342      0.00000
     12      -0.5130      0.00000
     13      -0.0837      0.00000
     14       0.1122      0.00000

 k-point   100 :       0.0667    0.4667    0.0000
  band No.  band energies     occupation 
      1     -14.5920      2.00000
      2     -14.4719      2.00000
      3      -9.1908      2.00000
      4      -9.0702      2.00000
      5      -4.5766      2.00000
      6      -4.4732      2.00000
      7      -4.0416      2.00000
      8      -3.9205      2.00000
      9      -2.5547      2.00000
     10      -2.4578      2.00000
     11      -0.8378      0.00000
     12      -0.7233      0.00000
     13       0.2573      0.00000
     14       0.5598      0.00000

 k-point   101 :       0.1333    0.4667    0.0000
  band No.  band energies     occupation 
      1     -14.5643      2.00000
      2     -14.4510      2.00000
      3      -9.1120      2.00000
      4      -9.0000      2.00000
      5      -4.8780      2.00000
      6      -4.6931      2.00000
      7      -4.2695      2.00000
      8      -4.1481      2.00000
      9      -2.8947      2.00000
     10      -2.6963      2.00000
     11      -0.5918      0.00000
     12      -0.3713      0.00000
     13       0.7777      0.00000
     14       0.8541      0.00000

 k-point   102 :       0.2000    0.4667    0.0000
  band No.  band energies     occupation 
      1     -14.5222      2.00000
      2     -14.4203      2.00000
      3      -8.9852      2.00000
      4      -8.8879      2.00000
      5      -5.3743      2.00000
      6      -5.0556      2.00000
      7      -4.4613      2.00000
      8      -4.2292      2.00000
      9      -3.3785      2.00000
     10      -3.0883      2.00000
     11      -0.0827      0.00000
     12       0.2680      0.00000
     13       0.9864      0.00000
     14       1.2088      0.00000

 k-point   103 :       0.2667    0.4667    0.0000
  band No.  band energies     occupation 
      1     -14.4713      2.00000
      2     -14.3854      2.00000
      3      -8.8189      2.00000
      4      -8.7430      2.00000
      5      -5.8324      2.00000
      6      -5.4964      2.00000
      7      -4.6615      2.00000
      8      -4.4007      2.00000
      9      -3.6989      2.00000
     10      -3.4332      2.00000
     11       0.4359      0.00000
     12       0.7940      0.00000
     13       1.3577      0.00000
     14       1.5947      0.00000

 k-point   104 :       0.3333    0.4667    0.0000
  band No.  band energies     occupation 
      1     -14.4189      2.00000
      2     -14.3535      2.00000
      3      -8.6302      2.00000
      4      -8.5812      2.00000
      5      -6.2046      2.00000
      6      -5.8988      2.00000
      7      -4.9493      2.00000
      8      -4.6934      2.00000
      9      -3.8051      2.00000
     10      -3.6107      2.00000
     11       0.7910      0.00000
     12       1.0662      0.00000
     13       1.8847      0.00000
     14       2.1452      0.00000

 k-point   105 :       0.4000    0.4667    0.0000
  band No.  band energies     occupation 
      1     -14.3729      2.00000
      2     -14.3319      2.00000
      3      -8.4520      2.00000
      4      -8.4300      2.00000
      5      -6.4571      2.00000
      6      -6.2333      2.00000
      7      -5.1925      2.00000
      8      -5.0023      2.00000
      9      -3.8029      2.00000
     10      -3.6847      2.00000
     11       1.0250      0.00000
     12       1.1955      0.00000
     13       2.3687      0.00000
     14       2.5895      0.00000

 k-point   106 :       0.4667    0.4667    0.0000
  band No.  band energies     occupation 
      1     -14.3406      2.00000
      2     -14.3266      2.00000
      3      -8.3371      2.00000
      4      -8.3326      2.00000
      5      -6.5526      2.00000
      6      -6.4684      2.00000
      7      -5.2922      2.00000
      8      -5.2216      2.00000
      9      -3.7679      2.00000
     10      -3.7281      2.00000
     11       1.1733      0.00000
     12       1.2311      0.00000
     13       2.6441      0.00000
     14       2.7613      0.00000

 k-point   107 :      -0.4667    0.4667    0.0000
  band No.  band energies     occupation 
      1     -14.3406      2.00000
      2     -14.3266      2.00000
      3      -8.3371      2.00000
      4      -8.3326      2.00000
      5      -6.5526      2.00000
      6      -6.4684      2.00000
      7      -5.2922      2.00000
      8      -5.2216      2.00000
      9      -3.7679      2.00000
     10      -3.7281      2.00000
     11       1.1733      0.00000
     12       1.2311      0.00000
     13       2.6441      0.00000
     14       2.7613      0.00000

 k-point   108 :      -0.4000    0.4667    0.0000
  band No.  band energies     occupation 
      1     -14.3729      2.00000
      2     -14.3319      2.00000
      3      -8.4520      2.00000
      4      -8.4300      2.00000
      5      -6.4571      2.00000
      6      -6.2333      2.00000
      7      -5.1925      2.00000
      8      -5.0023      2.00000
      9      -3.8029      2.00000
     10      -3.6847      2.00000
     11       1.0250      0.00000
     12       1.1955      0.00000
     13       2.3687      0.00000
     14       2.5895      0.00000

 k-point   109 :      -0.3333    0.4667    0.0000
  band No.  band energies     occupation 
      1     -14.4189      2.00000
      2     -14.3535      2.00000
      3      -8.6302      2.00000
      4      -8.5812      2.00000
      5      -6.2046      2.00000
      6      -5.8988      2.00000
      7      -4.9493      2.00000
      8      -4.6934      2.00000
      9      -3.8051      2.00000
     10      -3.6107      2.00000
     11       0.7910      0.00000
     12       1.0662      0.00000
     13       1.8847      0.00000
     14       2.1452      0.00000

 k-point   110 :      -0.2667    0.4667    0.0000
  band No.  band energies     occupation 
      1     -14.4713      2.00000
      2     -14.3854      2.00000
      3      -8.8189      2.00000
      4      -8.7430      2.00000
      5      -5.8324      2.00000
      6      -5.4964      2.00000
      7      -4.6615      2.00000
      8      -4.4007      2.00000
      9      -3.6989      2.00000
     10      -3.4332      2.00000
     11       0.4359      0.00000
     12       0.7940      0.00000
     13       1.3577      0.00000
     14       1.5947      0.00000

 k-point   111 :      -0.2000    0.4667    0.0000
  band No.  band energies     occupation 
      1     -14.5222      2.00000
      2     -14.4203      2.00000
      3      -8.9852      2.00000
      4      -8.8879      2.00000
      5      -5.3743      2.00000
      6      -5.0556      2.00000
      7      -4.4613      2.00000
      8      -4.2292      2.00000
      9      -3.3785      2.00000
     10      -3.0883      2.00000
     11      -0.0827      0.00000
     12       0.2680      0.00000
     13       0.9864      0.00000
     14       1.2088      0.00000

 k-point   112 :      -0.1333    0.4667    0.0000
  band No.  band energies     occupation 
      1     -14.5643      2.00000
      2     -14.4510      2.00000
      3      -9.1120      2.00000
      4      -9.0000      2.00000
      5      -4.8780      2.00000
      6      -4.6931      2.00000
      7      -4.2695      2.00000
      8      -4.1481      2.00000
      9      -2.8947      2.00000
     10      -2.6963      2.00000
     11      -0.5918      0.00000
     12      -0.3713      0.00000
     13       0.7777      0.00000
     14       0.8541      0.00000

 k-point   113 :      -0.0667    0.4667    0.0000
  band No.  band energies     occupation 
      1     -14.5920      2.00000
      2     -14.4719      2.00000
      3      -9.1908      2.00000
      4      -9.0702      2.00000
      5      -4.5766      2.00000
      6      -4.4732      2.00000
      7      -4.0416      2.00000
      8      -3.9205      2.00000
      9      -2.5547      2.00000
     10      -2.4578      2.00000
     11      -0.8378      0.00000
     12      -0.7233      0.00000
     13       0.2573      0.00000
     14       0.5598      0.00000


--------------------------------------------------------------------------------------------------------


 soft charge-density along one line, spin component           1
         0         1         2         3         4         5         6         7         8         9
 total charge-density along one line
 
 pseudopotential strength for first ion, spin component:           1
 30.098 -23.444   0.000  -0.089   0.038   0.000  -0.141   0.061
-23.444  28.123  -0.000   0.051  -0.021  -0.000   0.082  -0.035
  0.000  -0.000   6.334   0.000  -0.000   9.799   0.000  -0.000
 -0.089   0.051   0.000   6.332   0.002   0.000   9.795   0.003
  0.038  -0.021  -0.000   0.002   6.334  -0.000   0.003   9.798
  0.000  -0.000   9.799   0.000  -0.000  15.231   0.000  -0.000
 -0.141   0.082   0.000   9.795   0.003   0.000  15.224   0.004
  0.061  -0.035  -0.000   0.003   9.798  -0.000   0.004  15.230
 -0.000   0.000   0.008   0.000   0.000   0.012   0.000   0.000
  0.000  -0.000  -0.020   0.000   0.000  -0.031   0.000   0.000
 -0.003   0.004  -0.000  -0.023  -0.005  -0.000  -0.035  -0.007
  0.003  -0.002   0.000   0.009  -0.020   0.000   0.014  -0.031
 -0.001   0.000  -0.000  -0.000   0.009  -0.000  -0.000   0.014
 total augmentation occupancy for first ion, spin component:           1
  2.024  -0.015   0.000   0.239  -0.097  -0.000  -0.043   0.018  -0.000   0.000   0.022   0.002  -0.000
 -0.015   0.009  -0.000  -0.073   0.030   0.000   0.019  -0.007   0.000   0.000  -0.002   0.001  -0.001
  0.000  -0.000   1.507   0.000  -0.000  -0.405  -0.000   0.000   0.137  -0.044  -0.000  -0.000  -0.000
  0.239  -0.073   0.000   1.842   0.002  -0.000  -0.485  -0.016  -0.000   0.000  -0.266  -0.021  -0.001
 -0.097   0.030  -0.000   0.002   1.487   0.000  -0.017  -0.392  -0.000  -0.000  -0.088  -0.046  -0.007
 -0.000   0.000  -0.405  -0.000   0.000   0.117   0.000  -0.000  -0.036   0.012   0.000   0.000   0.000
 -0.043   0.019  -0.000  -0.485  -0.017   0.000   0.140   0.008   0.000  -0.000   0.074   0.006   0.000
  0.018  -0.007   0.000  -0.016  -0.392  -0.000   0.008   0.112  -0.000   0.000   0.023   0.013   0.002
 -0.000   0.000   0.137  -0.000  -0.000  -0.036   0.000  -0.000   0.075   0.000   0.000   0.000   0.000
  0.000   0.000  -0.044   0.000  -0.000   0.012  -0.000   0.000   0.000   0.021  -0.000   0.000  -0.000
  0.022  -0.002  -0.000  -0.266  -0.088   0.000   0.074   0.023   0.000  -0.000   0.077   0.007   0.002
  0.002   0.001  -0.000  -0.021  -0.046   0.000   0.006   0.013   0.000   0.000   0.007   0.022   0.001
 -0.000  -0.001  -0.000  -0.001  -0.007   0.000   0.000   0.002   0.000  -0.000   0.002   0.001   0.017


------------------------ aborting loop because EDIFF is reached ----------------------------------------


    CHARGE:  cpu time    0.2304: real time    0.2312
    FORLOC:  cpu time    0.0027: real time    0.0027
    FORNL :  cpu time    0.4229: real time    0.4245
    STRESS:  cpu time    0.7323: real time    0.7343
    FORCOR:  cpu time    0.0463: real time    0.0463
    FORHAR:  cpu time    0.0118: real time    0.0118
    MIXING:  cpu time    0.0010: real time    0.0010
    OFIELD:  cpu time    0.0000: real time    0.0000

  FORCE on cell =-STRESS in cart. coord.  units (eV):
  Direction    XX          YY          ZZ          XY          YZ          ZX
  --------------------------------------------------------------------------------------
  Alpha Z     9.43347     9.43347     9.43347
  Ewald    1593.43271  1598.91998 -2050.01230    -0.00000    -0.00000    -0.00002
  Hartree  1715.37273  1717.50675 -1668.29706    -0.00000     0.00000    -0.00000
  E(xc)     -77.63754   -77.65569   -78.85049     0.00000     0.00000     0.00000
  Local   -3561.50487 -3568.43389  3463.53888     0.00000    -0.00000     0.00002
  n-local   162.44274   162.66946   167.16740    -0.00000    -0.00000    -0.00000
  augment   -31.87609   -31.80974   -32.80207     0.00000    -0.00000    -0.00000
  Kinetic   190.14753   189.21636   189.82098     0.00000     0.00000     0.00000
  Fock        0.00000     0.00000     0.00000     0.00000     0.00000     0.00000
  -------------------------------------------------------------------------------------
  Total      -0.18934    -0.15332    -0.00118     0.00000     0.00000     0.00000
  in kB      -0.80030    -0.64805    -0.00498     0.00000     0.00000     0.00001
  external pressure =       -0.48 kB  Pullay stress =        0.00 kB


 VOLUME and BASIS-vectors are now :
 -----------------------------------------------------------------------------
  energy-cutoff  :      600.00
  volume of cell :      379.05
      direct lattice vectors                 reciprocal lattice vectors
     4.415224441  0.000000000  0.000000000     0.226489052  0.000000000  0.000000000
     0.000000000  4.292477857  0.000000000     0.000000000  0.232965675  0.000000000
     0.000000000  0.000000000 20.000000000     0.000000000  0.000000000  0.050000000

  length of vectors
     4.415224441  4.292477857 20.000000000     0.226489052  0.232965675  0.050000000


 FORCES acting on ions
    electron-ion (+dipol)            ewald-force                    non-local-force                 convergence-correction
 -----------------------------------------------------------------------------------------------
   0.481E+01 0.759E-07 -.143E+03   -.648E+01 0.642E-08 0.147E+03   0.166E+01 -.682E-07 -.383E+01   -.103E-03 -.162E-07 -.573E-03
   0.481E+01 -.306E-07 0.143E+03   -.648E+01 0.121E-06 -.147E+03   0.166E+01 -.793E-07 0.383E+01   -.102E-03 -.127E-07 0.587E-03
   -.597E+01 -.126E-07 -.204E+03   0.648E+01 -.765E-08 0.207E+03   -.504E+00 0.600E-08 -.204E+01   0.144E-02 0.134E-07 -.187E-02
   -.597E+01 0.110E-06 0.204E+03   0.648E+01 -.120E-06 -.207E+03   -.504E+00 0.591E-09 0.204E+01   0.144E-02 -.150E-09 0.190E-02
 -----------------------------------------------------------------------------------------------
   -.232E+01 0.143E-06 -.525E-04   -.355E-14 -.431E-15 -.568E-13   0.232E+01 -.141E-06 0.880E-05   0.267E-02 -.156E-07 0.448E-04
 
 
 POSITION                                       TOTAL-FORCE (eV/Angst)
 -----------------------------------------------------------------------------------
      2.58029      3.21936     11.37574         0.000103      0.000000      0.000366
      0.37268      1.07312      8.62426         0.000103      0.000000     -0.000371
      0.13112      1.07312     11.33788        -0.000104      0.000000     -0.000466
      2.33873      3.21936      8.66212        -0.000103     -0.000000      0.000472
 -----------------------------------------------------------------------------------
    total drift:                                0.000473     -0.000000      0.000001


--------------------------------------------------------------------------------------------------------



  FREE ENERGIE OF THE ION-ELECTRON SYSTEM (eV)
  ---------------------------------------------------
  free  energy   TOTEN  =       -16.26368350 eV

  energy  without entropy=      -16.26368350  energy(sigma->0) =      -16.26368350
 
 d Force = 0.8279739E-06[ 0.124E-06, 0.153E-05]  d Energy = 0.1109699E-05-0.282E-06
 d Force = 0.1101589E+00[ 0.110E+00, 0.110E+00]  d Ewald  = 0.1101589E+00-0.225E-10


--------------------------------------------------------------------------------------------------------


    POTLOK:  cpu time    0.0481: real time    0.0482


--------------------------------------------------------------------------------------------------------


 Conjugate gradient step on ions:
 trial-energy change:   -0.000001  1 .order   -0.000001   -0.000002   -0.000000
  (g-gl).g = 0.400E-06      g.g   = 0.493E-06  gl.gl    = 0.101E-05
 g(Force)  = 0.493E-06   g(Stress)= 0.000E+00 ortho     = 0.971E-07
 gamma     =   0.39645
 trial     =   2.88559
 opt step  =   3.13891  (harmonic =   3.13891) maximal distance =0.00023380
 next E    =   -16.263683   (d E  =  -0.00000)


--------------------------------------------------------------------------------------------------------


  
 reached required accuracy - stopping structural energy minimisation
 writing wavefunctions
     LOOP+:  cpu time    9.4448: real time    9.8532
    4ORBIT:  cpu time    0.0000: real time    0.0000

 total amount of memory used by VASP MPI-rank0    63270. kBytes
=======================================================================

   base      :      30000. kBytes
   nonl-proj :      12491. kBytes
   fftplans  :       2678. kBytes
   grid      :       4349. kBytes
   one-center:          8. kBytes
   wavefun   :      13744. kBytes
 
  
  
 General timing and accounting informations for this job:
 ========================================================
  
                  Total CPU time used (sec):      252.214
                            User time (sec):      251.326
                          System time (sec):        0.888
                         Elapsed time (sec):      263.187
  
                   Maximum memory used (kb):      215108.
                   Average memory used (kb):           0.
  
                          Minor page faults:       160077
                          Major page faults:           78
                 Voluntary context switches:        10811
