Automatically generated mesh
      39
Reciprocal lattice
    0.10000000000000    0.10000000000000    0.00000000000000             2
   -0.09999999999999    0.20000000000000    0.00000000000000             2
   -0.19999999999999    0.10000000000000    0.00000000000000             2
    0.30000000000000    0.10000000000000    0.00000000000000             2
   -0.10000000000000    0.40000000000001    0.00000000000000             2
   -0.40000000000000    0.30000000000000    0.00000000000000             2
   -0.30000000000000    0.40000000000001    0.00000000000000             2
    0.10000000000000    0.30000000000000    0.00000000000000             2
    0.40000000000000   -0.10000000000000    0.00000000000000             2
    0.50000000000000    0.10000000000000    0.00000000000000             2
   -0.10000000000000   -0.39999999999999    0.00000000000000             2
    0.40000000000000    0.50000000000000    0.00000000000000             2
    0.50000000000000   -0.40000000000000    0.00000000000000             2
    0.10000000000000    0.50000000000000    0.00000000000000             2
   -0.40000000000000   -0.10000000000000    0.00000000000000             2
   -0.30000000000000    0.10000000000001    0.00000000000000             2
   -0.10000000000000   -0.19999999999999    0.00000000000000             2
    0.20000000000000   -0.30000000000000    0.00000000000000             2
    0.30000000000000   -0.19999999999999    0.00000000000000             2
    0.10000000000000   -0.30000000000000    0.00000000000000             2
   -0.19999999999999   -0.10000000000000    0.00000000000000             2
   -0.10000000000000    0.10000000000001    0.00000000000000             2
   -0.10000000000000    0.00000000000001    0.00000000000000             2
    0.00000000000000   -0.10000000000000    0.00000000000000             2
    0.30000000000000    0.30000000000000    0.00000000000000             2
   -0.30000000000000   -0.40000000000000    0.00000000000000             2
    0.40000000000001    0.30000000000000    0.00000000000000             2
    0.50000000000000    0.30000000000000    0.00000000000000             2
   -0.30000000000000   -0.19999999999999    0.00000000000000             2
    0.20000000000000    0.50000000000000    0.00000000000000             2
    0.50000000000000   -0.20000000000000    0.00000000000000             2
    0.30000000000000    0.50000000000000    0.00000000000000             2
   -0.20000000000000   -0.30000000000000    0.00000000000000             2
   -0.30000000000000    0.30000000000001    0.00000000000000             2
   -0.30000000000000    0.00000000000001    0.00000000000000             2
   -0.00000000000001   -0.29999999999999    0.00000000000000             2
    0.50000000000000    0.50000000000000    0.00000000000000             1
    0.50000000000000    0.00000000000000    0.00000000000000             1
    0.00000000000000    0.50000000000000    0.00000000000000             1
