
     Program PWSCF v.6.6 starts on 10May2023 at 17:45:40 

     This program is part of the open-source Quantum ESPRESSO suite
     for quantum simulation of materials; please cite
         "P. Giannozzi et al., J. Phys.:Condens. Matter 21 395502 (2009);
         "P. Giannozzi et al., J. Phys.:Condens. Matter 29 465901 (2017);
          URL http://www.quantum-espresso.org", 
     in publications or presentations arising from this work. More details at
     http://www.quantum-espresso.org/quote

     Parallel version (MPI), running on     4 processors

     MPI processes distributed on     1 nodes
     R & G space division:  proc/nbgrp/npool/nimage =       4
     Fft bands division:     nmany     =       1
     Reading input from 05_nscf.in

     Current dimensions of program PWSCF are:
     Max number of different atomic species (ntypx) = 10
     Max number of k-points (npk) =  40000
     Max angular momentum in pseudopotentials (lmaxx) =  3

     Atomic positions and unit cell read from directory:
     ./wfc-out/si.save/
     Atomic positions from file used, from input discarded
 

     Subspace diagonalization in iterative solution of the eigenvalue problem:
     a serial algorithm will be used

     Message from routine setup:
     using ibrav=0 with symmetry is DISCOURAGED, use correct ibrav instead
 
     Parallelization info
     --------------------
     sticks:   dense  smooth     PW     G-vecs:    dense   smooth      PW
     Min         180      90     30                 3156     1118     234
     Max         181      91     31                 3157     1120     238
     Sum         721     361    121                12627     4477     941
 


     bravais-lattice index     =            0
     lattice parameter (alat)  =       7.2125  a.u.
     unit-cell volume          =     265.3020 (a.u.)^3
     number of atoms/cell      =            2
     number of atomic types    =            1
     number of electrons       =         8.00
     number of Kohn-Sham states=            4
     kinetic-energy cutoff     =      25.0000  Ry
     charge density cutoff     =     200.0000  Ry
     Exchange-correlation=  SLA  PW   PBE  PBE
                           (   1   4   3   4   0   0   0)

     celldm(1)=   7.212489  celldm(2)=   0.000000  celldm(3)=   0.000000
     celldm(4)=   0.000000  celldm(5)=   0.000000  celldm(6)=   0.000000

     crystal axes: (cart. coord. in units of alat)
               a(1) = (  -0.707107   0.000000   0.707107 )  
               a(2) = (   0.000000   0.707107   0.707107 )  
               a(3) = (  -0.707107   0.707107   0.000000 )  

     reciprocal axes: (cart. coord. in units 2 pi/alat)
               b(1) = ( -0.707107 -0.707107  0.707107 )  
               b(2) = (  0.707107  0.707107  0.707107 )  
               b(3) = ( -0.707107  0.707107 -0.707107 )  


     PseudoPot. # 1 for Si read from file:
     pseudo/Si.pbe-n-van.UPF
     MD5 check sum: 8a97496598b7338af554a5de8957bfee
     Pseudo is Ultrasoft + core correction, Zval =  4.0
     Generated by new atomic code, or converted to UPF format
     Using radial grid of  899 points,  6 beta functions with: 
                l(1) =   0
                l(2) =   0
                l(3) =   1
                l(4) =   1
                l(5) =   2
                l(6) =   2
     Q(r) pseudized with  8 coefficients,  rinner =    0.900   0.900   0.900
                                                       0.900   0.900

     atomic species   valence    mass     pseudopotential
        Si             4.00    28.00000     Si( 1.00)

     48 Sym. Ops., with inversion, found (24 have fractional translation)



   Cartesian axes

     site n.     atom                  positions (alat units)
         1           Si  tau(   1) = (   0.3535534   0.3535534   0.3535534  )
         2           Si  tau(   2) = (   0.0000000   0.0000000   0.0000000  )

     number of k points=    64
                       cart. coord. in units 2pi/alat
        k(    1) = (   0.0000000   0.0000000   0.0000000), wk =   0.0312500
        k(    2) = (  -0.1767767   0.1767767  -0.1767767), wk =   0.0312500
        k(    3) = (  -0.3535534   0.3535534  -0.3535534), wk =   0.0312500
        k(    4) = (  -0.5303301   0.5303301  -0.5303301), wk =   0.0312500
        k(    5) = (   0.1767767   0.1767767   0.1767767), wk =   0.0312500
        k(    6) = (   0.0000000   0.3535534   0.0000000), wk =   0.0312500
        k(    7) = (  -0.1767767   0.5303301  -0.1767767), wk =   0.0312500
        k(    8) = (  -0.3535534   0.7071068  -0.3535534), wk =   0.0312500
        k(    9) = (   0.3535534   0.3535534   0.3535534), wk =   0.0312500
        k(   10) = (   0.1767767   0.5303301   0.1767767), wk =   0.0312500
        k(   11) = (   0.0000000   0.7071068   0.0000000), wk =   0.0312500
        k(   12) = (  -0.1767767   0.8838835  -0.1767767), wk =   0.0312500
        k(   13) = (   0.5303301   0.5303301   0.5303301), wk =   0.0312500
        k(   14) = (   0.3535534   0.7071068   0.3535534), wk =   0.0312500
        k(   15) = (   0.1767767   0.8838835   0.1767767), wk =   0.0312500
        k(   16) = (   0.0000000   1.0606602   0.0000000), wk =   0.0312500
        k(   17) = (  -0.1767767  -0.1767767   0.1767767), wk =   0.0312500
        k(   18) = (  -0.3535534   0.0000000   0.0000000), wk =   0.0312500
        k(   19) = (  -0.5303301   0.1767767  -0.1767767), wk =   0.0312500
        k(   20) = (  -0.7071068   0.3535534  -0.3535534), wk =   0.0312500
        k(   21) = (   0.0000000   0.0000000   0.3535534), wk =   0.0312500
        k(   22) = (  -0.1767767   0.1767767   0.1767767), wk =   0.0312500
        k(   23) = (  -0.3535534   0.3535534   0.0000000), wk =   0.0312500
        k(   24) = (  -0.5303301   0.5303301  -0.1767767), wk =   0.0312500
        k(   25) = (   0.1767767   0.1767767   0.5303301), wk =   0.0312500
        k(   26) = (   0.0000000   0.3535534   0.3535534), wk =   0.0312500
        k(   27) = (  -0.1767767   0.5303301   0.1767767), wk =   0.0312500
        k(   28) = (  -0.3535534   0.7071068   0.0000000), wk =   0.0312500
        k(   29) = (   0.3535534   0.3535534   0.7071068), wk =   0.0312500
        k(   30) = (   0.1767767   0.5303301   0.5303301), wk =   0.0312500
        k(   31) = (  -0.0000000   0.7071068   0.3535534), wk =   0.0312500
        k(   32) = (  -0.1767767   0.8838835   0.1767767), wk =   0.0312500
        k(   33) = (  -0.3535534  -0.3535534   0.3535534), wk =   0.0312500
        k(   34) = (  -0.5303301  -0.1767767   0.1767767), wk =   0.0312500
        k(   35) = (  -0.7071068   0.0000000   0.0000000), wk =   0.0312500
        k(   36) = (  -0.8838835   0.1767767  -0.1767767), wk =   0.0312500
        k(   37) = (  -0.1767767  -0.1767767   0.5303301), wk =   0.0312500
        k(   38) = (  -0.3535534   0.0000000   0.3535534), wk =   0.0312500
        k(   39) = (  -0.5303301   0.1767767   0.1767767), wk =   0.0312500
        k(   40) = (  -0.7071068   0.3535534   0.0000000), wk =   0.0312500
        k(   41) = (   0.0000000   0.0000000   0.7071068), wk =   0.0312500
        k(   42) = (  -0.1767767   0.1767767   0.5303301), wk =   0.0312500
        k(   43) = (  -0.3535534   0.3535534   0.3535534), wk =   0.0312500
        k(   44) = (  -0.5303301   0.5303301   0.1767767), wk =   0.0312500
        k(   45) = (   0.1767767   0.1767767   0.8838835), wk =   0.0312500
        k(   46) = (  -0.0000000   0.3535534   0.7071068), wk =   0.0312500
        k(   47) = (  -0.1767767   0.5303301   0.5303301), wk =   0.0312500
        k(   48) = (  -0.3535534   0.7071068   0.3535534), wk =   0.0312500
        k(   49) = (  -0.5303301  -0.5303301   0.5303301), wk =   0.0312500
        k(   50) = (  -0.7071068  -0.3535534   0.3535534), wk =   0.0312500
        k(   51) = (  -0.8838835  -0.1767767   0.1767767), wk =   0.0312500
        k(   52) = (  -1.0606602   0.0000000   0.0000000), wk =   0.0312500
        k(   53) = (  -0.3535534  -0.3535534   0.7071068), wk =   0.0312500
        k(   54) = (  -0.5303301  -0.1767767   0.5303301), wk =   0.0312500
        k(   55) = (  -0.7071068   0.0000000   0.3535534), wk =   0.0312500
        k(   56) = (  -0.8838835   0.1767767   0.1767767), wk =   0.0312500
        k(   57) = (  -0.1767767  -0.1767767   0.8838835), wk =   0.0312500
        k(   58) = (  -0.3535534   0.0000000   0.7071068), wk =   0.0312500
        k(   59) = (  -0.5303301   0.1767767   0.5303301), wk =   0.0312500
        k(   60) = (  -0.7071068   0.3535534   0.3535534), wk =   0.0312500
        k(   61) = (   0.0000000   0.0000000   1.0606602), wk =   0.0312500
        k(   62) = (  -0.1767767   0.1767767   0.8838835), wk =   0.0312500
        k(   63) = (  -0.3535534   0.3535534   0.7071068), wk =   0.0312500
        k(   64) = (  -0.5303301   0.5303301   0.5303301), wk =   0.0312500

     Dense  grid:    12627 G-vectors     FFT dimensions: (  36,  36,  36)

     Smooth grid:     4477 G-vectors     FFT dimensions: (  24,  24,  24)

     Estimated max dynamical RAM per process >      11.47 MB

     Estimated total dynamical RAM >      45.87 MB

     The potential is recalculated from file :
     ./wfc-out/si.save/charge-density

     Starting wfcs are    8 randomized atomic wfcs

     Band Structure Calculation
     Davidson diagonalization with overlap

     ethr =  1.25E-12,  avg # of iterations = 28.8

     total cpu time spent up to now is        1.0 secs

     End of band structure calculation

          k = 0.0000 0.0000 0.0000 (   537 PWs)   bands (ev):

    -5.6989   6.3864   6.3864   6.3864

          k =-0.1768 0.1768-0.1768 (   564 PWs)   bands (ev):

    -4.8862   2.4263   5.6149   5.6149

          k =-0.3536 0.3536-0.3536 (   568 PWs)   bands (ev):

    -3.3216  -0.6675   5.1714   5.1714

          k =-0.5303 0.5303-0.5303 (   564 PWs)   bands (ev):

    -4.8862   2.4263   5.6149   5.6149

          k = 0.1768 0.1768 0.1768 (   564 PWs)   bands (ev):

    -4.8862   2.4263   5.6149   5.6149

          k = 0.0000 0.3536 0.0000 (   560 PWs)   bands (ev):

    -4.5999   2.8731   4.4628   4.4628

          k =-0.1768 0.5303-0.1768 (   558 PWs)   bands (ev):

    -2.9338  -0.0448   2.7942   4.1446

          k =-0.3536 0.7071-0.3536 (   554 PWs)   bands (ev):

    -3.6205   0.8736   2.5654   5.0380

          k = 0.3536 0.3536 0.3536 (   568 PWs)   bands (ev):

    -3.3216  -0.6675   5.1714   5.1714

          k = 0.1768 0.5303 0.1768 (   558 PWs)   bands (ev):

    -2.9338  -0.0448   2.7942   4.1446

          k = 0.0000 0.7071 0.0000 (   556 PWs)   bands (ev):

    -1.4885  -1.4885   3.4867   3.4867

          k =-0.1768 0.8839-0.1768 (   558 PWs)   bands (ev):

    -2.9338  -0.0448   2.7942   4.1446

          k = 0.5303 0.5303 0.5303 (   564 PWs)   bands (ev):

    -4.8862   2.4263   5.6149   5.6149

          k = 0.3536 0.7071 0.3536 (   554 PWs)   bands (ev):

    -3.6205   0.8736   2.5654   5.0380

          k = 0.1768 0.8839 0.1768 (   558 PWs)   bands (ev):

    -2.9338  -0.0448   2.7942   4.1446

          k = 0.0000 1.0607 0.0000 (   560 PWs)   bands (ev):

    -4.5999   2.8731   4.4628   4.4628

          k =-0.1768-0.1768 0.1768 (   564 PWs)   bands (ev):

    -4.8862   2.4263   5.6149   5.6149

          k =-0.3536 0.0000 0.0000 (   560 PWs)   bands (ev):

    -4.5999   2.8731   4.4628   4.4628

          k =-0.5303 0.1768-0.1768 (   558 PWs)   bands (ev):

    -2.9338  -0.0448   2.7942   4.1446

          k =-0.7071 0.3536-0.3536 (   554 PWs)   bands (ev):

    -3.6205   0.8736   2.5654   5.0380

          k = 0.0000 0.0000 0.3536 (   560 PWs)   bands (ev):

    -4.5999   2.8731   4.4628   4.4628

          k =-0.1768 0.1768 0.1768 (   564 PWs)   bands (ev):

    -4.8862   2.4263   5.6149   5.6149

          k =-0.3536 0.3536 0.0000 (   554 PWs)   bands (ev):

    -3.6205   0.8736   2.5654   5.0380

          k =-0.5303 0.5303-0.1768 (   558 PWs)   bands (ev):

    -2.9338  -0.0448   2.7942   4.1446

          k = 0.1768 0.1768 0.5303 (   558 PWs)   bands (ev):

    -2.9338  -0.0448   2.7942   4.1446

          k = 0.0000 0.3536 0.3536 (   554 PWs)   bands (ev):

    -3.6205   0.8736   2.5654   5.0380

          k =-0.1768 0.5303 0.1768 (   558 PWs)   bands (ev):

    -2.9338  -0.0448   2.7942   4.1446

          k =-0.3536 0.7071 0.0000 (   560 PWs)   bands (ev):

    -1.3164  -1.3164   2.4582   2.4582

          k = 0.3536 0.3536 0.7071 (   554 PWs)   bands (ev):

    -3.6205   0.8736   2.5654   5.0380

          k = 0.1768 0.5303 0.5303 (   558 PWs)   bands (ev):

    -2.9338  -0.0448   2.7942   4.1446

          k =-0.0000 0.7071 0.3536 (   560 PWs)   bands (ev):

    -1.3164  -1.3164   2.4582   2.4582

          k =-0.1768 0.8839 0.1768 (   558 PWs)   bands (ev):

    -2.9338  -0.0448   2.7942   4.1446

          k =-0.3536-0.3536 0.3536 (   568 PWs)   bands (ev):

    -3.3216  -0.6675   5.1714   5.1714

          k =-0.5303-0.1768 0.1768 (   558 PWs)   bands (ev):

    -2.9338  -0.0448   2.7942   4.1446

          k =-0.7071 0.0000 0.0000 (   556 PWs)   bands (ev):

    -1.4885  -1.4885   3.4867   3.4867

          k =-0.8839 0.1768-0.1768 (   558 PWs)   bands (ev):

    -2.9338  -0.0448   2.7942   4.1446

          k =-0.1768-0.1768 0.5303 (   558 PWs)   bands (ev):

    -2.9338  -0.0448   2.7942   4.1446

          k =-0.3536 0.0000 0.3536 (   554 PWs)   bands (ev):

    -3.6205   0.8736   2.5654   5.0380

          k =-0.5303 0.1768 0.1768 (   558 PWs)   bands (ev):

    -2.9338  -0.0448   2.7942   4.1446

          k =-0.7071 0.3536 0.0000 (   560 PWs)   bands (ev):

    -1.3164  -1.3164   2.4582   2.4582

          k = 0.0000 0.0000 0.7071 (   556 PWs)   bands (ev):

    -1.4885  -1.4885   3.4867   3.4867

          k =-0.1768 0.1768 0.5303 (   558 PWs)   bands (ev):

    -2.9338  -0.0448   2.7942   4.1446

          k =-0.3536 0.3536 0.3536 (   568 PWs)   bands (ev):

    -3.3216  -0.6675   5.1714   5.1714

          k =-0.5303 0.5303 0.1768 (   558 PWs)   bands (ev):

    -2.9338  -0.0448   2.7942   4.1446

          k = 0.1768 0.1768 0.8839 (   558 PWs)   bands (ev):

    -2.9338  -0.0448   2.7942   4.1446

          k =-0.0000 0.3536 0.7071 (   560 PWs)   bands (ev):

    -1.3164  -1.3164   2.4582   2.4582

          k =-0.1768 0.5303 0.5303 (   558 PWs)   bands (ev):

    -2.9338  -0.0448   2.7942   4.1446

          k =-0.3536 0.7071 0.3536 (   554 PWs)   bands (ev):

    -3.6205   0.8736   2.5654   5.0380

          k =-0.5303-0.5303 0.5303 (   564 PWs)   bands (ev):

    -4.8862   2.4263   5.6149   5.6149

          k =-0.7071-0.3536 0.3536 (   554 PWs)   bands (ev):

    -3.6205   0.8736   2.5654   5.0380

          k =-0.8839-0.1768 0.1768 (   558 PWs)   bands (ev):

    -2.9338  -0.0448   2.7942   4.1446

          k =-1.0607 0.0000 0.0000 (   560 PWs)   bands (ev):

    -4.5999   2.8731   4.4628   4.4628

          k =-0.3536-0.3536 0.7071 (   554 PWs)   bands (ev):

    -3.6205   0.8736   2.5654   5.0380

          k =-0.5303-0.1768 0.5303 (   558 PWs)   bands (ev):

    -2.9338  -0.0448   2.7942   4.1446

          k =-0.7071 0.0000 0.3536 (   560 PWs)   bands (ev):

    -1.3164  -1.3164   2.4582   2.4582

          k =-0.8839 0.1768 0.1768 (   558 PWs)   bands (ev):

    -2.9338  -0.0448   2.7942   4.1446

          k =-0.1768-0.1768 0.8839 (   558 PWs)   bands (ev):

    -2.9338  -0.0448   2.7942   4.1446

          k =-0.3536 0.0000 0.7071 (   560 PWs)   bands (ev):

    -1.3164  -1.3164   2.4582   2.4582

          k =-0.5303 0.1768 0.5303 (   558 PWs)   bands (ev):

    -2.9338  -0.0448   2.7942   4.1446

          k =-0.7071 0.3536 0.3536 (   554 PWs)   bands (ev):

    -3.6205   0.8736   2.5654   5.0380

          k = 0.0000 0.0000 1.0607 (   560 PWs)   bands (ev):

    -4.5999   2.8731   4.4628   4.4628

          k =-0.1768 0.1768 0.8839 (   558 PWs)   bands (ev):

    -2.9338  -0.0448   2.7942   4.1446

          k =-0.3536 0.3536 0.7071 (   554 PWs)   bands (ev):

    -3.6205   0.8736   2.5654   5.0380

          k =-0.5303 0.5303 0.5303 (   564 PWs)   bands (ev):

    -4.8862   2.4263   5.6149   5.6149

     highest occupied level (ev):     6.3864

     Writing output data file ./wfc-out/si.save/
 
     init_run     :      0.05s CPU      0.06s WALL (       1 calls)
     electrons    :      0.62s CPU      0.75s WALL (       1 calls)

     Called by init_run:
     wfcinit      :      0.00s CPU      0.00s WALL (       1 calls)
     potinit      :      0.01s CPU      0.01s WALL (       1 calls)
     hinit0       :      0.03s CPU      0.03s WALL (       1 calls)

     Called by electrons:
     c_bands      :      0.62s CPU      0.75s WALL (       1 calls)
     v_of_rho     :      0.00s CPU      0.01s WALL (       1 calls)
     newd         :      0.01s CPU      0.01s WALL (       1 calls)

     Called by c_bands:
     init_us_2    :      0.00s CPU      0.00s WALL (      64 calls)
     cegterg      :      0.56s CPU      0.66s WALL (     128 calls)

     Called by *egterg:
     cdiaghg      :      0.05s CPU      0.06s WALL (    1905 calls)
     h_psi        :      0.44s CPU      0.52s WALL (    2033 calls)
     s_psi        :      0.01s CPU      0.02s WALL (    2033 calls)
     g_psi        :      0.00s CPU      0.01s WALL (    1841 calls)

     Called by h_psi:
     h_psi:calbec :      0.03s CPU      0.03s WALL (    2033 calls)
     vloc_psi     :      0.38s CPU      0.45s WALL (    2033 calls)
     add_vuspsi   :      0.02s CPU      0.02s WALL (    2033 calls)

     General routines
     calbec       :      0.02s CPU      0.02s WALL (    2033 calls)
     fft          :      0.00s CPU      0.00s WALL (      13 calls)
     ffts         :      0.00s CPU      0.00s WALL (       1 calls)
     fftw         :      0.33s CPU      0.39s WALL (   15656 calls)
     interpolate  :      0.00s CPU      0.00s WALL (       1 calls)
     davcio       :      0.00s CPU      0.02s WALL (     128 calls)
 
     Parallel routines
     fft_scatt_xy :      0.06s CPU      0.08s WALL (   15670 calls)
     fft_scatt_yz :      0.12s CPU      0.14s WALL (   15670 calls)
 
     PWSCF        :      0.90s CPU      3.90s WALL

 
   This run was terminated on:  17:45:44  10May2023            

=------------------------------------------------------------------------------=
   JOB DONE.
=------------------------------------------------------------------------------=
