 vasp.5.4.4.18Apr17-6-g9f103f2a35 (build Sep 16 2021 13:51:27) complex          
  
 executed on             LinuxIFC date 2023.02.26  09:57:17
 running on   24 total cores
 distrk:  each k-point on   24 cores,    1 groups
 distr:  one band on NCORES_PER_BAND=  24 cores,    1 groups


--------------------------------------------------------------------------------------------------------


 INCAR:
 POTCAR:    PAW_PBE Sn 08Apr2002                  
 POTCAR:    PAW_PBE Se 06Sep2000                  

 ----------------------------------------------------------------------------- 
|                                                                             |
|           W    W    AA    RRRRR   N    N  II  N    N   GGGG   !!!           |
|           W    W   A  A   R    R  NN   N  II  NN   N  G    G  !!!           |
|           W    W  A    A  R    R  N N  N  II  N N  N  G       !!!           |
|           W WW W  AAAAAA  RRRRR   N  N N  II  N  N N  G  GGG   !            |
|           WW  WW  A    A  R   R   N   NN  II  N   NN  G    G                |
|           W    W  A    A  R    R  N    N  II  N    N   GGGG   !!!           |
|                                                                             |
|      For optimal performance we recommend to set                            |
|        NCORE= 4 - approx SQRT( number of cores)                             |
|      NCORE specifies how many cores store one orbital (NPAR=cpu/NCORE).     |
|      This setting can  greatly improve the performance of VASP for DFT.     |
|      The default,   NCORE=1            might be grossly inefficient         |
|      on modern multi-core architectures or massively parallel machines.     |
|      Do your own testing !!!!                                               |
|      Unfortunately you need to use the default for GW and RPA calculations. |
|      (for HF NCORE is supported but not extensively tested yet)             |
|                                                                             |
 ----------------------------------------------------------------------------- 

 POTCAR:    PAW_PBE Sn 08Apr2002                  
   VRHFIN =Sn: s2p2                                                             
   LEXCH  = PE                                                                  
   EATOM  =    94.0860 eV,    6.9151 Ry                                         
                                                                                
   TITEL  = PAW_PBE Sn 08Apr2002                                                
   LULTRA =        F    use ultrasoft PP ?                                      
   IUNSCR =        1    unscreen: 0-lin 1-nonlin 2-no                           
   RPACOR =    2.000    partial core radius                                     
   POMASS =  118.710; ZVAL   =    4.000    mass and valenz                      
   RCORE  =    3.000    outmost cutoff radius                                   
   RWIGS  =    2.960; RWIGS  =    1.566    wigner-seitz radius (au A)           
   ENMAX  =  103.236; ENMIN  =   77.427 eV                                      
   ICORE  =        3    local potential                                         
   LCOR   =        T    correct aug charges                                     
   LPAW   =        T    paw PP                                                  
   EAUG   =  263.585                                                            
   DEXC   =    0.000                                                            
   RMAX   =    3.078    core radius for proj-oper                               
   RAUG   =    1.300    factor for augmentation sphere                          
   RDEP   =    3.022    radius for radial grids                                 
   RDEPT  =    2.655    core radius for aug-charge                              
                                                                                
   Atomic configuration                                                         
   13 entries                                                                   
     n  l   j            E        occ.                                          
     1  0  0.50    -29007.2859   2.0000                                         
     2  0  0.50     -4378.8056   2.0000                                         
     2  1  1.50     -3930.4293   6.0000                                         
     3  0  0.50      -845.0264   2.0000                                         
     3  1  1.50      -698.5725   6.0000                                         
     3  2  2.50      -473.2839  10.0000                                         
     4  0  0.50      -133.9036   2.0000                                         
     4  1  1.50       -89.6752   6.0000                                         
     4  2  2.50       -25.8375  10.0000                                         
     5  0  0.50       -10.5484   2.0000                                         
     5  1  0.50        -3.6940   2.0000                                         
     5  2  1.50        -1.3606   0.0000                                         
     4  3  2.50        -4.0817   0.0000                                         
   Description                                                                  
     l       E           TYP  RCUT    TYP  RCUT                                 
     0    -10.5483727     23  3.000                                             
     0     27.2116520     23  3.000                                             
     1     -3.6939829     23  3.000                                             
     1      1.9821976     23  3.000                                             
     2     -1.3605826     23  3.000                                             
     3     -2.7211652     23  3.000                                             
  local pseudopotential read in
  partial core-charges read in
  partial kinetic energy density read in
  atomic valenz-charges read in
  non local Contribution for L=           0  read in
    real space projection operators read in
  non local Contribution for L=           0  read in
    real space projection operators read in
  non local Contribution for L=           1  read in
    real space projection operators read in
  non local Contribution for L=           1  read in
    real space projection operators read in
  non local Contribution for L=           2  read in
    real space projection operators read in
    PAW grid and wavefunctions read in
 
   number of l-projection  operators is LMAX  =           5
   number of lm-projection operators is LMMAX =          13
 
 POTCAR:    PAW_PBE Se 06Sep2000                  
   VRHFIN =Se: s2p4                                                             
   LEXCH  = PE                                                                  
   EATOM  =   257.1286 eV,   18.8984 Ry                                         
                                                                                
   TITEL  = PAW_PBE Se 06Sep2000                                                
   LULTRA =        F    use ultrasoft PP ?                                      
   IUNSCR =        1    unscreen: 0-lin 1-nonlin 2-no                           
   RPACOR =    1.900    partial core radius                                     
   POMASS =   78.960; ZVAL   =    6.000    mass and valenz                      
   RCORE  =    2.100    outmost cutoff radius                                   
   RWIGS  =    2.200; RWIGS  =    1.164    wigner-seitz radius (au A)           
   ENMAX  =  211.555; ENMIN  =  158.666 eV                                      
   ICORE  =        3    local potential                                         
   LCOR   =        T    correct aug charges                                     
   LPAW   =        T    paw PP                                                  
   EAUG   =  446.842                                                            
   DEXC   =    0.000                                                            
   RMAX   =    2.147    core radius for proj-oper                               
   RAUG   =    1.300    factor for augmentation sphere                          
   RDEP   =    2.177    radius for radial grids                                 
   RDEPT  =    1.928    core radius for aug-charge                              
                                                                                
   Atomic configuration                                                         
   10 entries                                                                   
     n  l   j            E        occ.                                          
     1  0  0.50    -12503.4787   2.0000                                         
     2  0  0.50     -1606.9547   2.0000                                         
     2  1  1.50     -1413.3140   6.0000                                         
     3  0  0.50      -213.4885   2.0000                                         
     3  1  1.50      -152.9538   6.0000                                         
     3  2  2.50       -53.1221  10.0000                                         
     4  0  0.50       -17.2865   2.0000                                         
     4  1  0.50        -6.5110   4.0000                                         
     4  2  2.50        -6.8029   0.0000                                         
     4  3  2.50        -6.8029   0.0000                                         
   Description                                                                  
     l       E           TYP  RCUT    TYP  RCUT                                 
     0    -17.2865377     23  2.100                                             
     0    -15.3094411     23  2.100                                             
     1     -6.5110275     23  2.100                                             
     1     -0.0695192     23  2.100                                             
     2     -6.8029130     23  2.100                                             
     3     -1.3605826      7  2.100                                             
  local pseudopotential read in
  partial core-charges read in
  partial kinetic energy density read in
  atomic valenz-charges read in
  non local Contribution for L=           0  read in
    real space projection operators read in
  non local Contribution for L=           0  read in
    real space projection operators read in
  non local Contribution for L=           1  read in
    real space projection operators read in
  non local Contribution for L=           1  read in
    real space projection operators read in
  non local Contribution for L=           2  read in
    real space projection operators read in
    PAW grid and wavefunctions read in
 
   number of l-projection  operators is LMAX  =           5
   number of lm-projection operators is LMMAX =          13
 
 WARNING: PSMAXN for non-local potential too small
          PSMAXN should be >   12.5490833729506       NTYP=           1
  PAW_PBE Sn 08Apr2002                  :
 energy of atom  1       EATOM=  -94.0860
 kinetic energy error for atom=    0.0000 (will be added to EATOM!!)
  PAW_PBE Se 06Sep2000                  :
 energy of atom  2       EATOM= -257.1286
 kinetic energy error for atom=    0.0006 (will be added to EATOM!!)
 
 
 POSCAR:  SnSe-Monolayer                         
  positions in direct lattice
  velocities in cartesian coordinates
 exchange correlation table for  LEXCH =        8
   RHO(1)=    0.500       N(1)  =     2000
   RHO(2)=  100.500       N(2)  =     4000
 


--------------------------------------------------------------------------------------------------------


 ion  position               nearest neighbor table
   1  0.582  0.750  0.569-   4 2.72   3 2.92   3 2.92   3 3.23   3 3.23
   2  0.082  0.250  0.431-   3 2.72   4 2.92   4 2.92   4 3.23   4 3.23
   3  0.032  0.250  0.567-   2 2.72   1 2.92   1 2.92   1 3.23   1 3.23
   4  0.532  0.750  0.433-   1 2.72   2 2.92   2 2.92   2 3.23   2 3.23
 
  LATTYP: Found a simple orthorhombic cell.
 ALAT       =     4.2924778572
 B/A-ratio  =     1.0230828758
 C/A-ratio  =     4.6593134934
  
  Lattice vectors:
  
 A1 = (   0.0000000000,  -4.2924778572,   0.0000000000)
 A2 = (  -4.3915605906,   0.0000000000,   0.0000000000)
 A3 = (   0.0000000000,   0.0000000000, -20.0000000000)


Analysis of symmetry for initial positions (statically):
=====================================================================
 Subroutine PRICEL returns:
 Original cell was already a primitive cell.
 

 Routine SETGRP: Setting up the symmetry group for a 
 simple orthorhombic supercell.


 Subroutine GETGRP returns: Found  4 space group operations
 (whereof  1 operations were pure point group operations)
 out of a pool of  8 trial point group operations.


The static configuration has the point symmetry C_1 .
 The point group associated with its full space group is C_2v.


Analysis of symmetry for dynamics (positions and initial velocities):
=====================================================================
 Subroutine PRICEL returns:
 Original cell was already a primitive cell.
 

 Routine SETGRP: Setting up the symmetry group for a 
 simple orthorhombic supercell.


 Subroutine GETGRP returns: Found  4 space group operations
 (whereof  1 operations were pure point group operations)
 out of a pool of  8 trial point group operations.


The dynamic configuration has the point symmetry C_1 .
 The point group associated with its full space group is C_2v.


 Subroutine INISYM returns: Found  4 space group operations
 (whereof  1 operations are pure point group operations),
 and found     1 'primitive' translations

 
 
 KPOINTS: Automatic                               

Automatic generation of k-mesh.
Space group operators:
 irot       det(A)        alpha          n_x          n_y          n_z        tau_x        tau_y        tau_z
    1     1.000000     0.000000     1.000000     0.000000     0.000000     0.000000     0.000000     0.000000
    2    -1.000000   180.000000     0.000000     0.000000     1.000000    -0.500000    -0.500000     0.000000
    3     1.000000   180.000000     1.000000     0.000000     0.000000    -0.500000     0.000000     0.000000
    4    -1.000000   180.000000     0.000000     1.000000     0.000000     0.000000    -0.500000     0.000000
 
 Subroutine IBZKPT returns following result:
 ===========================================
 
 Found      8 irreducible k-points:
 
 Following reciprocal coordinates:
            Coordinates               Weight
  0.000000  0.000000  0.000000      1.000000
  0.000000  0.066667  0.000000      2.000000
  0.000000  0.133333  0.000000      2.000000
  0.000000  0.200000  0.000000      2.000000
  0.000000  0.266667  0.000000      2.000000
  0.000000  0.333333  0.000000      2.000000
  0.000000  0.400000  0.000000      2.000000
  0.000000  0.466667  0.000000      2.000000
 
 Following cartesian coordinates:
            Coordinates               Weight
  0.000000  0.000000  0.000000      1.000000
  0.000000  0.015531  0.000000      2.000000
  0.000000  0.031062  0.000000      2.000000
  0.000000  0.046593  0.000000      2.000000
  0.000000  0.062124  0.000000      2.000000
  0.000000  0.077655  0.000000      2.000000
  0.000000  0.093186  0.000000      2.000000
  0.000000  0.108717  0.000000      2.000000
 


--------------------------------------------------------------------------------------------------------




 Dimension of arrays:
   k-points           NKPTS =    120   k-points in BZ     NKDIM =    120   number of bands    NBANDS=     14
   number of dos      NEDOS =    301   number of ions     NIONS =      4
   non local maximal  LDIM  =      5   non local SUM 2l+1 LMDIM =     13
   total plane-waves  NPLWV = 207360
   max r-space proj   IRMAX =      1   max aug-charges    IRDMAX=  53141
   dimension x,y,z NGX =    36 NGY =   36 NGZ =  160
   dimension x,y,z NGXF=    72 NGYF=   72 NGZF=  320
   support grid    NGXF=    72 NGYF=   72 NGZF=  320
   ions per type =               2   2
   NGX,Y,Z   is equivalent  to a cutoff of  13.63, 13.94, 13.30 a.u.
   NGXF,Y,Z  is equivalent  to a cutoff of  27.26, 27.89, 26.60 a.u.

 SYSTEM =  SnSe                                    
 POSCAR =   SnSe-Monolayer                         

 Startparameter for this run:
   NWRITE =      2    write-flag & timer
   PREC   = accura    normal or accurate (medium, high low for compatibility)
   ISTART =      1    job   : 0-new  1-cont  2-samecut
   ICHARG =     11    charge: 1-file 2-atom 10-const
   ISPIN  =      1    spin polarized calculation?
   LNONCOLLINEAR =      F non collinear calculations
   LSORBIT =      F    spin-orbit coupling
   INIWAV =      1    electr: 0-lowe 1-rand  2-diag
   LASPH  =      F    aspherical Exc in radial PAW
   METAGGA=      F    non-selfconsistent MetaGGA calc.

 Electronic Relaxation 1
   ENCUT  =  600.0 eV  44.10 Ry    6.64 a.u.   8.77  8.57 39.94*2*pi/ulx,y,z
   ENINI  =  600.0     initial cutoff
   ENAUG  =  446.8 eV  augmentation charge cutoff
   NELM   =     60;   NELMIN=  2; NELMDL=  0     # of ELM steps 
   EDIFF  = 0.1E-05   stopping-criterion for ELM
   LREAL  =      F    real-space projection
   NLSPLINE    = F    spline interpolate recip. space projectors
   LCOMPAT=      F    compatible to vasp.4.4
   GGA_COMPAT  = T    GGA compatible to vasp.4.4-vasp.4.6
   LMAXPAW     = -100 max onsite density
   LMAXMIX     =    2 max onsite mixed and CHGCAR
   VOSKOWN=      0    Vosko Wilk Nusair interpolation
   ROPT   =    0.00000   0.00000
 Ionic relaxation
   EDIFFG = -.1E-02   stopping-criterion for IOM
   NSW    =      0    number of steps for IOM
   NBLOCK =      1;   KBLOCK =      1    inner block; outer block 
   IBRION =     -1    ionic relax: 0-MD 1-quasi-New 2-CG
   NFREE  =      0    steps in history (QN), initial steepest desc. (CG)
   ISIF   =      2    stress and relaxation
   IWAVPR =     10    prediction:  0-non 1-charg 2-wave 3-comb
   ISYM   =      2    0-nonsym 1-usesym 2-fastsym
   LCORR  =      T    Harris-Foulkes like correction to forces

   POTIM  = 0.5000    time-step for ionic-motion
   TEIN   =    0.0    initial temperature
   TEBEG  =    0.0;   TEEND  =   0.0 temperature during run
   SMASS  =  -3.00    Nose mass-parameter (am)
   estimated Nose-frequenzy (Omega)   =  0.10E-29 period in steps =****** mass=  -0.441E-27a.u.
   SCALEE = 1.0000    scale energy and forces
   NPACO  =    256;   APACO  = 16.0  distance and # of slots for P.C.
   PSTRESS=    0.0 pullay stress

  Mass of Ions in am
   POMASS = 118.71 78.96
  Ionic Valenz
   ZVAL   =   4.00  6.00
  Atomic Wigner-Seitz radii
   RWIGS  =  -1.00 -1.00
  virtual crystal weights 
   VCA    =   1.00  1.00
   NELECT =      20.0000    total number of electrons
   NUPDOWN=      -1.0000    fix difference up-down

 DOS related values:
   EMIN   =  10.00;   EMAX   =-10.00  energy-range for DOS
   EFERMI =   0.00
   ISMEAR =     0;   SIGMA  =   0.00  broadening in eV -4-tet -1-fermi 0-gaus

 Electronic relaxation 2 (details)
   IALGO  =     38    algorithm
   LDIAG  =      T    sub-space diagonalisation (order eigenvalues)
   LSUBROT=      F    optimize rotation matrix (better conditioning)
   TURBO    =      0    0=normal 1=particle mesh
   IRESTART =      0    0=no restart 2=restart with 2 vectors
   NREBOOT  =      0    no. of reboots
   NMIN     =      0    reboot dimension
   EREF     =   0.00    reference energy to select bands
   IMIX   =      4    mixing-type and parameters
     AMIX     =   0.40;   BMIX     =  1.00
     AMIX_MAG =   1.60;   BMIX_MAG =  1.00
     AMIN     =   0.10
     WC   =   100.;   INIMIX=   1;  MIXPRE=   1;  MAXMIX= -45

 Intra band minimization:
   WEIMIN = 0.0000     energy-eigenvalue tresh-hold
   EBREAK =  0.18E-07  absolut break condition
   DEPER  =   0.30     relativ break condition  

   TIME   =   0.40     timestep for ELM

  volume/ion in A,a.u.               =      94.24       635.99
  Fermi-wavevector in a.u.,A,eV,Ry     =   0.615149  1.162463  5.148557  0.378408
  Thomas-Fermi vector in A             =   1.672415
 
 Write flags
   LWAVE        =      T    write WAVECAR
   LDOWNSAMPLE  =      F    k-point downsampling of WAVECAR
   LCHARG       =      T    write CHGCAR
   LVTOT        =      F    write LOCPOT, total local potential
   LVHAR        =      F    write LOCPOT, Hartree potential only
   LELF         =      F    write electronic localiz. function (ELF)
   LORBIT       =      0    0 simple, 1 ext, 2 COOP (PROOUT), +10 PAW based schemes


 Dipole corrections
   LMONO  =      F    monopole corrections only (constant potential shift)
   LDIPOL =      F    correct potential (dipole corrections)
   IDIPOL =      0    1-x, 2-y, 3-z, 4-all directions 
   EPSILON=  1.0000000 bulk dielectric constant

 Exchange correlation treatment:
   GGA     =    PE    GGA type
   LEXCH   =     8    internal setting for exchange type
   VOSKOWN=      0    Vosko Wilk Nusair interpolation
   LHFCALC =     F    Hartree Fock is set to
   LHFONE  =     F    Hartree Fock one center treatment
   AEXX    =    0.0000 exact exchange contribution

 Parameters for Berry phase evaluation:
   LBERRY =      T    evaluation of Berry phase?
   IGPAR  =      1    parallel direction
   NPPSTR =     15    k-mesh size in direction IGPAR
 Linear response parameters
   LEPSILON=     F    determine dielectric tensor
   LRPA    =     F    only Hartree local field effects (RPA)
   LNABLA  =     F    use nabla operator in PAW spheres
   LVEL    =     F    velocity operator in full k-point grid
   LINTERFAST=   F  fast interpolation
   KINTER  =     0    interpolate to denser k-point grid
   CSHIFT  =0.1000    complex shift for real part using Kramers Kronig
   OMEGAMAX=  -1.0    maximum frequency
   DEG_THRESHOLD= 0.2000000E-02 threshold for treating states as degnerate
   RTIME   =   -0.100 relaxation time in fs
  (WPLASMAI=    0.000 imaginary part of plasma frequency in eV, 0.658/RTIME)
   DFIELD  = 0.0000000 0.0000000 0.0000000 field for delta impulse in time
 
 Orbital magnetization related:
   ORBITALMAG=     F  switch on orbital magnetization
   LCHIMAG   =     F  perturbation theory with respect to B field
   DQ        =  0.001000  dq finite difference perturbation B field
   LLRAUG    =     F  two centre corrections for induced B field



--------------------------------------------------------------------------------------------------------


 Static calculation
 charge density and potential remain constant during run
 non-spin polarized calculation
 Variant of blocked Davidson
 Davidson routine will perform the subspace rotation
 perform sub-space diagonalisation
    after iterative eigenvector-optimisation
 no mixing
 using additional bands            4
 reciprocal scheme for non local part
 use partial core corrections
 calculate Harris-corrections to forces 
   (improved forces if not selfconsistent)
 use gradient corrections 
 WARNING: stress and forces are not correct
  (second derivative of E(xc) not defined)
 use of overlap-Matrix (Vanderbilt PP)
 Gauss-broadening in eV      SIGMA  =   0.00


--------------------------------------------------------------------------------------------------------


  energy-cutoff  :      600.00
  volume of cell :      376.98
      direct lattice vectors                 reciprocal lattice vectors
     4.391121478  0.000000000  0.000000000     0.227732256  0.000000000  0.000000000
     0.000000000  4.292477857  0.000000000     0.000000000  0.232965675  0.000000000
     0.000000000  0.000000000 20.000000000     0.000000000  0.000000000  0.050000000

  length of vectors
     4.391121478  4.292477857 20.000000000     0.227732256  0.232965675  0.050000000


 
 old parameters found on file WAVECAR:
  energy-cutoff  :      600.00
  volume of cell :      376.98
      direct lattice vectors                 reciprocal lattice vectors
     4.391121478  0.000000000  0.000000000     0.227732256  0.000000000  0.000000000
     0.000000000  4.292477857  0.000000000     0.000000000  0.232965675  0.000000000
     0.000000000  0.000000000 20.000000000     0.000000000  0.000000000  0.050000000

  length of vectors

 
 k-points in units of 2pi/SCALE and weight: Automatic                               
   0.00000000  0.00000000  0.00000000       0.004
   0.01518215  0.00000000  0.00000000       0.004
   0.03036430  0.00000000  0.00000000       0.004
   0.04554645  0.00000000  0.00000000       0.004
   0.06072860  0.00000000  0.00000000       0.004
   0.07591075  0.00000000  0.00000000       0.004
   0.09109290  0.00000000  0.00000000       0.004
   0.10627505  0.00000000  0.00000000       0.004
   0.12145720  0.00000000  0.00000000       0.004
   0.13663935  0.00000000  0.00000000       0.004
   0.15182150  0.00000000  0.00000000       0.004
   0.16700365  0.00000000  0.00000000       0.004
   0.18218580  0.00000000  0.00000000       0.004
   0.19736796  0.00000000  0.00000000       0.004
   0.21255011  0.00000000  0.00000000       0.004
   0.00000000  0.01553104  0.00000000       0.009
   0.01518215  0.01553104  0.00000000       0.009
   0.03036430  0.01553104  0.00000000       0.009
   0.04554645  0.01553104  0.00000000       0.009
   0.06072860  0.01553104  0.00000000       0.009
   0.07591075  0.01553104  0.00000000       0.009
   0.09109290  0.01553104  0.00000000       0.009
   0.10627505  0.01553104  0.00000000       0.009
   0.12145720  0.01553104  0.00000000       0.009
   0.13663935  0.01553104  0.00000000       0.009
   0.15182150  0.01553104  0.00000000       0.009
   0.16700365  0.01553104  0.00000000       0.009
   0.18218580  0.01553104  0.00000000       0.009
   0.19736796  0.01553104  0.00000000       0.009
   0.21255011  0.01553104  0.00000000       0.009
   0.00000000  0.03106209  0.00000000       0.009
   0.01518215  0.03106209  0.00000000       0.009
   0.03036430  0.03106209  0.00000000       0.009
   0.04554645  0.03106209  0.00000000       0.009
   0.06072860  0.03106209  0.00000000       0.009
   0.07591075  0.03106209  0.00000000       0.009
   0.09109290  0.03106209  0.00000000       0.009
   0.10627505  0.03106209  0.00000000       0.009
   0.12145720  0.03106209  0.00000000       0.009
   0.13663935  0.03106209  0.00000000       0.009
   0.15182150  0.03106209  0.00000000       0.009
   0.16700365  0.03106209  0.00000000       0.009
   0.18218580  0.03106209  0.00000000       0.009
   0.19736796  0.03106209  0.00000000       0.009
   0.21255011  0.03106209  0.00000000       0.009
   0.00000000  0.04659313  0.00000000       0.009
   0.01518215  0.04659313  0.00000000       0.009
   0.03036430  0.04659313  0.00000000       0.009
   0.04554645  0.04659313  0.00000000       0.009
   0.06072860  0.04659313  0.00000000       0.009
   0.07591075  0.04659313  0.00000000       0.009
   0.09109290  0.04659313  0.00000000       0.009
   0.10627505  0.04659313  0.00000000       0.009
   0.12145720  0.04659313  0.00000000       0.009
   0.13663935  0.04659313  0.00000000       0.009
   0.15182150  0.04659313  0.00000000       0.009
   0.16700365  0.04659313  0.00000000       0.009
   0.18218580  0.04659313  0.00000000       0.009
   0.19736796  0.04659313  0.00000000       0.009
   0.21255011  0.04659313  0.00000000       0.009
   0.00000000  0.06212418  0.00000000       0.009
   0.01518215  0.06212418  0.00000000       0.009
   0.03036430  0.06212418  0.00000000       0.009
   0.04554645  0.06212418  0.00000000       0.009
   0.06072860  0.06212418  0.00000000       0.009
   0.07591075  0.06212418  0.00000000       0.009
   0.09109290  0.06212418  0.00000000       0.009
   0.10627505  0.06212418  0.00000000       0.009
   0.12145720  0.06212418  0.00000000       0.009
   0.13663935  0.06212418  0.00000000       0.009
   0.15182150  0.06212418  0.00000000       0.009
   0.16700365  0.06212418  0.00000000       0.009
   0.18218580  0.06212418  0.00000000       0.009
   0.19736796  0.06212418  0.00000000       0.009
   0.21255011  0.06212418  0.00000000       0.009
   0.00000000  0.07765522  0.00000000       0.009
   0.01518215  0.07765522  0.00000000       0.009
   0.03036430  0.07765522  0.00000000       0.009
   0.04554645  0.07765522  0.00000000       0.009
   0.06072860  0.07765522  0.00000000       0.009
   0.07591075  0.07765522  0.00000000       0.009
   0.09109290  0.07765522  0.00000000       0.009
   0.10627505  0.07765522  0.00000000       0.009
   0.12145720  0.07765522  0.00000000       0.009
   0.13663935  0.07765522  0.00000000       0.009
   0.15182150  0.07765522  0.00000000       0.009
   0.16700365  0.07765522  0.00000000       0.009
   0.18218580  0.07765522  0.00000000       0.009
   0.19736796  0.07765522  0.00000000       0.009
   0.21255011  0.07765522  0.00000000       0.009
   0.00000000  0.09318627  0.00000000       0.009
   0.01518215  0.09318627  0.00000000       0.009
   0.03036430  0.09318627  0.00000000       0.009
   0.04554645  0.09318627  0.00000000       0.009
   0.06072860  0.09318627  0.00000000       0.009
   0.07591075  0.09318627  0.00000000       0.009
   0.09109290  0.09318627  0.00000000       0.009
   0.10627505  0.09318627  0.00000000       0.009
   0.12145720  0.09318627  0.00000000       0.009
   0.13663935  0.09318627  0.00000000       0.009
   0.15182150  0.09318627  0.00000000       0.009
   0.16700365  0.09318627  0.00000000       0.009
   0.18218580  0.09318627  0.00000000       0.009
   0.19736796  0.09318627  0.00000000       0.009
   0.21255011  0.09318627  0.00000000       0.009
   0.00000000  0.10871731  0.00000000       0.009
   0.01518215  0.10871731  0.00000000       0.009
   0.03036430  0.10871731  0.00000000       0.009
   0.04554645  0.10871731  0.00000000       0.009
   0.06072860  0.10871731  0.00000000       0.009
   0.07591075  0.10871731  0.00000000       0.009
   0.09109290  0.10871731  0.00000000       0.009
   0.10627505  0.10871731  0.00000000       0.009
   0.12145720  0.10871731  0.00000000       0.009
   0.13663935  0.10871731  0.00000000       0.009
   0.15182150  0.10871731  0.00000000       0.009
   0.16700365  0.10871731  0.00000000       0.009
   0.18218580  0.10871731  0.00000000       0.009
   0.19736796  0.10871731  0.00000000       0.009
   0.21255011  0.10871731  0.00000000       0.009
 
 k-points in reciprocal lattice and weights: Automatic                               
   0.00000000  0.00000000  0.00000000       0.004
   0.06666667  0.00000000  0.00000000       0.004
   0.13333333  0.00000000  0.00000000       0.004
   0.20000000  0.00000000  0.00000000       0.004
   0.26666667  0.00000000  0.00000000       0.004
   0.33333333  0.00000000  0.00000000       0.004
   0.40000000  0.00000000  0.00000000       0.004
   0.46666667  0.00000000  0.00000000       0.004
   0.53333333  0.00000000  0.00000000       0.004
   0.60000000  0.00000000  0.00000000       0.004
   0.66666667  0.00000000  0.00000000       0.004
   0.73333333  0.00000000  0.00000000       0.004
   0.80000000  0.00000000  0.00000000       0.004
   0.86666667  0.00000000  0.00000000       0.004
   0.93333333  0.00000000  0.00000000       0.004
   0.00000000  0.06666667  0.00000000       0.009
   0.06666667  0.06666667  0.00000000       0.009
   0.13333333  0.06666667  0.00000000       0.009
   0.20000000  0.06666667  0.00000000       0.009
   0.26666667  0.06666667  0.00000000       0.009
   0.33333333  0.06666667  0.00000000       0.009
   0.40000000  0.06666667  0.00000000       0.009
   0.46666667  0.06666667  0.00000000       0.009
   0.53333333  0.06666667  0.00000000       0.009
   0.60000000  0.06666667  0.00000000       0.009
   0.66666667  0.06666667  0.00000000       0.009
   0.73333333  0.06666667  0.00000000       0.009
   0.80000000  0.06666667  0.00000000       0.009
   0.86666667  0.06666667  0.00000000       0.009
   0.93333333  0.06666667  0.00000000       0.009
   0.00000000  0.13333333  0.00000000       0.009
   0.06666667  0.13333333  0.00000000       0.009
   0.13333333  0.13333333  0.00000000       0.009
   0.20000000  0.13333333  0.00000000       0.009
   0.26666667  0.13333333  0.00000000       0.009
   0.33333333  0.13333333  0.00000000       0.009
   0.40000000  0.13333333  0.00000000       0.009
   0.46666667  0.13333333  0.00000000       0.009
   0.53333333  0.13333333  0.00000000       0.009
   0.60000000  0.13333333  0.00000000       0.009
   0.66666667  0.13333333  0.00000000       0.009
   0.73333333  0.13333333  0.00000000       0.009
   0.80000000  0.13333333  0.00000000       0.009
   0.86666667  0.13333333  0.00000000       0.009
   0.93333333  0.13333333  0.00000000       0.009
   0.00000000  0.20000000  0.00000000       0.009
   0.06666667  0.20000000  0.00000000       0.009
   0.13333333  0.20000000  0.00000000       0.009
   0.20000000  0.20000000  0.00000000       0.009
   0.26666667  0.20000000  0.00000000       0.009
   0.33333333  0.20000000  0.00000000       0.009
   0.40000000  0.20000000  0.00000000       0.009
   0.46666667  0.20000000  0.00000000       0.009
   0.53333333  0.20000000  0.00000000       0.009
   0.60000000  0.20000000  0.00000000       0.009
   0.66666667  0.20000000  0.00000000       0.009
   0.73333333  0.20000000  0.00000000       0.009
   0.80000000  0.20000000  0.00000000       0.009
   0.86666667  0.20000000  0.00000000       0.009
   0.93333333  0.20000000  0.00000000       0.009
   0.00000000  0.26666667  0.00000000       0.009
   0.06666667  0.26666667  0.00000000       0.009
   0.13333333  0.26666667  0.00000000       0.009
   0.20000000  0.26666667  0.00000000       0.009
   0.26666667  0.26666667  0.00000000       0.009
   0.33333333  0.26666667  0.00000000       0.009
   0.40000000  0.26666667  0.00000000       0.009
   0.46666667  0.26666667  0.00000000       0.009
   0.53333333  0.26666667  0.00000000       0.009
   0.60000000  0.26666667  0.00000000       0.009
   0.66666667  0.26666667  0.00000000       0.009
   0.73333333  0.26666667  0.00000000       0.009
   0.80000000  0.26666667  0.00000000       0.009
   0.86666667  0.26666667  0.00000000       0.009
   0.93333333  0.26666667  0.00000000       0.009
   0.00000000  0.33333333  0.00000000       0.009
   0.06666667  0.33333333  0.00000000       0.009
   0.13333333  0.33333333  0.00000000       0.009
   0.20000000  0.33333333  0.00000000       0.009
   0.26666667  0.33333333  0.00000000       0.009
   0.33333333  0.33333333  0.00000000       0.009
   0.40000000  0.33333333  0.00000000       0.009
   0.46666667  0.33333333  0.00000000       0.009
   0.53333333  0.33333333  0.00000000       0.009
   0.60000000  0.33333333  0.00000000       0.009
   0.66666667  0.33333333  0.00000000       0.009
   0.73333333  0.33333333  0.00000000       0.009
   0.80000000  0.33333333  0.00000000       0.009
   0.86666667  0.33333333  0.00000000       0.009
   0.93333333  0.33333333  0.00000000       0.009
   0.00000000  0.40000000  0.00000000       0.009
   0.06666667  0.40000000  0.00000000       0.009
   0.13333333  0.40000000  0.00000000       0.009
   0.20000000  0.40000000  0.00000000       0.009
   0.26666667  0.40000000  0.00000000       0.009
   0.33333333  0.40000000  0.00000000       0.009
   0.40000000  0.40000000  0.00000000       0.009
   0.46666667  0.40000000  0.00000000       0.009
   0.53333333  0.40000000  0.00000000       0.009
   0.60000000  0.40000000  0.00000000       0.009
   0.66666667  0.40000000  0.00000000       0.009
   0.73333333  0.40000000  0.00000000       0.009
   0.80000000  0.40000000  0.00000000       0.009
   0.86666667  0.40000000  0.00000000       0.009
   0.93333333  0.40000000  0.00000000       0.009
   0.00000000  0.46666667  0.00000000       0.009
   0.06666667  0.46666667  0.00000000       0.009
   0.13333333  0.46666667  0.00000000       0.009
   0.20000000  0.46666667  0.00000000       0.009
   0.26666667  0.46666667  0.00000000       0.009
   0.33333333  0.46666667  0.00000000       0.009
   0.40000000  0.46666667  0.00000000       0.009
   0.46666667  0.46666667  0.00000000       0.009
   0.53333333  0.46666667  0.00000000       0.009
   0.60000000  0.46666667  0.00000000       0.009
   0.66666667  0.46666667  0.00000000       0.009
   0.73333333  0.46666667  0.00000000       0.009
   0.80000000  0.46666667  0.00000000       0.009
   0.86666667  0.46666667  0.00000000       0.009
   0.93333333  0.46666667  0.00000000       0.009
 
 position of ions in fractional coordinates (direct lattice) 
   0.58204215  0.75000000  0.56871971
   0.08204215  0.25000000  0.43128029
   0.03206185  0.25000000  0.56706039
   0.53206183  0.75000000  0.43293961
 
 position of ions in cartesian coordinates  (Angst):
   2.55581778  3.21935839 11.37439413
   0.36025704  1.07311946  8.62560587
   0.14078749  1.07311946 11.34120789
   2.33634811  3.21935839  8.65879211
 


--------------------------------------------------------------------------------------------------------


 k-point  1 :   0.0000 0.0000 0.0000  plane waves:   12671
 k-point  2 :   0.0667 0.0000 0.0000  plane waves:   12639
 k-point  3 :   0.1333 0.0000 0.0000  plane waves:   12601
 k-point  4 :   0.2000 0.0000 0.0000  plane waves:   12567
 k-point  5 :   0.2667 0.0000 0.0000  plane waves:   12538
 k-point  6 :   0.3333 0.0000 0.0000  plane waves:   12600
 k-point  7 :   0.4000 0.0000 0.0000  plane waves:   12624
 k-point  8 :   0.4667 0.0000 0.0000  plane waves:   12600
 k-point  9 :   0.5333 0.0000 0.0000  plane waves:   12600
 k-point 10 :   0.6000 0.0000 0.0000  plane waves:   12624
 k-point 11 :   0.6667 0.0000 0.0000  plane waves:   12600
 k-point 12 :   0.7333 0.0000 0.0000  plane waves:   12538
 k-point 13 :   0.8000 0.0000 0.0000  plane waves:   12567
 k-point 14 :   0.8667 0.0000 0.0000  plane waves:   12601
 k-point 15 :   0.9333 0.0000 0.0000  plane waves:   12639
 k-point 16 :   0.0000 0.0667 0.0000  plane waves:   12609
 k-point 17 :   0.0667 0.0667 0.0000  plane waves:   12619
 k-point 18 :   0.1333 0.0667 0.0000  plane waves:   12608
 k-point 19 :   0.2000 0.0667 0.0000  plane waves:   12570
 k-point 20 :   0.2667 0.0667 0.0000  plane waves:   12573
 k-point 21 :   0.3333 0.0667 0.0000  plane waves:   12604
 k-point 22 :   0.4000 0.0667 0.0000  plane waves:   12608
 k-point 23 :   0.4667 0.0667 0.0000  plane waves:   12613
 k-point 24 :   0.5333 0.0667 0.0000  plane waves:   12613
 k-point 25 :   0.6000 0.0667 0.0000  plane waves:   12608
 k-point 26 :   0.6667 0.0667 0.0000  plane waves:   12604
 k-point 27 :   0.7333 0.0667 0.0000  plane waves:   12573
 k-point 28 :   0.8000 0.0667 0.0000  plane waves:   12570
 k-point 29 :   0.8667 0.0667 0.0000  plane waves:   12608
 k-point 30 :   0.9333 0.0667 0.0000  plane waves:   12619
 k-point 31 :   0.0000 0.1333 0.0000  plane waves:   12599
 k-point 32 :   0.0667 0.1333 0.0000  plane waves:   12600
 k-point 33 :   0.1333 0.1333 0.0000  plane waves:   12575
 k-point 34 :   0.2000 0.1333 0.0000  plane waves:   12566
 k-point 35 :   0.2667 0.1333 0.0000  plane waves:   12573
 k-point 36 :   0.3333 0.1333 0.0000  plane waves:   12602
 k-point 37 :   0.4000 0.1333 0.0000  plane waves:   12599
 k-point 38 :   0.4667 0.1333 0.0000  plane waves:   12606
 k-point 39 :   0.5333 0.1333 0.0000  plane waves:   12606
 k-point 40 :   0.6000 0.1333 0.0000  plane waves:   12599
 k-point 41 :   0.6667 0.1333 0.0000  plane waves:   12602
 k-point 42 :   0.7333 0.1333 0.0000  plane waves:   12573
 k-point 43 :   0.8000 0.1333 0.0000  plane waves:   12566
 k-point 44 :   0.8667 0.1333 0.0000  plane waves:   12575
 k-point 45 :   0.9333 0.1333 0.0000  plane waves:   12600
 k-point 46 :   0.0000 0.2000 0.0000  plane waves:   12601
 k-point 47 :   0.0667 0.2000 0.0000  plane waves:   12579
 k-point 48 :   0.1333 0.2000 0.0000  plane waves:   12579
 k-point 49 :   0.2000 0.2000 0.0000  plane waves:   12589
 k-point 50 :   0.2667 0.2000 0.0000  plane waves:   12577
 k-point 51 :   0.3333 0.2000 0.0000  plane waves:   12581
 k-point 52 :   0.4000 0.2000 0.0000  plane waves:   12594
 k-point 53 :   0.4667 0.2000 0.0000  plane waves:   12605
 k-point 54 :   0.5333 0.2000 0.0000  plane waves:   12605
 k-point 55 :   0.6000 0.2000 0.0000  plane waves:   12594
 k-point 56 :   0.6667 0.2000 0.0000  plane waves:   12581
 k-point 57 :   0.7333 0.2000 0.0000  plane waves:   12577
 k-point 58 :   0.8000 0.2000 0.0000  plane waves:   12589
 k-point 59 :   0.8667 0.2000 0.0000  plane waves:   12579
 k-point 60 :   0.9333 0.2000 0.0000  plane waves:   12579
 k-point 61 :   0.0000 0.2667 0.0000  plane waves:   12585
 k-point 62 :   0.0667 0.2667 0.0000  plane waves:   12574
 k-point 63 :   0.1333 0.2667 0.0000  plane waves:   12577
 k-point 64 :   0.2000 0.2667 0.0000  plane waves:   12583
 k-point 65 :   0.2667 0.2667 0.0000  plane waves:   12578
 k-point 66 :   0.3333 0.2667 0.0000  plane waves:   12584
 k-point 67 :   0.4000 0.2667 0.0000  plane waves:   12588
 k-point 68 :   0.4667 0.2667 0.0000  plane waves:   12589
 k-point 69 :   0.5333 0.2667 0.0000  plane waves:   12589
 k-point 70 :   0.6000 0.2667 0.0000  plane waves:   12588
 k-point 71 :   0.6667 0.2667 0.0000  plane waves:   12584
 k-point 72 :   0.7333 0.2667 0.0000  plane waves:   12578
 k-point 73 :   0.8000 0.2667 0.0000  plane waves:   12583
 k-point 74 :   0.8667 0.2667 0.0000  plane waves:   12577
 k-point 75 :   0.9333 0.2667 0.0000  plane waves:   12574
 k-point 76 :   0.0000 0.3333 0.0000  plane waves:   12571
 k-point 77 :   0.0667 0.3333 0.0000  plane waves:   12552
 k-point 78 :   0.1333 0.3333 0.0000  plane waves:   12564
 k-point 79 :   0.2000 0.3333 0.0000  plane waves:   12581
 k-point 80 :   0.2667 0.3333 0.0000  plane waves:   12569
 k-point 81 :   0.3333 0.3333 0.0000  plane waves:   12575
 k-point 82 :   0.4000 0.3333 0.0000  plane waves:   12575
 k-point 83 :   0.4667 0.3333 0.0000  plane waves:   12585
 k-point 84 :   0.5333 0.3333 0.0000  plane waves:   12585
 k-point 85 :   0.6000 0.3333 0.0000  plane waves:   12575
 k-point 86 :   0.6667 0.3333 0.0000  plane waves:   12575
 k-point 87 :   0.7333 0.3333 0.0000  plane waves:   12569
 k-point 88 :   0.8000 0.3333 0.0000  plane waves:   12581
 k-point 89 :   0.8667 0.3333 0.0000  plane waves:   12564
 k-point 90 :   0.9333 0.3333 0.0000  plane waves:   12552
 k-point 91 :   0.0000 0.4000 0.0000  plane waves:   12529
 k-point 92 :   0.0667 0.4000 0.0000  plane waves:   12542
 k-point 93 :   0.1333 0.4000 0.0000  plane waves:   12560
 k-point 94 :   0.2000 0.4000 0.0000  plane waves:   12564
 k-point 95 :   0.2667 0.4000 0.0000  plane waves:   12585
 k-point 96 :   0.3333 0.4000 0.0000  plane waves:   12561
 k-point 97 :   0.4000 0.4000 0.0000  plane waves:   12567
 k-point 98 :   0.4667 0.4000 0.0000  plane waves:   12567
 k-point 99 :   0.5333 0.4000 0.0000  plane waves:   12567
 k-point ** :   0.6000 0.4000 0.0000  plane waves:   12567
 k-point ** :   0.6667 0.4000 0.0000  plane waves:   12561
 k-point ** :   0.7333 0.4000 0.0000  plane waves:   12585
 k-point ** :   0.8000 0.4000 0.0000  plane waves:   12564
 k-point ** :   0.8667 0.4000 0.0000  plane waves:   12560
 k-point ** :   0.9333 0.4000 0.0000  plane waves:   12542
 k-point ** :   0.0000 0.4667 0.0000  plane waves:   12560
 k-point ** :   0.0667 0.4667 0.0000  plane waves:   12552
 k-point ** :   0.1333 0.4667 0.0000  plane waves:   12566
 k-point ** :   0.2000 0.4667 0.0000  plane waves:   12562
 k-point ** :   0.2667 0.4667 0.0000  plane waves:   12548
 k-point ** :   0.3333 0.4667 0.0000  plane waves:   12547
 k-point ** :   0.4000 0.4667 0.0000  plane waves:   12562
 k-point ** :   0.4667 0.4667 0.0000  plane waves:   12555
 k-point ** :   0.5333 0.4667 0.0000  plane waves:   12555
 k-point ** :   0.6000 0.4667 0.0000  plane waves:   12562
 k-point ** :   0.6667 0.4667 0.0000  plane waves:   12547
 k-point ** :   0.7333 0.4667 0.0000  plane waves:   12548
 k-point ** :   0.8000 0.4667 0.0000  plane waves:   12562
 k-point ** :   0.8667 0.4667 0.0000  plane waves:   12566
 k-point ** :   0.9333 0.4667 0.0000  plane waves:   12552

 maximum and minimum number of plane-waves per node :       551      499

 maximum number of plane-waves:     12671
 maximum index in each direction: 
   IXMAX=    8   IYMAX=    8   IZMAX=   39
   IXMIN=   -9   IYMIN=   -9   IZMIN=  -39


 parallel 3D FFT for wavefunctions:
    minimum data exchange during FFTs selected (reduces bandwidth)
 parallel 3D FFT for charge:
    minimum data exchange during FFTs selected (reduces bandwidth)


 total amount of memory used by VASP MPI-rank0    65152. kBytes
=======================================================================

   base      :      30000. kBytes
   nonl-proj :      13387. kBytes
   fftplans  :       2678. kBytes
   grid      :       4349. kBytes
   one-center:          8. kBytes
   wavefun   :      14730. kBytes
 
     INWAV:  cpu time    1.6754: real time    1.8794
 initial charge density was supplied:
 number of electron      20.0000000 magnetization 
 keeping initial charge density in first step


--------------------------------------------------------------------------------------------------------


 Maximum index for augmentation-charges         2210 (set IRDMAX)


--------------------------------------------------------------------------------------------------------


 First call to EWALD:  gamma=   0.245
 Maximum number of real-space cells 4x 4x 1
 Maximum number of reciprocal cells 2x 2x 7

    FEWALD:  cpu time    0.0014: real time    0.0028


--------------------------------------- Iteration      1(   1)  ---------------------------------------


    POTLOK:  cpu time    0.1133: real time    0.3055
    SETDIJ:  cpu time    0.0040: real time    0.0040
     EDDAV:  cpu time    3.1593: real time    3.1636
       DOS:  cpu time    0.0007: real time    0.0007
    --------------------------------------------
      LOOP:  cpu time    3.2772: real time    3.4737

 eigenvalue-minimisations  :  4672
 total energy-change (2. order) :-0.1481970E+02  (-0.1507068E+02)
 number of electron      20.0000000 magnetization 
 augmentation part       20.0000000 magnetization 

 Free energy of the ion-electron system (eV)
  ---------------------------------------------------
  alpha Z        PSCENC =         9.48524705
  Ewald energy   TEWEN  =      1149.84556626
  -Hartree energ DENC   =     -1772.43902965
  -exchange      EXHF   =         0.00000000
  -V(xc)+E(xc)   XCENC  =      -237.58449560
  PAW double counting   =      1140.46793906     -865.57258135
  entropy T*S    EENTRO =         0.00000000
  eigenvalues    EBANDS =      -141.45024189
  atomic energy  EATOM  =       702.42789710
  Solvation  Ediel_sol  =         0.00000000
  ---------------------------------------------------
  free energy    TOTEN  =       -14.81969902 eV

  energy without entropy =      -14.81969902  energy(sigma->0) =      -14.81969902


--------------------------------------------------------------------------------------------------------




--------------------------------------- Iteration      1(   2)  ---------------------------------------


     EDDAV:  cpu time    2.9776: real time    2.9811
       DOS:  cpu time    0.0006: real time    0.0006
    --------------------------------------------
      LOOP:  cpu time    2.9782: real time    2.9817

 eigenvalue-minimisations  :  4398
 total energy-change (2. order) :-0.1427677E+01  (-0.1420777E+01)
 number of electron      20.0000000 magnetization 
 augmentation part       20.0000000 magnetization 

 Free energy of the ion-electron system (eV)
  ---------------------------------------------------
  alpha Z        PSCENC =         9.48524705
  Ewald energy   TEWEN  =      1149.84556626
  -Hartree energ DENC   =     -1772.43902965
  -exchange      EXHF   =         0.00000000
  -V(xc)+E(xc)   XCENC  =      -237.58449560
  PAW double counting   =      1140.46793906     -865.57258135
  entropy T*S    EENTRO =         0.00000000
  eigenvalues    EBANDS =      -142.87791861
  atomic energy  EATOM  =       702.42789710
  Solvation  Ediel_sol  =         0.00000000
  ---------------------------------------------------
  free energy    TOTEN  =       -16.24737574 eV

  energy without entropy =      -16.24737574  energy(sigma->0) =      -16.24737574


--------------------------------------------------------------------------------------------------------




--------------------------------------- Iteration      1(   3)  ---------------------------------------


     EDDAV:  cpu time    2.9365: real time    2.9404
       DOS:  cpu time    0.0007: real time    0.0006
    --------------------------------------------
      LOOP:  cpu time    2.9371: real time    2.9411

 eigenvalue-minimisations  :  4410
 total energy-change (2. order) :-0.1727060E-01  (-0.1722973E-01)
 number of electron      20.0000000 magnetization 
 augmentation part       20.0000000 magnetization 

 Free energy of the ion-electron system (eV)
  ---------------------------------------------------
  alpha Z        PSCENC =         9.48524705
  Ewald energy   TEWEN  =      1149.84556626
  -Hartree energ DENC   =     -1772.43902965
  -exchange      EXHF   =         0.00000000
  -V(xc)+E(xc)   XCENC  =      -237.58449560
  PAW double counting   =      1140.46793906     -865.57258135
  entropy T*S    EENTRO =         0.00000000
  eigenvalues    EBANDS =      -142.89518921
  atomic energy  EATOM  =       702.42789710
  Solvation  Ediel_sol  =         0.00000000
  ---------------------------------------------------
  free energy    TOTEN  =       -16.26464634 eV

  energy without entropy =      -16.26464634  energy(sigma->0) =      -16.26464634


--------------------------------------------------------------------------------------------------------




--------------------------------------- Iteration      1(   4)  ---------------------------------------


     EDDAV:  cpu time    3.0885: real time    3.0922
       DOS:  cpu time    0.0006: real time    0.0006
    --------------------------------------------
      LOOP:  cpu time    3.0891: real time    3.0928

 eigenvalue-minimisations  :  4602
 total energy-change (2. order) :-0.3496665E-03  (-0.3495029E-03)
 number of electron      20.0000000 magnetization 
 augmentation part       20.0000000 magnetization 

 Free energy of the ion-electron system (eV)
  ---------------------------------------------------
  alpha Z        PSCENC =         9.48524705
  Ewald energy   TEWEN  =      1149.84556626
  -Hartree energ DENC   =     -1772.43902965
  -exchange      EXHF   =         0.00000000
  -V(xc)+E(xc)   XCENC  =      -237.58449560
  PAW double counting   =      1140.46793906     -865.57258135
  entropy T*S    EENTRO =         0.00000000
  eigenvalues    EBANDS =      -142.89553888
  atomic energy  EATOM  =       702.42789710
  Solvation  Ediel_sol  =         0.00000000
  ---------------------------------------------------
  free energy    TOTEN  =       -16.26499600 eV

  energy without entropy =      -16.26499600  energy(sigma->0) =      -16.26499600


--------------------------------------------------------------------------------------------------------




--------------------------------------- Iteration      1(   5)  ---------------------------------------


     EDDAV:  cpu time    2.9680: real time    2.9720
       DOS:  cpu time    0.0006: real time    0.0006
    --------------------------------------------
      LOOP:  cpu time    2.9686: real time    2.9726

 eigenvalue-minimisations  :  4392
 total energy-change (2. order) :-0.9357825E-05  (-0.9357423E-05)
 number of electron      20.0000000 magnetization 
 augmentation part       20.0000000 magnetization 

 Free energy of the ion-electron system (eV)
  ---------------------------------------------------
  alpha Z        PSCENC =         9.48524705
  Ewald energy   TEWEN  =      1149.84556626
  -Hartree energ DENC   =     -1772.43902965
  -exchange      EXHF   =         0.00000000
  -V(xc)+E(xc)   XCENC  =      -237.58449560
  PAW double counting   =      1140.46793906     -865.57258135
  entropy T*S    EENTRO =         0.00000000
  eigenvalues    EBANDS =      -142.89554824
  atomic energy  EATOM  =       702.42789710
  Solvation  Ediel_sol  =         0.00000000
  ---------------------------------------------------
  free energy    TOTEN  =       -16.26500536 eV

  energy without entropy =      -16.26500536  energy(sigma->0) =      -16.26500536


--------------------------------------------------------------------------------------------------------




--------------------------------------- Iteration      1(   6)  ---------------------------------------


     EDDAV:  cpu time    2.6848: real time    2.6883
       DOS:  cpu time    0.0007: real time    0.0006
    --------------------------------------------
      LOOP:  cpu time    2.6855: real time    2.6889

 eigenvalue-minimisations  :  3872
 total energy-change (2. order) :-0.2099978E-06  (-0.2100322E-06)
 number of electron      20.0000000 magnetization 
 augmentation part       20.0000000 magnetization 

 Free energy of the ion-electron system (eV)
  ---------------------------------------------------
  alpha Z        PSCENC =         9.48524705
  Ewald energy   TEWEN  =      1149.84556626
  -Hartree energ DENC   =     -1772.43902965
  -exchange      EXHF   =         0.00000000
  -V(xc)+E(xc)   XCENC  =      -237.58449560
  PAW double counting   =      1140.46793906     -865.57258135
  entropy T*S    EENTRO =         0.00000000
  eigenvalues    EBANDS =      -142.89554845
  atomic energy  EATOM  =       702.42789710
  Solvation  Ediel_sol  =         0.00000000
  ---------------------------------------------------
  free energy    TOTEN  =       -16.26500557 eV

  energy without entropy =      -16.26500557  energy(sigma->0) =      -16.26500557


--------------------------------------------------------------------------------------------------------




 average (electrostatic) potential at core
  the test charge radii are     1.4072  1.0808
  (the norm of the test charge is              1.0000)
       1 -51.2652       2 -51.2652       3 -59.9514       4 -59.9514
 
 
 
 E-fermi :  -1.9261     XC(G=0):  -3.3337     alpha+bet : -2.6692


 k-point     1 :       0.0000    0.0000    0.0000
  band No.  band energies     occupation 
      1     -15.3177      2.00000
      2     -14.3277      2.00000
      3      -8.2693      2.00000
      4      -7.2908      2.00000
      5      -5.4235      2.00000
      6      -5.0783      2.00000
      7      -5.0294      2.00000
      8      -3.8452      2.00000
      9      -3.8418      2.00000
     10      -2.6212      2.00000
     11      -0.4721      0.00000
     12       1.3229      0.00000
     13       1.7921      0.00000
     14       1.9536      0.00000

 k-point     2 :       0.0667    0.0000    0.0000
  band No.  band energies     occupation 
      1     -15.2997      2.00000
      2     -14.3256      2.00000
      3      -8.3380      2.00000
      4      -7.3716      2.00000
      5      -5.4253      2.00000
      6      -5.0080      2.00000
      7      -4.9991      2.00000
      8      -3.8247      2.00000
      9      -3.7320      2.00000
     10      -2.6392      2.00000
     11      -0.4605      0.00000
     12       1.3724      0.00000
     13       1.6530      0.00000
     14       1.9051      0.00000

 k-point     3 :       0.1333    0.0000    0.0000
  band No.  band energies     occupation 
      1     -15.2465      2.00000
      2     -14.3213      2.00000
      3      -8.5164      2.00000
      4      -7.5929      2.00000
      5      -5.4040      2.00000
      6      -4.9092      2.00000
      7      -4.8206      2.00000
      8      -3.7665      2.00000
      9      -3.4484      2.00000
     10      -2.6961      2.00000
     11      -0.4195      0.00000
     12       1.1689      0.00000
     13       1.4639      0.00000
     14       1.6319      0.00000

 k-point     4 :       0.2000    0.0000    0.0000
  band No.  band energies     occupation 
      1     -15.1613      2.00000
      2     -14.3206      2.00000
      3      -8.7446      2.00000
      4      -7.9034      2.00000
      5      -5.3270      2.00000
      6      -4.7634      2.00000
      7      -4.5663      2.00000
      8      -3.6816      2.00000
      9      -3.0692      2.00000
     10      -2.7919      2.00000
     11      -0.3339      0.00000
     12       0.5625      0.00000
     13       1.1203      0.00000
     14       1.4173      0.00000

 k-point     5 :       0.2667    0.0000    0.0000
  band No.  band energies     occupation 
      1     -15.0493      2.00000
      2     -14.3322      2.00000
      3      -8.9634      2.00000
      4      -8.2465      2.00000
      5      -5.1894      2.00000
      6      -4.5680      2.00000
      7      -4.3032      2.00000
      8      -3.5913      2.00000
      9      -2.9031      2.00000
     10      -2.6501      2.00000
     11      -0.1892      0.00000
     12      -0.0591      0.00000
     13       0.6332      0.00000
     14       1.1074      0.00000

 k-point     6 :       0.3333    0.0000    0.0000
  band No.  band energies     occupation 
      1     -14.9183      2.00000
      2     -14.3655      2.00000
      3      -9.1281      2.00000
      4      -8.5765      2.00000
      5      -5.0004      2.00000
      6      -4.3345      2.00000
      7      -4.1181      2.00000
      8      -3.5295      2.00000
      9      -2.9497      2.00000
     10      -2.2376      2.00000
     11      -0.6286      0.00000
     12       0.0198      0.00000
     13       0.2506      0.00000
     14       0.6340      0.00000

 k-point     7 :       0.4000    0.0000    0.0000
  band No.  band energies     occupation 
      1     -14.7785      2.00000
      2     -14.4281      2.00000
      3      -9.2085      2.00000
      4      -8.8595      2.00000
      5      -4.7731      2.00000
      6      -4.1194      2.00000
      7      -4.0814      2.00000
      8      -3.5379      2.00000
      9      -2.8117      2.00000
     10      -1.9635      2.00000
     11      -0.9987      0.00000
     12       0.0366      0.00000
     13       0.0944      0.00000
     14       0.3069      0.00000

 k-point     8 :       0.4667    0.0000    0.0000
  band No.  band energies     occupation 
      1     -14.6421      2.00000
      2     -14.5219      2.00000
      3      -9.1896      2.00000
      4      -9.0699      2.00000
      5      -4.5258      2.00000
      6      -4.2881      2.00000
      7      -3.8378      2.00000
      8      -3.6439      2.00000
      9      -2.4968      2.00000
     10      -2.1263      2.00000
     11      -0.8570      0.00000
     12      -0.4146      0.00000
     13       0.0293      0.00000
     14       0.2229      0.00000

 k-point     9 :       0.5333    0.0000    0.0000
  band No.  band energies     occupation 
      1     -14.6421      2.00000
      2     -14.5219      2.00000
      3      -9.1896      2.00000
      4      -9.0699      2.00000
      5      -4.5258      2.00000
      6      -4.2881      2.00000
      7      -3.8378      2.00000
      8      -3.6439      2.00000
      9      -2.4968      2.00000
     10      -2.1263      2.00000
     11      -0.8570      0.00000
     12      -0.4146      0.00000
     13       0.0293      0.00000
     14       0.2230      0.00000

 k-point    10 :       0.6000    0.0000    0.0000
  band No.  band energies     occupation 
      1     -14.7785      2.00000
      2     -14.4281      2.00000
      3      -9.2085      2.00000
      4      -8.8595      2.00000
      5      -4.7731      2.00000
      6      -4.1194      2.00000
      7      -4.0814      2.00000
      8      -3.5379      2.00000
      9      -2.8117      2.00000
     10      -1.9635      2.00000
     11      -0.9987      0.00000
     12       0.0366      0.00000
     13       0.0944      0.00000
     14       0.3069      0.00000

 k-point    11 :       0.6667    0.0000    0.0000
  band No.  band energies     occupation 
      1     -14.9183      2.00000
      2     -14.3655      2.00000
      3      -9.1281      2.00000
      4      -8.5765      2.00000
      5      -5.0004      2.00000
      6      -4.3345      2.00000
      7      -4.1181      2.00000
      8      -3.5295      2.00000
      9      -2.9497      2.00000
     10      -2.2376      2.00000
     11      -0.6286      0.00000
     12       0.0198      0.00000
     13       0.2506      0.00000
     14       0.6341      0.00000

 k-point    12 :       0.7333    0.0000    0.0000
  band No.  band energies     occupation 
      1     -15.0493      2.00000
      2     -14.3322      2.00000
      3      -8.9634      2.00000
      4      -8.2465      2.00000
      5      -5.1894      2.00000
      6      -4.5680      2.00000
      7      -4.3032      2.00000
      8      -3.5913      2.00000
      9      -2.9031      2.00000
     10      -2.6501      2.00000
     11      -0.1892      0.00000
     12      -0.0591      0.00000
     13       0.6332      0.00000
     14       1.1074      0.00000

 k-point    13 :       0.8000    0.0000    0.0000
  band No.  band energies     occupation 
      1     -15.1613      2.00000
      2     -14.3206      2.00000
      3      -8.7446      2.00000
      4      -7.9034      2.00000
      5      -5.3270      2.00000
      6      -4.7634      2.00000
      7      -4.5663      2.00000
      8      -3.6816      2.00000
      9      -3.0692      2.00000
     10      -2.7919      2.00000
     11      -0.3339      0.00000
     12       0.5625      0.00000
     13       1.1203      0.00000
     14       1.4173      0.00000

 k-point    14 :       0.8667    0.0000    0.0000
  band No.  band energies     occupation 
      1     -15.2465      2.00000
      2     -14.3213      2.00000
      3      -8.5164      2.00000
      4      -7.5929      2.00000
      5      -5.4040      2.00000
      6      -4.9092      2.00000
      7      -4.8206      2.00000
      8      -3.7665      2.00000
      9      -3.4484      2.00000
     10      -2.6961      2.00000
     11      -0.4195      0.00000
     12       1.1689      0.00000
     13       1.4639      0.00000
     14       1.6421      0.00000

 k-point    15 :       0.9333    0.0000    0.0000
  band No.  band energies     occupation 
      1     -15.2997      2.00000
      2     -14.3256      2.00000
      3      -8.3380      2.00000
      4      -7.3716      2.00000
      5      -5.4253      2.00000
      6      -5.0080      2.00000
      7      -4.9991      2.00000
      8      -3.8247      2.00000
      9      -3.7320      2.00000
     10      -2.6392      2.00000
     11      -0.4605      0.00000
     12       1.3724      0.00000
     13       1.6535      0.00000
     14       1.9068      0.00000

 k-point    16 :       0.0000    0.0667    0.0000
  band No.  band energies     occupation 
      1     -15.2982      2.00000
      2     -14.3233      2.00000
      3      -8.3354      2.00000
      4      -7.3674      2.00000
      5      -5.4282      2.00000
      6      -5.0661      2.00000
      7      -4.9589      2.00000
      8      -3.8608      2.00000
      9      -3.7082      2.00000
     10      -2.6342      2.00000
     11      -0.4608      0.00000
     12       1.3995      0.00000
     13       1.7577      0.00000
     14       1.8203      0.00000

 k-point    17 :       0.0667    0.0667    0.0000
  band No.  band energies     occupation 
      1     -15.2803      2.00000
      2     -14.3212      2.00000
      3      -8.3933      2.00000
      4      -7.4393      2.00000
      5      -5.4222      2.00000
      6      -5.1610      2.00000
      7      -4.7748      2.00000
      8      -3.9340      2.00000
      9      -3.5246      2.00000
     10      -2.6493      2.00000
     11      -0.4475      0.00000
     12       1.3753      0.00000
     13       1.4394      0.00000
     14       1.8928      0.00000

 k-point    18 :       0.1333    0.0667    0.0000
  band No.  band energies     occupation 
      1     -15.2276      2.00000
      2     -14.3168      2.00000
      3      -8.5476      2.00000
      4      -7.6394      2.00000
      5      -5.3892      2.00000
      6      -5.1939      2.00000
      7      -4.4930      2.00000
      8      -3.9553      2.00000
      9      -3.2069      2.00000
     10      -2.6958      2.00000
     11      -0.4022      0.00000
     12       0.8008      0.00000
     13       1.4687      0.00000
     14       1.8359      0.00000

 k-point    19 :       0.2000    0.0667    0.0000
  band No.  band energies     occupation 
      1     -15.1431      2.00000
      2     -14.3158      2.00000
      3      -8.7516      2.00000
      4      -7.9265      2.00000
      5      -5.3073      2.00000
      6      -5.1292      2.00000
      7      -4.1989      2.00000
      8      -3.9043      2.00000
      9      -2.8555      2.00000
     10      -2.7675      2.00000
     11      -0.3124      0.00000
     12       0.2130      0.00000
     13       1.2049      0.00000
     14       1.4477      0.00000

 k-point    20 :       0.2667    0.0667    0.0000
  band No.  band energies     occupation 
      1     -15.0322      2.00000
      2     -14.3268      2.00000
      3      -8.9527      2.00000
      4      -8.2504      2.00000
      5      -5.1701      2.00000
      6      -4.9809      2.00000
      7      -3.9581      2.00000
      8      -3.8181      2.00000
      9      -2.8254      2.00000
     10      -2.5308      2.00000
     11      -0.2913      0.00000
     12      -0.1689      0.00000
     13       0.6953      0.00000
     14       0.9813      0.00000

 k-point    21 :       0.3333    0.0667    0.0000
  band No.  band energies     occupation 
      1     -14.9026      2.00000
      2     -14.3591      2.00000
      3      -9.1065      2.00000
      4      -8.5666      2.00000
      5      -4.9842      2.00000
      6      -4.7691      2.00000
      7      -3.8673      2.00000
      8      -3.7491      2.00000
      9      -2.7789      2.00000
     10      -2.2997      2.00000
     11      -0.6301      0.00000
     12      -0.0157      0.00000
     13       0.2177      0.00000
     14       0.5658      0.00000

 k-point    22 :       0.4000    0.0667    0.0000
  band No.  band energies     occupation 
      1     -14.7646      2.00000
      2     -14.4202      2.00000
      3      -9.1817      2.00000
      4      -8.8401      2.00000
      5      -4.7627      2.00000
      6      -4.5272      2.00000
      7      -3.9520      2.00000
      8      -3.7634      2.00000
      9      -2.5939      2.00000
     10      -2.2055      2.00000
     11      -0.7780      0.00000
     12      -0.3396      0.00000
     13       0.3296      0.00000
     14       0.3462      0.00000

 k-point    23 :       0.4667    0.0667    0.0000
  band No.  band energies     occupation 
      1     -14.6303      2.00000
      2     -14.5121      2.00000
      3      -9.1619      2.00000
      4      -9.0448      2.00000
      5      -4.5301      2.00000
      6      -4.3795      2.00000
      7      -4.0368      2.00000
      8      -3.8934      2.00000
      9      -2.3728      2.00000
     10      -2.2301      2.00000
     11      -0.7990      0.00000
     12      -0.6616      0.00000
     13       0.3814      0.00000
     14       0.5975      0.00000

 k-point    24 :       0.5333    0.0667    0.0000
  band No.  band energies     occupation 
      1     -14.6303      2.00000
      2     -14.5121      2.00000
      3      -9.1619      2.00000
      4      -9.0448      2.00000
      5      -4.5301      2.00000
      6      -4.3795      2.00000
      7      -4.0368      2.00000
      8      -3.8934      2.00000
      9      -2.3728      2.00000
     10      -2.2301      2.00000
     11      -0.7990      0.00000
     12      -0.6616      0.00000
     13       0.3814      0.00000
     14       0.5972      0.00000

 k-point    25 :       0.6000    0.0667    0.0000
  band No.  band energies     occupation 
      1     -14.7646      2.00000
      2     -14.4202      2.00000
      3      -9.1817      2.00000
      4      -8.8401      2.00000
      5      -4.7627      2.00000
      6      -4.5272      2.00000
      7      -3.9520      2.00000
      8      -3.7634      2.00000
      9      -2.5939      2.00000
     10      -2.2055      2.00000
     11      -0.7780      0.00000
     12      -0.3396      0.00000
     13       0.3296      0.00000
     14       0.3462      0.00000

 k-point    26 :       0.6667    0.0667    0.0000
  band No.  band energies     occupation 
      1     -14.9026      2.00000
      2     -14.3591      2.00000
      3      -9.1065      2.00000
      4      -8.5666      2.00000
      5      -4.9842      2.00000
      6      -4.7691      2.00000
      7      -3.8673      2.00000
      8      -3.7491      2.00000
      9      -2.7789      2.00000
     10      -2.2997      2.00000
     11      -0.6301      0.00000
     12      -0.0157      0.00000
     13       0.2177      0.00000
     14       0.5658      0.00000

 k-point    27 :       0.7333    0.0667    0.0000
  band No.  band energies     occupation 
      1     -15.0322      2.00000
      2     -14.3268      2.00000
      3      -8.9527      2.00000
      4      -8.2504      2.00000
      5      -5.1701      2.00000
      6      -4.9809      2.00000
      7      -3.9581      2.00000
      8      -3.8181      2.00000
      9      -2.8254      2.00000
     10      -2.5308      2.00000
     11      -0.2913      0.00000
     12      -0.1689      0.00000
     13       0.6953      0.00000
     14       0.9813      0.00000

 k-point    28 :       0.8000    0.0667    0.0000
  band No.  band energies     occupation 
      1     -15.1431      2.00000
      2     -14.3158      2.00000
      3      -8.7516      2.00000
      4      -7.9265      2.00000
      5      -5.3073      2.00000
      6      -5.1292      2.00000
      7      -4.1989      2.00000
      8      -3.9043      2.00000
      9      -2.8555      2.00000
     10      -2.7675      2.00000
     11      -0.3124      0.00000
     12       0.2130      0.00000
     13       1.2049      0.00000
     14       1.4478      0.00000

 k-point    29 :       0.8667    0.0667    0.0000
  band No.  band energies     occupation 
      1     -15.2276      2.00000
      2     -14.3168      2.00000
      3      -8.5476      2.00000
      4      -7.6394      2.00000
      5      -5.3892      2.00000
      6      -5.1939      2.00000
      7      -4.4930      2.00000
      8      -3.9553      2.00000
      9      -3.2069      2.00000
     10      -2.6958      2.00000
     11      -0.4022      0.00000
     12       0.8008      0.00000
     13       1.4687      0.00000
     14       1.8410      0.00000

 k-point    30 :       0.9333    0.0667    0.0000
  band No.  band energies     occupation 
      1     -15.2803      2.00000
      2     -14.3212      2.00000
      3      -8.3933      2.00000
      4      -7.4393      2.00000
      5      -5.4222      2.00000
      6      -5.1610      2.00000
      7      -4.7748      2.00000
      8      -3.9340      2.00000
      9      -3.5246      2.00000
     10      -2.6493      2.00000
     11      -0.4475      0.00000
     12       1.3754      0.00000
     13       1.4394      0.00000
     14       1.8851      0.00000

 k-point    31 :       0.0000    0.1333    0.0000
  band No.  band energies     occupation 
      1     -15.2405      2.00000
      2     -14.3124      2.00000
      3      -8.5106      2.00000
      4      -7.5816      2.00000
      5      -5.4133      2.00000
      6      -4.9922      2.00000
      7      -4.7996      2.00000
      8      -3.8100      2.00000
      9      -3.4477      2.00000
     10      -2.6779      2.00000
     11      -0.4212      0.00000
     12       1.2409      0.00000
     13       1.5119      0.00000
     14       1.5547      0.00000

 k-point    32 :       0.0667    0.1333    0.0000
  band No.  band energies     occupation 
      1     -15.2231      2.00000
      2     -14.3102      2.00000
      3      -8.5439      2.00000
      4      -7.6318      2.00000
      5      -5.3963      2.00000
      6      -5.2220      2.00000
      7      -4.5095      2.00000
      8      -3.9737      2.00000
      9      -3.2194      2.00000
     10      -2.6830      2.00000
     11      -0.4036      0.00000
     12       0.8085      0.00000
     13       1.5280      0.00000
     14       1.7931      0.00000

 k-point    33 :       0.1333    0.1333    0.0000
  band No.  band energies     occupation 
      1     -15.1717      2.00000
      2     -14.3054      2.00000
      3      -8.6385      2.00000
      4      -7.7772      2.00000
      5      -5.4254      2.00000
      6      -5.3436      2.00000
      7      -4.1466      2.00000
      8      -4.1396      2.00000
      9      -2.8783      2.00000
     10      -2.6922      2.00000
     11      -0.3488      0.00000
     12       0.2557      0.00000
     13       1.2431      0.00000
     14       1.9563      0.00000

 k-point    34 :       0.2000    0.1333    0.0000
  band No.  band energies     occupation 
      1     -15.0896      2.00000
      2     -14.3035      2.00000
      3      -8.7764      2.00000
      4      -7.9997      2.00000
      5      -5.5073      2.00000
      6      -5.2513      2.00000
      7      -4.2193      2.00000
      8      -3.8390      2.00000
      9      -2.6782      2.00000
     10      -2.6224      2.00000
     11      -0.2557      0.00000
     12      -0.1743      0.00000
     13       0.6990      0.00000
     14       1.8208      0.00000

 k-point    35 :       0.2667    0.1333    0.0000
  band No.  band energies     occupation 
      1     -14.9821      2.00000
      2     -14.3125      2.00000
      3      -8.9246      2.00000
      4      -8.2669      2.00000
      5      -5.4658      2.00000
      6      -5.1162      2.00000
      7      -4.2105      2.00000
      8      -3.7035      2.00000
      9      -2.5908      2.00000
     10      -2.5680      2.00000
     11      -0.3443      0.00000
     12      -0.1773      0.00000
     13       0.2202      0.00000
     14       1.4667      0.00000

 k-point    36 :       0.3333    0.1333    0.0000
  band No.  band energies     occupation 
      1     -14.8570      2.00000
      2     -14.3417      2.00000
      3      -9.0445      2.00000
      4      -8.5404      2.00000
      5      -5.3180      2.00000
      6      -4.9407      2.00000
      7      -4.1840      2.00000
      8      -3.7584      2.00000
      9      -2.6852      2.00000
     10      -2.4525      2.00000
     11      -0.4069      0.00000
     12      -0.2629      0.00000
     13       0.2256      0.00000
     14       1.0818      0.00000

 k-point    37 :       0.4000    0.1333    0.0000
  band No.  band energies     occupation 
      1     -14.7244      2.00000
      2     -14.3982      2.00000
      3      -9.1029      2.00000
      4      -8.7846      2.00000
      5      -5.0899      2.00000
      6      -4.7414      2.00000
      7      -4.2327      2.00000
      8      -3.9331      2.00000
      9      -2.7687      2.00000
     10      -2.4016      2.00000
     11      -0.5949      0.00000
     12      -0.1650      0.00000
     13       0.4707      0.00000
     14       0.8467      0.00000

 k-point    38 :       0.4667    0.1333    0.0000
  band No.  band energies     occupation 
      1     -14.5962      2.00000
      2     -14.4844      2.00000
      3      -9.0801      2.00000
      4      -8.9710      2.00000
      5      -4.8209      2.00000
      6      -4.6255      2.00000
      7      -4.3144      2.00000
      8      -4.1537      2.00000
      9      -2.6897      2.00000
     10      -2.5157      2.00000
     11      -0.5224      0.00000
     12      -0.3003      0.00000
     13       0.7586      0.00000
     14       0.8973      0.00000

 k-point    39 :       0.5333    0.1333    0.0000
  band No.  band energies     occupation 
      1     -14.5962      2.00000
      2     -14.4844      2.00000
      3      -9.0801      2.00000
      4      -8.9710      2.00000
      5      -4.8209      2.00000
      6      -4.6255      2.00000
      7      -4.3144      2.00000
      8      -4.1537      2.00000
      9      -2.6897      2.00000
     10      -2.5157      2.00000
     11      -0.5224      0.00000
     12      -0.3003      0.00000
     13       0.7586      0.00000
     14       0.8973      0.00000

 k-point    40 :       0.6000    0.1333    0.0000
  band No.  band energies     occupation 
      1     -14.7244      2.00000
      2     -14.3982      2.00000
      3      -9.1029      2.00000
      4      -8.7846      2.00000
      5      -5.0899      2.00000
      6      -4.7414      2.00000
      7      -4.2327      2.00000
      8      -3.9331      2.00000
      9      -2.7687      2.00000
     10      -2.4016      2.00000
     11      -0.5949      0.00000
     12      -0.1650      0.00000
     13       0.4707      0.00000
     14       0.8467      0.00000

 k-point    41 :       0.6667    0.1333    0.0000
  band No.  band energies     occupation 
      1     -14.8570      2.00000
      2     -14.3417      2.00000
      3      -9.0445      2.00000
      4      -8.5404      2.00000
      5      -5.3180      2.00000
      6      -4.9407      2.00000
      7      -4.1840      2.00000
      8      -3.7584      2.00000
      9      -2.6852      2.00000
     10      -2.4525      2.00000
     11      -0.4069      0.00000
     12      -0.2629      0.00000
     13       0.2256      0.00000
     14       1.0818      0.00000

 k-point    42 :       0.7333    0.1333    0.0000
  band No.  band energies     occupation 
      1     -14.9821      2.00000
      2     -14.3125      2.00000
      3      -8.9246      2.00000
      4      -8.2669      2.00000
      5      -5.4658      2.00000
      6      -5.1162      2.00000
      7      -4.2105      2.00000
      8      -3.7035      2.00000
      9      -2.5908      2.00000
     10      -2.5680      2.00000
     11      -0.3443      0.00000
     12      -0.1773      0.00000
     13       0.2202      0.00000
     14       1.4667      0.00000

 k-point    43 :       0.8000    0.1333    0.0000
  band No.  band energies     occupation 
      1     -15.0896      2.00000
      2     -14.3035      2.00000
      3      -8.7764      2.00000
      4      -7.9997      2.00000
      5      -5.5073      2.00000
      6      -5.2513      2.00000
      7      -4.2193      2.00000
      8      -3.8390      2.00000
      9      -2.6782      2.00000
     10      -2.6224      2.00000
     11      -0.2557      0.00000
     12      -0.1743      0.00000
     13       0.6990      0.00000
     14       1.8206      0.00000

 k-point    44 :       0.8667    0.1333    0.0000
  band No.  band energies     occupation 
      1     -15.1717      2.00000
      2     -14.3054      2.00000
      3      -8.6385      2.00000
      4      -7.7772      2.00000
      5      -5.4254      2.00000
      6      -5.3436      2.00000
      7      -4.1466      2.00000
      8      -4.1396      2.00000
      9      -2.8783      2.00000
     10      -2.6922      2.00000
     11      -0.3488      0.00000
     12       0.2557      0.00000
     13       1.2431      0.00000
     14       1.9609      0.00000

 k-point    45 :       0.9333    0.1333    0.0000
  band No.  band energies     occupation 
      1     -15.2231      2.00000
      2     -14.3102      2.00000
      3      -8.5439      2.00000
      4      -7.6318      2.00000
      5      -5.3963      2.00000
      6      -5.2220      2.00000
      7      -4.5095      2.00000
      8      -3.9737      2.00000
      9      -3.2194      2.00000
     10      -2.6830      2.00000
     11      -0.4036      0.00000
     12       0.8085      0.00000
     13       1.5281      0.00000
     14       1.7937      0.00000

 k-point    46 :       0.0000    0.2000    0.0000
  band No.  band energies     occupation 
      1     -15.1482      2.00000
      2     -14.3017      2.00000
      3      -8.7408      2.00000
[...]
     14       1.6402      0.00000

 k-point   111 :       0.3333    0.4667    0.0000
  band No.  band energies     occupation 
      1     -14.4031      2.00000
      2     -14.3370      2.00000
      3      -8.6074      2.00000
      4      -8.5597      2.00000
      5      -6.2167      2.00000
      6      -5.9065      2.00000
      7      -4.9380      2.00000
      8      -4.6796      2.00000
      9      -3.8104      2.00000
     10      -3.6138      2.00000
     11       0.8218      0.00000
     12       1.0952      0.00000
     13       1.9459      0.00000
     14       2.2143      0.00000

 k-point   112 :       0.4000    0.4667    0.0000
  band No.  band energies     occupation 
      1     -14.3554      2.00000
      2     -14.3140      2.00000
      3      -8.4190      2.00000
      4      -8.3990      2.00000
      5      -6.4802      2.00000
      6      -6.2517      2.00000
      7      -5.1909      2.00000
      8      -4.9982      2.00000
      9      -3.8056      2.00000
     10      -3.6863      2.00000
     11       1.0577      0.00000
     12       1.2277      0.00000
     13       2.4368      0.00000
     14       2.6659      0.00000

 k-point   113 :       0.4667    0.4667    0.0000
  band No.  band energies     occupation 
      1     -14.3221      2.00000
      2     -14.3079      2.00000
      3      -8.2967      2.00000
      4      -8.2934      2.00000
      5      -6.5824      2.00000
      6      -6.4959      2.00000
      7      -5.2955      2.00000
      8      -5.2238      2.00000
      9      -3.7688      2.00000
     10      -3.7286      2.00000
     11       1.2098      0.00000
     12       1.2676      0.00000
     13       2.6823      0.00000
     14       2.7965      0.00000

 k-point   114 :       0.5333    0.4667    0.0000
  band No.  band energies     occupation 
      1     -14.3221      2.00000
      2     -14.3079      2.00000
      3      -8.2967      2.00000
      4      -8.2934      2.00000
      5      -6.5824      2.00000
      6      -6.4959      2.00000
      7      -5.2955      2.00000
      8      -5.2238      2.00000
      9      -3.7688      2.00000
     10      -3.7286      2.00000
     11       1.2098      0.00000
     12       1.2676      0.00000
     13       2.6825      0.00000
     14       2.7974      0.00000

 k-point   115 :       0.6000    0.4667    0.0000
  band No.  band energies     occupation 
      1     -14.3554      2.00000
      2     -14.3140      2.00000
      3      -8.4190      2.00000
      4      -8.3990      2.00000
      5      -6.4802      2.00000
      6      -6.2517      2.00000
      7      -5.1909      2.00000
      8      -4.9982      2.00000
      9      -3.8056      2.00000
     10      -3.6863      2.00000
     11       1.0577      0.00000
     12       1.2277      0.00000
     13       2.4366      0.00000
     14       2.6646      0.00000

 k-point   116 :       0.6667    0.4667    0.0000
  band No.  band energies     occupation 
      1     -14.4031      2.00000
      2     -14.3370      2.00000
      3      -8.6074      2.00000
      4      -8.5597      2.00000
      5      -6.2167      2.00000
      6      -5.9065      2.00000
      7      -4.9380      2.00000
      8      -4.6796      2.00000
      9      -3.8104      2.00000
     10      -3.6138      2.00000
     11       0.8218      0.00000
     12       1.0952      0.00000
     13       1.9459      0.00000
     14       2.2143      0.00000

 k-point   117 :       0.7333    0.4667    0.0000
  band No.  band energies     occupation 
      1     -14.4575      2.00000
      2     -14.3708      2.00000
      3      -8.8047      2.00000
      4      -8.7296      2.00000
      5      -5.8327      2.00000
      6      -5.4930      2.00000
      7      -4.6418      2.00000
      8      -4.3801      2.00000
      9      -3.7026      2.00000
     10      -3.4324      2.00000
     11       0.4725      0.00000
     12       0.8303      0.00000
     13       1.3965      0.00000
     14       1.6402      0.00000

 k-point   118 :       0.8000    0.4667    0.0000
  band No.  band energies     occupation 
      1     -14.5104      2.00000
      2     -14.4076      2.00000
      3      -8.9774      2.00000
      4      -8.8806      2.00000
      5      -5.3622      2.00000
      6      -5.0402      2.00000
      7      -4.4441      2.00000
      8      -4.2106      2.00000
      9      -3.3672      2.00000
     10      -3.0714      2.00000
     11      -0.0435      0.00000
     12       0.3135      0.00000
     13       1.0024      0.00000
     14       1.2272      0.00000

 k-point   119 :       0.8667    0.4667    0.0000
  band No.  band energies     occupation 
      1     -14.5541      2.00000
      2     -14.4399      2.00000
      3      -9.1085      2.00000
      4      -8.9968      2.00000
      5      -4.8536      2.00000
      6      -4.6707      2.00000
      7      -4.2522      2.00000
      8      -4.1328      2.00000
      9      -2.8610      2.00000
     10      -2.6562      2.00000
     11      -0.5655      0.00000
     12      -0.3351      0.00000
     13       0.7831      0.00000
     14       0.8860      0.00000

 k-point   120 :       0.9333    0.4667    0.0000
  band No.  band energies     occupation 
      1     -14.5828      2.00000
      2     -14.4619      2.00000
      3      -9.1898      2.00000
      4      -9.0694      2.00000
      5      -4.5602      2.00000
      6      -4.4442      2.00000
      7      -4.0188      2.00000
      8      -3.8867      2.00000
      9      -2.5008      2.00000
     10      -2.4012      2.00000
     11      -0.8163      0.00000
     12      -0.7054      0.00000
     13       0.2765      0.00000
     14       0.5841      0.00000


--------------------------------------------------------------------------------------------------------


 soft charge-density along one line, spin component           1
         0         1         2         3         4         5         6         7         8         9
 total charge-density along one line
 
 pseudopotential strength for first ion, spin component:           1
 30.089 -23.438  -0.000  -0.089   0.036  -0.000  -0.141   0.056
-23.438  28.119   0.000   0.051  -0.020   0.000   0.082  -0.032
 -0.000   0.000   6.332   0.000   0.000   9.797   0.000   0.000
 -0.089   0.051   0.000   6.330   0.002   0.000   9.792   0.003
  0.036  -0.020   0.000   0.002   6.332   0.000   0.003   9.796
 -0.000   0.000   9.797   0.000   0.000  15.227   0.000   0.000
 -0.141   0.082   0.000   9.792   0.003   0.000  15.220   0.004
  0.056  -0.032   0.000   0.003   9.796   0.000   0.004  15.225
  0.000  -0.000   0.007  -0.000  -0.000   0.010  -0.000  -0.000
  0.000  -0.000  -0.021  -0.000  -0.000  -0.032  -0.000  -0.000
 -0.003   0.004   0.000  -0.021  -0.004   0.000  -0.033  -0.006
  0.003  -0.002  -0.000   0.009  -0.021  -0.000   0.014  -0.032
 -0.000   0.000   0.000  -0.000   0.009   0.000  -0.000   0.014
 total augmentation occupancy for first ion, spin component:           1
  2.000   0.000   0.000   0.000   0.000   0.000   0.000   0.000   0.000   0.000   0.000   0.000   0.000
  0.000   0.000   0.000   0.000   0.000   0.000   0.000   0.000   0.000   0.000   0.000   0.000   0.000
  0.000   0.000   0.667   0.000   0.000   0.000   0.000   0.000   0.000   0.000   0.000   0.000   0.000
  0.000   0.000   0.000   0.667   0.000   0.000   0.000   0.000   0.000   0.000   0.000   0.000   0.000
  0.000   0.000   0.000   0.000   0.667   0.000   0.000   0.000   0.000   0.000   0.000   0.000   0.000
  0.000   0.000   0.000   0.000   0.000   0.000   0.000   0.000   0.000   0.000   0.000   0.000   0.000
  0.000   0.000   0.000   0.000   0.000   0.000   0.000   0.000   0.000   0.000   0.000   0.000   0.000
  0.000   0.000   0.000   0.000   0.000   0.000   0.000   0.000   0.000   0.000   0.000   0.000   0.000
  0.000   0.000   0.000   0.000   0.000   0.000   0.000   0.000   0.000   0.000   0.000   0.000   0.000
  0.000   0.000   0.000   0.000   0.000   0.000   0.000   0.000   0.000   0.000   0.000   0.000   0.000
  0.000   0.000   0.000   0.000   0.000   0.000   0.000   0.000   0.000   0.000   0.000   0.000   0.000
  0.000   0.000   0.000   0.000   0.000   0.000   0.000   0.000   0.000   0.000   0.000   0.000   0.000
  0.000   0.000   0.000   0.000   0.000   0.000   0.000   0.000   0.000   0.000   0.000   0.000   0.000


------------------------ aborting loop because EDIFF is reached ----------------------------------------


    CHARGE:  cpu time    0.2212: real time    0.2215
    FORLOC:  cpu time    0.0022: real time    0.0022
    FORNL :  cpu time    0.3712: real time    0.3717
    STRESS:  cpu time    0.6726: real time    0.6735
    FORCOR:  cpu time    0.0409: real time    0.0409
    FORHAR:  cpu time    0.0104: real time    0.0105
    OFIELD:  cpu time    0.0001: real time    0.0001

  FORCE on cell =-STRESS in cart. coord.  units (eV):
  Direction    XX          YY          ZZ          XY          YZ          ZX
  --------------------------------------------------------------------------------------
  Alpha Z     9.48525     9.48525     9.48525
  Ewald    1602.65227  1607.33117 -2060.13792     0.00000    -0.00000     0.00000
  Hartree  1723.87422  1725.64112 -1677.06612    -0.00000    -0.00000     0.00000
  E(xc)     -77.65631   -77.67080   -78.87719    -0.00000     0.00000     0.00000
  Local   -3579.24887 -3585.09770  3482.40007    -0.00000     0.00000     0.00000
  n-local   162.49590   162.69052   167.20003     0.00000    -0.00000     0.00000
  augment   -31.87705   -31.81787   -32.80199    -0.00000     0.00000     0.00000
  Kinetic   190.21783   189.39669   189.79664    -0.00000    -0.00000    -0.00000
  Fock        0.00000     0.00000     0.00000     0.00000     0.00000     0.00000
  -------------------------------------------------------------------------------------
  Total      -0.05678    -0.04162    -0.00123     0.00000     0.00000     0.00000
  in kB      -0.24131    -0.17690    -0.00525     0.00000     0.00000     0.00000
  external pressure =       -0.14 kB  Pullay stress =        0.00 kB


 VOLUME and BASIS-vectors are now :
 -----------------------------------------------------------------------------
  energy-cutoff  :      600.00
  volume of cell :      376.98
      direct lattice vectors                 reciprocal lattice vectors
     4.391121478  0.000000000  0.000000000     0.227732256  0.000000000  0.000000000
     0.000000000  4.292477857  0.000000000     0.000000000  0.232965675  0.000000000
     0.000000000  0.000000000 20.000000000     0.000000000  0.000000000  0.050000000

  length of vectors
     4.391121478  4.292477857 20.000000000     0.227732256  0.232965675  0.050000000


 FORCES acting on ions
    electron-ion (+dipol)            ewald-force                    non-local-force                 convergence-correction
 -----------------------------------------------------------------------------------------------
   0.438E+01 -.388E-12 -.144E+03   -.591E+01 0.389E-15 0.148E+03   0.154E+01 0.827E-24 -.381E+01   0.601E-04 0.521E-13 0.130E-02
   0.438E+01 -.604E-13 0.144E+03   -.591E+01 -.247E-15 -.148E+03   0.154E+01 0.165E-23 0.381E+01   0.632E-04 -.272E-13 -.130E-02
   -.545E+01 0.497E-13 -.206E+03   0.591E+01 0.195E-14 0.208E+03   -.461E+00 0.000E+00 -.204E+01   0.116E-03 -.897E-13 0.355E-02
   -.545E+01 0.156E-12 0.206E+03   0.591E+01 -.211E-15 -.208E+03   -.461E+00 0.000E+00 0.204E+01   0.104E-03 0.902E-13 -.355E-02
 -----------------------------------------------------------------------------------------------
   -.215E+01 -.243E-12 -.876E-06   0.178E-14 0.188E-14 0.000E+00   0.215E+01 0.248E-23 0.444E-15   0.344E-03 0.254E-13 0.186E-06
 
 
 POSITION                                       TOTAL-FORCE (eV/Angst)
 -----------------------------------------------------------------------------------
      2.55582      3.21936     11.37439         0.000805     -0.000000     -0.000173
      0.36026      1.07312      8.62561         0.000805      0.000000      0.000173
      0.14079      1.07312     11.34121        -0.000805      0.000000     -0.001668
      2.33635      3.21936      8.65879        -0.000805     -0.000000      0.001668
 -----------------------------------------------------------------------------------
    total drift:                               -0.000202     -0.000000     -0.000001


--------------------------------------------------------------------------------------------------------



  FREE ENERGIE OF THE ION-ELECTRON SYSTEM (eV)
  ---------------------------------------------------
  free  energy   TOTEN  =       -16.26500557 eV

  energy  without entropy=      -16.26500557  energy(sigma->0) =      -16.26500557
 


--------------------------------------------------------------------------------------------------------


    POTLOK:  cpu time    0.0416: real time    0.0417

 Berry-Phase calculation of electronic polarization

   IGPAR = 1   NPPSTR =   15


k-mesh defined as follows:

IGPAR =    1
NKPTS =  120  NSTR =    8  NPPSTR =   15
 

Average Det|M_k|=  (   0.04332   0.91967 )
 
K-point string #    1 weight=  0.06666667
  0.000000  0.000000  0.000000
  0.066667  0.000000  0.000000
  0.133333  0.000000  0.000000
  0.200000  0.000000  0.000000
  0.266667  0.000000  0.000000
  0.333333  0.000000  0.000000
  0.400000  0.000000  0.000000
  0.466667  0.000000  0.000000
  0.533333  0.000000  0.000000
  0.600000  0.000000  0.000000
  0.666667  0.000000  0.000000
  0.733333  0.000000  0.000000
  0.800000  0.000000  0.000000
  0.866667  0.000000  0.000000
  0.933333  0.000000  0.000000
                     Det|M_k|=  (   0.86354   0.50429 )
              Im ln[Det|M_k|]=     -0.08412 electrons
Im ln[Det|M_k|/<Det|M_k|>_av]=      0.99517
 
K-point string #    2 weight=  0.13333333
  0.000000  0.066667  0.000000
  0.066667  0.066667  0.000000
  0.133333  0.066667  0.000000
  0.200000  0.066667  0.000000
  0.266667  0.066667  0.000000
  0.333333  0.066667  0.000000
  0.400000  0.066667  0.000000
  0.466667  0.066667  0.000000
  0.533333  0.066667  0.000000
  0.600000  0.066667  0.000000
  0.666667  0.066667  0.000000
  0.733333  0.066667  0.000000
  0.800000  0.066667  0.000000
  0.866667  0.066667  0.000000
  0.933333  0.066667  0.000000
                     Det|M_k|=  (   0.56498   0.82511 )
              Im ln[Det|M_k|]=     -0.15444 electrons
Im ln[Det|M_k|/<Det|M_k|>_av]=      0.55334
 
K-point string #    3 weight=  0.13333333
  0.000000  0.133333  0.000000
  0.066667  0.133333  0.000000
  0.133333  0.133333  0.000000
  0.200000  0.133333  0.000000
  0.266667  0.133333  0.000000
  0.333333  0.133333  0.000000
  0.400000  0.133333  0.000000
  0.466667  0.133333  0.000000
  0.533333  0.133333  0.000000
  0.600000  0.133333  0.000000
  0.666667  0.133333  0.000000
  0.733333  0.133333  0.000000
  0.800000  0.133333  0.000000
  0.866667  0.133333  0.000000
  0.933333  0.133333  0.000000
                     Det|M_k|=  (   0.26059   0.96545 )
              Im ln[Det|M_k|]=     -0.20804 electrons
Im ln[Det|M_k|/<Det|M_k|>_av]=      0.21656
 
K-point string #    4 weight=  0.13333333
  0.000000  0.200000  0.000000
  0.066667  0.200000  0.000000
  0.133333  0.200000  0.000000
  0.200000  0.200000  0.000000
  0.266667  0.200000  0.000000
  0.333333  0.200000  0.000000
  0.400000  0.200000  0.000000
  0.466667  0.200000  0.000000
  0.533333  0.200000  0.000000
  0.600000  0.200000  0.000000
  0.666667  0.200000  0.000000
  0.733333  0.200000  0.000000
  0.800000  0.200000  0.000000
  0.866667  0.200000  0.000000
  0.933333  0.200000  0.000000
                     Det|M_k|=  (   0.06395   0.99795 )
              Im ln[Det|M_k|]=     -0.23981 electrons
Im ln[Det|M_k|/<Det|M_k|>_av]=      0.01693
 
K-point string #    5 weight=  0.13333333
  0.000000  0.266667  0.000000
  0.066667  0.266667  0.000000
  0.133333  0.266667  0.000000
  0.200000  0.266667  0.000000
  0.266667  0.266667  0.000000
  0.333333  0.266667  0.000000
  0.400000  0.266667  0.000000
  0.466667  0.266667  0.000000
  0.533333  0.266667  0.000000
  0.600000  0.266667  0.000000
  0.666667  0.266667  0.000000
  0.733333  0.266667  0.000000
  0.800000  0.266667  0.000000
  0.866667  0.266667  0.000000
  0.933333  0.266667  0.000000
                     Det|M_k|=  (  -0.10720   0.99424 )
              Im ln[Det|M_k|]=     -0.26709 electrons
Im ln[Det|M_k|/<Det|M_k|>_av]=      0.15447
 
K-point string #    6 weight=  0.13333333
  0.000000  0.333333  0.000000
  0.066667  0.333333  0.000000
  0.133333  0.333333  0.000000
  0.200000  0.333333  0.000000
  0.266667  0.333333  0.000000
  0.333333  0.333333  0.000000
  0.400000  0.333333  0.000000
  0.466667  0.333333  0.000000
  0.533333  0.333333  0.000000
  0.600000  0.333333  0.000000
  0.666667  0.333333  0.000000
  0.733333  0.333333  0.000000
  0.800000  0.333333  0.000000
  0.866667  0.333333  0.000000
  0.933333  0.333333  0.000000
                     Det|M_k|=  (  -0.24286   0.97006 )
              Im ln[Det|M_k|]=     -0.28904 electrons
Im ln[Det|M_k|/<Det|M_k|>_av]=      0.29238
 
K-point string #    7 weight=  0.13333333
  0.000000  0.400000  0.000000
  0.066667  0.400000  0.000000
  0.133333  0.400000  0.000000
  0.200000  0.400000  0.000000
  0.266667  0.400000  0.000000
  0.333333  0.400000  0.000000
  0.400000  0.400000  0.000000
  0.466667  0.400000  0.000000
  0.533333  0.400000  0.000000
  0.600000  0.400000  0.000000
  0.666667  0.400000  0.000000
  0.733333  0.400000  0.000000
  0.800000  0.400000  0.000000
  0.866667  0.400000  0.000000
  0.933333  0.400000  0.000000
                     Det|M_k|=  (  -0.31263   0.94988 )
              Im ln[Det|M_k|]=     -0.30060 electrons
Im ln[Det|M_k|/<Det|M_k|>_av]=      0.36502
 
K-point string #    8 weight=  0.13333333
  0.000000  0.466667  0.000000
  0.066667  0.466667  0.000000
  0.133333  0.466667  0.000000
  0.200000  0.466667  0.000000
  0.266667  0.466667  0.000000
  0.333333  0.466667  0.000000
  0.400000  0.466667  0.000000
  0.466667  0.466667  0.000000
  0.533333  0.466667  0.000000
  0.600000  0.466667  0.000000
  0.666667  0.466667  0.000000
  0.733333  0.466667  0.000000
  0.800000  0.466667  0.000000
  0.866667  0.466667  0.000000
  0.933333  0.466667  0.000000
                     Det|M_k|=  (  -0.33373   0.94267 )
              Im ln[Det|M_k|]=     -0.30415 electrons
Im ln[Det|M_k|/<Det|M_k|>_av]=      0.38732
 
 
                                e<r>_ev=(     0.01119    -0.00000    -0.00000 ) e*Angst
                                e<r>_bp=(    -2.11389     0.00000     0.00000 ) e*Angst
 
 Total electronic dipole moment: p[elc]=(    -2.10270    -0.00000    -0.00000 ) e*Angst
 
            ionic dipole moment: p[ion]=(    17.38410     0.00000    -0.00000 ) e*Angst
 


--------------------------------------------------------------------------------------------------------


 writing wavefunctions
     LOOP+:  cpu time   22.8252: real time   23.2770
    4ORBIT:  cpu time    0.0000: real time    0.0000

 total amount of memory used by VASP MPI-rank0    65152. kBytes
=======================================================================

   base      :      30000. kBytes
   nonl-proj :      13387. kBytes
   fftplans  :       2678. kBytes
   grid      :       4349. kBytes
   one-center:          8. kBytes
   wavefun   :      14730. kBytes
 
  
  
 General timing and accounting informations for this job:
 ========================================================
  
                  Total CPU time used (sec):       28.869
                            User time (sec):       28.185
                          System time (sec):        0.683
                         Elapsed time (sec):       31.546
  
                   Maximum memory used (kb):      209432.
                   Average memory used (kb):           0.
  
                          Minor page faults:        93755
                          Major page faults:           76
                 Voluntary context switches:        13592
