 running on  192 total cores
 distrk:  each k-point on  192 cores,    1 groups
 distr:  one band on   24 cores,    8 groups
 using from now: INCAR     
 vasp.5.4.4.18Apr17-6-g9f103f2a35 (build Oct 01 2024 10:11:53) complex          
  
 POSCAR found type information on POSCAR  Se Sn
 POSCAR found :  2 types and       4 ions
 scaLAPACK will be used
 WARNING: PSMAXN for non-local potential too small
 LDA part: xc-table for Pade appr. of Perdew
 found WAVECAR, reading the header
  number of k-points has changed, file:    41 present:    40
  trying to continue reading WAVECAR, but it might fail
 WARNING: stress and forces are not correct
 POSCAR, INCAR and KPOINTS ok, starting setup
 FFT: planning ...
 reading WAVECAR
 the WAVECAR file was read successfully
 charge-density read from file: unknown                                 
 entering main loop
       N       E                     dE             d eps       ncg     rms          rms(c)
DAV:   1    -0.120740047897E+02   -0.12074E+02   -0.61358E+02  1800   0.685E+01
DAV:   2    -0.162098814883E+02   -0.41359E+01   -0.41017E+01  1568   0.240E+01
DAV:   3    -0.162655685625E+02   -0.55687E-01   -0.55628E-01  1744   0.329E+00
DAV:   4    -0.162662580700E+02   -0.68951E-03   -0.68945E-03  1640   0.368E-01
DAV:   5    -0.162662759889E+02   -0.17919E-04   -0.17918E-04  1632   0.576E-02
DAV:   6    -0.162662765589E+02   -0.56997E-06   -0.56996E-06  1440   0.942E-03
   1 F= -.16266277E+02 E0= -.16266277E+02  d E =0.000000E+00
 writing wavefunctions
