 vasp.5.4.4.18Apr17-6-g9f103f2a35 (build Sep 16 2021 13:51:27) complex          
  
 executed on             LinuxIFC date 2023.03.16  12:59:54
 running on   24 total cores
 distrk:  each k-point on   24 cores,    1 groups
 distr:  one band on NCORES_PER_BAND=  24 cores,    1 groups


--------------------------------------------------------------------------------------------------------


 INCAR:
 POTCAR:    PAW_PBE Sn 08Apr2002                  
 POTCAR:    PAW_PBE Se 06Sep2000                  

 ----------------------------------------------------------------------------- 
|                                                                             |
|           W    W    AA    RRRRR   N    N  II  N    N   GGGG   !!!           |
|           W    W   A  A   R    R  NN   N  II  NN   N  G    G  !!!           |
|           W    W  A    A  R    R  N N  N  II  N N  N  G       !!!           |
|           W WW W  AAAAAA  RRRRR   N  N N  II  N  N N  G  GGG   !            |
|           WW  WW  A    A  R   R   N   NN  II  N   NN  G    G                |
|           W    W  A    A  R    R  N    N  II  N    N   GGGG   !!!           |
|                                                                             |
|      For optimal performance we recommend to set                            |
|        NCORE= 4 - approx SQRT( number of cores)                             |
|      NCORE specifies how many cores store one orbital (NPAR=cpu/NCORE).     |
|      This setting can  greatly improve the performance of VASP for DFT.     |
|      The default,   NCORE=1            might be grossly inefficient         |
|      on modern multi-core architectures or massively parallel machines.     |
|      Do your own testing !!!!                                               |
|      Unfortunately you need to use the default for GW and RPA calculations. |
|      (for HF NCORE is supported but not extensively tested yet)             |
|                                                                             |
 ----------------------------------------------------------------------------- 

 POTCAR:    PAW_PBE Sn 08Apr2002                  
   VRHFIN =Sn: s2p2                                                             
   LEXCH  = PE                                                                  
   EATOM  =    94.0860 eV,    6.9151 Ry                                         
                                                                                
   TITEL  = PAW_PBE Sn 08Apr2002                                                
   LULTRA =        F    use ultrasoft PP ?                                      
   IUNSCR =        1    unscreen: 0-lin 1-nonlin 2-no                           
   RPACOR =    2.000    partial core radius                                     
   POMASS =  118.710; ZVAL   =    4.000    mass and valenz                      
   RCORE  =    3.000    outmost cutoff radius                                   
   RWIGS  =    2.960; RWIGS  =    1.566    wigner-seitz radius (au A)           
   ENMAX  =  103.236; ENMIN  =   77.427 eV                                      
   ICORE  =        3    local potential                                         
   LCOR   =        T    correct aug charges                                     
   LPAW   =        T    paw PP                                                  
   EAUG   =  263.585                                                            
   DEXC   =    0.000                                                            
   RMAX   =    3.078    core radius for proj-oper                               
   RAUG   =    1.300    factor for augmentation sphere                          
   RDEP   =    3.022    radius for radial grids                                 
   RDEPT  =    2.655    core radius for aug-charge                              
                                                                                
   Atomic configuration                                                         
   13 entries                                                                   
     n  l   j            E        occ.                                          
     1  0  0.50    -29007.2859   2.0000                                         
     2  0  0.50     -4378.8056   2.0000                                         
     2  1  1.50     -3930.4293   6.0000                                         
     3  0  0.50      -845.0264   2.0000                                         
     3  1  1.50      -698.5725   6.0000                                         
     3  2  2.50      -473.2839  10.0000                                         
     4  0  0.50      -133.9036   2.0000                                         
     4  1  1.50       -89.6752   6.0000                                         
     4  2  2.50       -25.8375  10.0000                                         
     5  0  0.50       -10.5484   2.0000                                         
     5  1  0.50        -3.6940   2.0000                                         
     5  2  1.50        -1.3606   0.0000                                         
     4  3  2.50        -4.0817   0.0000                                         
   Description                                                                  
     l       E           TYP  RCUT    TYP  RCUT                                 
     0    -10.5483727     23  3.000                                             
     0     27.2116520     23  3.000                                             
     1     -3.6939829     23  3.000                                             
     1      1.9821976     23  3.000                                             
     2     -1.3605826     23  3.000                                             
     3     -2.7211652     23  3.000                                             
  local pseudopotential read in
  partial core-charges read in
  partial kinetic energy density read in
  atomic valenz-charges read in
  non local Contribution for L=           0  read in
    real space projection operators read in
  non local Contribution for L=           0  read in
    real space projection operators read in
  non local Contribution for L=           1  read in
    real space projection operators read in
  non local Contribution for L=           1  read in
    real space projection operators read in
  non local Contribution for L=           2  read in
    real space projection operators read in
    PAW grid and wavefunctions read in
 
   number of l-projection  operators is LMAX  =           5
   number of lm-projection operators is LMMAX =          13
 
 POTCAR:    PAW_PBE Se 06Sep2000                  
   VRHFIN =Se: s2p4                                                             
   LEXCH  = PE                                                                  
   EATOM  =   257.1286 eV,   18.8984 Ry                                         
                                                                                
   TITEL  = PAW_PBE Se 06Sep2000                                                
   LULTRA =        F    use ultrasoft PP ?                                      
   IUNSCR =        1    unscreen: 0-lin 1-nonlin 2-no                           
   RPACOR =    1.900    partial core radius                                     
   POMASS =   78.960; ZVAL   =    6.000    mass and valenz                      
   RCORE  =    2.100    outmost cutoff radius                                   
   RWIGS  =    2.200; RWIGS  =    1.164    wigner-seitz radius (au A)           
   ENMAX  =  211.555; ENMIN  =  158.666 eV                                      
   ICORE  =        3    local potential                                         
   LCOR   =        T    correct aug charges                                     
   LPAW   =        T    paw PP                                                  
   EAUG   =  446.842                                                            
   DEXC   =    0.000                                                            
   RMAX   =    2.147    core radius for proj-oper                               
   RAUG   =    1.300    factor for augmentation sphere                          
   RDEP   =    2.177    radius for radial grids                                 
   RDEPT  =    1.928    core radius for aug-charge                              
                                                                                
   Atomic configuration                                                         
   10 entries                                                                   
     n  l   j            E        occ.                                          
     1  0  0.50    -12503.4787   2.0000                                         
     2  0  0.50     -1606.9547   2.0000                                         
     2  1  1.50     -1413.3140   6.0000                                         
     3  0  0.50      -213.4885   2.0000                                         
     3  1  1.50      -152.9538   6.0000                                         
     3  2  2.50       -53.1221  10.0000                                         
     4  0  0.50       -17.2865   2.0000                                         
     4  1  0.50        -6.5110   4.0000                                         
     4  2  2.50        -6.8029   0.0000                                         
     4  3  2.50        -6.8029   0.0000                                         
   Description                                                                  
     l       E           TYP  RCUT    TYP  RCUT                                 
     0    -17.2865377     23  2.100                                             
     0    -15.3094411     23  2.100                                             
     1     -6.5110275     23  2.100                                             
     1     -0.0695192     23  2.100                                             
     2     -6.8029130     23  2.100                                             
     3     -1.3605826      7  2.100                                             
  local pseudopotential read in
  partial core-charges read in
  partial kinetic energy density read in
  atomic valenz-charges read in
  non local Contribution for L=           0  read in
    real space projection operators read in
  non local Contribution for L=           0  read in
    real space projection operators read in
  non local Contribution for L=           1  read in
    real space projection operators read in
  non local Contribution for L=           1  read in
    real space projection operators read in
  non local Contribution for L=           2  read in
    real space projection operators read in
    PAW grid and wavefunctions read in
 
   number of l-projection  operators is LMAX  =           5
   number of lm-projection operators is LMMAX =          13
 
 WARNING: PSMAXN for non-local potential too small
          PSMAXN should be >   12.5490833729506       NTYP=           1
  PAW_PBE Sn 08Apr2002                  :
 energy of atom  1       EATOM=  -94.0860
 kinetic energy error for atom=    0.0000 (will be added to EATOM!!)
  PAW_PBE Se 06Sep2000                  :
 energy of atom  2       EATOM= -257.1286
 kinetic energy error for atom=    0.0006 (will be added to EATOM!!)
 
 
 POSCAR:  POSCAR with strain of -0.003           
  positions in direct lattice
  No initial velocities read in
 exchange correlation table for  LEXCH =        8
   RHO(1)=    0.500       N(1)  =     2000
   RHO(2)=  100.500       N(2)  =     4000
 


--------------------------------------------------------------------------------------------------------


 ion  position               nearest neighbor table
   1  0.581  0.750  0.569-   4 2.72   3 2.92   3 2.92   3 3.22   3 3.23
   2  0.081  0.250  0.431-   3 2.72   4 2.92   4 2.92   4 3.22   4 3.23
   3  0.033  0.250  0.567-   2 2.72   1 2.92   1 2.92   1 3.22   1 3.23
   4  0.533  0.750  0.433-   1 2.72   2 2.92   2 2.92   2 3.22   2 3.23
 

IMPORTANT INFORMATION: All symmetrisations will be switched off!
NOSYMM: (Re-)initialisation of all symmetry stuff for point group C_1.

 
 
 KPOINTS: KMesh Grid                              

Automatic generation of k-mesh.
Space group operators:
 irot       det(A)        alpha          n_x          n_y          n_z        tau_x        tau_y        tau_z
    1     1.000000     0.000000     1.000000     0.000000     0.000000     0.000000     0.000000     0.000000
 
 Subroutine IBZKPT returns following result:
 ===========================================
 
 Found    113 irreducible k-points:
 
 Following reciprocal coordinates:
            Coordinates               Weight
  0.000000  0.000000  0.000000      1.000000
  0.066667  0.000000 -0.000000      2.000000
  0.133333  0.000000 -0.000000      2.000000
  0.200000 -0.000000 -0.000000      2.000000
  0.266667  0.000000 -0.000000      2.000000
  0.333333 -0.000000 -0.000000      2.000000
  0.400000 -0.000000 -0.000000      2.000000
  0.466667 -0.000000 -0.000000      2.000000
  0.000000  0.066667 -0.000000      2.000000
  0.066667  0.066667 -0.000000      2.000000
  0.133333  0.066667 -0.000000      2.000000
  0.200000  0.066667 -0.000000      2.000000
  0.266667  0.066667  0.000000      2.000000
  0.333333  0.066667 -0.000000      2.000000
  0.400000  0.066667 -0.000000      2.000000
  0.466667  0.066667  0.000000      2.000000
 -0.466667  0.066667  0.000000      2.000000
 -0.400000  0.066667  0.000000      2.000000
 -0.333333  0.066667  0.000000      2.000000
 -0.266667  0.066667  0.000000      2.000000
 -0.200000  0.066667  0.000000      2.000000
 -0.133333  0.066667  0.000000      2.000000
 -0.066667  0.066667  0.000000      2.000000
 -0.000000  0.133333 -0.000000      2.000000
  0.066667  0.133333 -0.000000      2.000000
  0.133333  0.133333 -0.000000      2.000000
  0.200000  0.133333 -0.000000      2.000000
  0.266667  0.133333 -0.000000      2.000000
  0.333333  0.133333 -0.000000      2.000000
  0.400000  0.133333 -0.000000      2.000000
  0.466667  0.133333 -0.000000      2.000000
 -0.466667  0.133333  0.000000      2.000000
 -0.400000  0.133333  0.000000      2.000000
 -0.333333  0.133333  0.000000      2.000000
 -0.266667  0.133333 -0.000000      2.000000
 -0.200000  0.133333  0.000000      2.000000
 -0.133333  0.133333  0.000000      2.000000
 -0.066667  0.133333  0.000000      2.000000
 -0.000000  0.200000 -0.000000      2.000000
  0.066667  0.200000  0.000000      2.000000
  0.133333  0.200000 -0.000000      2.000000
  0.200000  0.200000 -0.000000      2.000000
  0.266667  0.200000  0.000000      2.000000
  0.333333  0.200000 -0.000000      2.000000
  0.400000  0.200000 -0.000000      2.000000
  0.466667  0.200000 -0.000000      2.000000
 -0.466667  0.200000  0.000000      2.000000
 -0.400000  0.200000  0.000000      2.000000
 -0.333333  0.200000  0.000000      2.000000
 -0.266667  0.200000  0.000000      2.000000
 -0.200000  0.200000 -0.000000      2.000000
 -0.133333  0.200000 -0.000000      2.000000
 -0.066667  0.200000 -0.000000      2.000000
 -0.000000  0.266667 -0.000000      2.000000
  0.066667  0.266667  0.000000      2.000000
  0.133333  0.266667  0.000000      2.000000
  0.200000  0.266667 -0.000000      2.000000
  0.266667  0.266667 -0.000000      2.000000
  0.333333  0.266667 -0.000000      2.000000
  0.400000  0.266667 -0.000000      2.000000
  0.466667  0.266667 -0.000000      2.000000
 -0.466667  0.266667 -0.000000      2.000000
 -0.400000  0.266667  0.000000      2.000000
 -0.333333  0.266667  0.000000      2.000000
 -0.266667  0.266667  0.000000      2.000000
 -0.200000  0.266667  0.000000      2.000000
 -0.133333  0.266667  0.000000      2.000000
 -0.066667  0.266667 -0.000000      2.000000
 -0.000000  0.333333 -0.000000      2.000000
  0.066667  0.333333 -0.000000      2.000000
  0.133333  0.333333  0.000000      2.000000
  0.200000  0.333333  0.000000      2.000000
  0.266667  0.333333 -0.000000      2.000000
  0.333333  0.333333 -0.000000      2.000000
  0.400000  0.333333 -0.000000      2.000000
  0.466667  0.333333 -0.000000      2.000000
 -0.466667  0.333333 -0.000000      2.000000
 -0.400000  0.333333  0.000000      2.000000
 -0.333333  0.333333 -0.000000      2.000000
 -0.266667  0.333333  0.000000      2.000000
 -0.200000  0.333333 -0.000000      2.000000
 -0.133333  0.333333 -0.000000      2.000000
 -0.066667  0.333333 -0.000000      2.000000
 -0.000000  0.400000 -0.000000      2.000000
  0.066667  0.400000 -0.000000      2.000000
  0.133333  0.400000 -0.000000      2.000000
  0.200000  0.400000 -0.000000      2.000000
  0.266667  0.400000 -0.000000      2.000000
  0.333333  0.400000 -0.000000      2.000000
  0.400000  0.400000 -0.000000      2.000000
  0.466667  0.400000 -0.000000      2.000000
 -0.466667  0.400000  0.000000      2.000000
 -0.400000  0.400000 -0.000000      2.000000
 -0.333333  0.400000 -0.000000      2.000000
 -0.266667  0.400000 -0.000000      2.000000
 -0.200000  0.400000 -0.000000      2.000000
 -0.133333  0.400000 -0.000000      2.000000
 -0.066667  0.400000 -0.000000      2.000000
  0.000000  0.466667  0.000000      2.000000
  0.066667  0.466667 -0.000000      2.000000
  0.133333  0.466667  0.000000      2.000000
  0.200000  0.466667 -0.000000      2.000000
  0.266667  0.466667 -0.000000      2.000000
  0.333333  0.466667 -0.000000      2.000000
  0.400000  0.466667  0.000000      2.000000
  0.466667  0.466667 -0.000000      2.000000
 -0.466667  0.466667  0.000000      2.000000
 -0.400000  0.466667  0.000000      2.000000
 -0.333333  0.466667 -0.000000      2.000000
 -0.266667  0.466667  0.000000      2.000000
 -0.200000  0.466667 -0.000000      2.000000
 -0.133333  0.466667 -0.000000      2.000000
 -0.066667  0.466667 -0.000000      2.000000
 
 Following cartesian coordinates:
            Coordinates               Weight
  0.000000  0.000000  0.000000      1.000000
  0.015213  0.000019  0.000019      2.000000
  0.030425  0.000038  0.000038      2.000000
  0.045638  0.000057  0.000057      2.000000
  0.060850  0.000076  0.000076      2.000000
  0.076063  0.000095  0.000095      2.000000
  0.091275  0.000114  0.000115      2.000000
  0.106488  0.000133  0.000134      2.000000
  0.000019  0.015531  0.000019      2.000000
  0.015232  0.015550  0.000039      2.000000
  0.030445  0.015569  0.000058      2.000000
  0.045657  0.015588  0.000077      2.000000
  0.060870  0.015607  0.000096      2.000000
  0.076082  0.015626  0.000115      2.000000
  0.091295  0.015645  0.000134      2.000000
  0.106507  0.015664  0.000153      2.000000
 -0.106468  0.015398 -0.000114      2.000000
 -0.091256  0.015417 -0.000095      2.000000
 -0.076043  0.015436 -0.000076      2.000000
 -0.060831  0.015455 -0.000057      2.000000
 -0.045618  0.015474 -0.000038      2.000000
 -0.030406  0.015493 -0.000019      2.000000
 -0.015193  0.015512  0.000000      2.000000
  0.000039  0.031062  0.000039      2.000000
  0.015251  0.031081  0.000058      2.000000
  0.030464  0.031100  0.000077      2.000000
  0.045677  0.031119  0.000096      2.000000
  0.060889  0.031138  0.000115      2.000000
  0.076102  0.031157  0.000134      2.000000
  0.091314  0.031176  0.000153      2.000000
  0.106527  0.031195  0.000173      2.000000
 -0.106449  0.030929 -0.000095      2.000000
 -0.091236  0.030948 -0.000076      2.000000
 -0.076024  0.030967 -0.000056      2.000000
 -0.060811  0.030986 -0.000037      2.000000
 -0.045599  0.031005 -0.000018      2.000000
 -0.030386  0.031024  0.000001      2.000000
 -0.015174  0.031043  0.000020      2.000000
  0.000058  0.046593  0.000058      2.000000
  0.015271  0.046612  0.000078      2.000000
  0.030483  0.046631  0.000097      2.000000
  0.045696  0.046650  0.000116      2.000000
  0.060909  0.046669  0.000135      2.000000
  0.076121  0.046688  0.000154      2.000000
  0.091334  0.046708  0.000173      2.000000
  0.106546  0.046727  0.000192      2.000000
 -0.106430  0.046460 -0.000075      2.000000
 -0.091217  0.046479 -0.000056      2.000000
 -0.076004  0.046498 -0.000037      2.000000
 -0.060792  0.046517 -0.000018      2.000000
 -0.045579  0.046536  0.000001      2.000000
 -0.030367  0.046555  0.000020      2.000000
 -0.015154  0.046574  0.000039      2.000000
  0.000078  0.062124  0.000078      2.000000
  0.015290  0.062143  0.000097      2.000000
  0.030503  0.062162  0.000116      2.000000
  0.045715  0.062181  0.000135      2.000000
  0.060928  0.062201  0.000154      2.000000
  0.076141  0.062220  0.000173      2.000000
  0.091353  0.062239  0.000192      2.000000
  0.106566  0.062258  0.000212      2.000000
 -0.106410  0.061991 -0.000056      2.000000
 -0.091198  0.062010 -0.000037      2.000000
 -0.075985  0.062029 -0.000017      2.000000
 -0.060772  0.062048  0.000002      2.000000
 -0.045560  0.062067  0.000021      2.000000
 -0.030347  0.062086  0.000040      2.000000
 -0.015135  0.062105  0.000059      2.000000
  0.000097  0.077655  0.000097      2.000000
  0.015310  0.077675  0.000117      2.000000
  0.030522  0.077694  0.000136      2.000000
  0.045735  0.077713  0.000155      2.000000
  0.060947  0.077732  0.000174      2.000000
  0.076160  0.077751  0.000193      2.000000
  0.091373  0.077770  0.000212      2.000000
  0.106585  0.077789  0.000231      2.000000
 -0.106391  0.077522 -0.000036      2.000000
 -0.091178  0.077541 -0.000017      2.000000
 -0.075966  0.077560  0.000002      2.000000
 -0.060753  0.077579  0.000021      2.000000
 -0.045540  0.077598  0.000040      2.000000
 -0.030328  0.077617  0.000059      2.000000
 -0.015115  0.077636  0.000078      2.000000
  0.000117  0.093187  0.000117      2.000000
  0.015329  0.093206  0.000136      2.000000
  0.030542  0.093225  0.000155      2.000000
  0.045754  0.093244  0.000174      2.000000
  0.060967  0.093263  0.000193      2.000000
  0.076179  0.093282  0.000212      2.000000
  0.091392  0.093301  0.000231      2.000000
  0.106605  0.093320  0.000251      2.000000
 -0.106371  0.093053 -0.000017      2.000000
 -0.091159  0.093072  0.000002      2.000000
 -0.075946  0.093091  0.000021      2.000000
 -0.060734  0.093110  0.000041      2.000000
 -0.045521  0.093129  0.000060      2.000000
 -0.030308  0.093148  0.000079      2.000000
 -0.015096  0.093168  0.000098      2.000000
  0.000136  0.108718  0.000136      2.000000
  0.015349  0.108737  0.000155      2.000000
  0.030561  0.108756  0.000175      2.000000
  0.045774  0.108775  0.000194      2.000000
  0.060986  0.108794  0.000213      2.000000
  0.076199  0.108813  0.000232      2.000000
  0.091411  0.108832  0.000251      2.000000
  0.106624  0.108851  0.000270      2.000000
 -0.106352  0.108584  0.000003      2.000000
 -0.091139  0.108603  0.000022      2.000000
 -0.075927  0.108622  0.000041      2.000000
 -0.060714  0.108641  0.000060      2.000000
 -0.045502  0.108661  0.000079      2.000000
 -0.030289  0.108680  0.000098      2.000000
 -0.015076  0.108699  0.000117      2.000000
 


--------------------------------------------------------------------------------------------------------




 Dimension of arrays:
   k-points           NKPTS =    113   k-points in BZ     NKDIM =    113   number of bands    NBANDS=     14
   number of dos      NEDOS =    301   number of ions     NIONS =      4
   non local maximal  LDIM  =      5   non local SUM 2l+1 LMDIM =     13
   total plane-waves  NPLWV = 207360
   max r-space proj   IRMAX =      1   max aug-charges    IRDMAX=  53380
   dimension x,y,z NGX =    36 NGY =   36 NGZ =  160
   dimension x,y,z NGXF=    72 NGYF=   72 NGZF=  320
   support grid    NGXF=    72 NGYF=   72 NGZF=  320
   ions per type =               2   2
   NGX,Y,Z   is equivalent  to a cutoff of  13.66, 13.94, 13.33 a.u.
   NGXF,Y,Z  is equivalent  to a cutoff of  27.31, 27.89, 26.67 a.u.

 SYSTEM =  SnSe                                    
 POSCAR =   POSCAR with strain of -0.003           

 Startparameter for this run:
   NWRITE =      2    write-flag & timer
   PREC   = accura    normal or accurate (medium, high low for compatibility)
   ISTART =      0    job   : 0-new  1-cont  2-samecut
   ICHARG =      2    charge: 1-file 2-atom 10-const
   ISPIN  =      1    spin polarized calculation?
   LNONCOLLINEAR =      F non collinear calculations
   LSORBIT =      F    spin-orbit coupling
   INIWAV =      1    electr: 0-lowe 1-rand  2-diag
   LASPH  =      F    aspherical Exc in radial PAW
   METAGGA=      F    non-selfconsistent MetaGGA calc.

 Electronic Relaxation 1
   ENCUT  =  600.0 eV  44.10 Ry    6.64 a.u.   8.75  8.57 39.85*2*pi/ulx,y,z
   ENINI  =  600.0     initial cutoff
   ENAUG  =  446.8 eV  augmentation charge cutoff
   NELM   =     60;   NELMIN=  2; NELMDL= -5     # of ELM steps 
   EDIFF  = 0.1E-05   stopping-criterion for ELM
   LREAL  =      F    real-space projection
   NLSPLINE    = F    spline interpolate recip. space projectors
   LCOMPAT=      F    compatible to vasp.4.4
   GGA_COMPAT  = T    GGA compatible to vasp.4.4-vasp.4.6
   LMAXPAW     = -100 max onsite density
   LMAXMIX     =    2 max onsite mixed and CHGCAR
   VOSKOWN=      0    Vosko Wilk Nusair interpolation
   ROPT   =    0.00000   0.00000
 Ionic relaxation
   EDIFFG = -.1E-02   stopping-criterion for IOM
   NSW    =    100    number of steps for IOM
   NBLOCK =      1;   KBLOCK =    100    inner block; outer block 
   IBRION =      2    ionic relax: 0-MD 1-quasi-New 2-CG
   NFREE  =      1    steps in history (QN), initial steepest desc. (CG)
   ISIF   =      2    stress and relaxation
   IWAVPR =     11    prediction:  0-non 1-charg 2-wave 3-comb
   ISYM   =      0    0-nonsym 1-usesym 2-fastsym
   LCORR  =      T    Harris-Foulkes like correction to forces

   POTIM  = 0.5000    time-step for ionic-motion
   TEIN   =    0.0    initial temperature
   TEBEG  =    0.0;   TEEND  =   0.0 temperature during run
   SMASS  =  -3.00    Nose mass-parameter (am)
   estimated Nose-frequenzy (Omega)   =  0.10E-29 period in steps =****** mass=  -0.439E-27a.u.
   SCALEE = 1.0000    scale energy and forces
   NPACO  =    256;   APACO  = 16.0  distance and # of slots for P.C.
   PSTRESS=    0.0 pullay stress

  Mass of Ions in am
   POMASS = 118.71 78.96
  Ionic Valenz
   ZVAL   =   4.00  6.00
  Atomic Wigner-Seitz radii
   RWIGS  =  -1.00 -1.00
  virtual crystal weights 
   VCA    =   1.00  1.00
   NELECT =      20.0000    total number of electrons
   NUPDOWN=      -1.0000    fix difference up-down

 DOS related values:
   EMIN   =  10.00;   EMAX   =-10.00  energy-range for DOS
   EFERMI =   0.00
   ISMEAR =     0;   SIGMA  =   0.10  broadening in eV -4-tet -1-fermi 0-gaus

 Electronic relaxation 2 (details)
   IALGO  =     38    algorithm
   LDIAG  =      T    sub-space diagonalisation (order eigenvalues)
   LSUBROT=      F    optimize rotation matrix (better conditioning)
   TURBO    =      0    0=normal 1=particle mesh
   IRESTART =      0    0=no restart 2=restart with 2 vectors
   NREBOOT  =      0    no. of reboots
   NMIN     =      0    reboot dimension
   EREF     =   0.00    reference energy to select bands
   IMIX   =      4    mixing-type and parameters
     AMIX     =   0.40;   BMIX     =  1.00
     AMIX_MAG =   1.60;   BMIX_MAG =  1.00
     AMIN     =   0.10
     WC   =   100.;   INIMIX=   1;  MIXPRE=   1;  MAXMIX= -45

 Intra band minimization:
   WEIMIN = 0.0010     energy-eigenvalue tresh-hold
   EBREAK =  0.18E-07  absolut break condition
   DEPER  =   0.30     relativ break condition  

   TIME   =   0.40     timestep for ELM

  volume/ion in A,a.u.               =      93.82       633.13
  Fermi-wavevector in a.u.,A,eV,Ry     =   0.616074  1.164210  5.164046  0.379547
  Thomas-Fermi vector in A             =   1.673671
 
 Write flags
   LWAVE        =      T    write WAVECAR
   LDOWNSAMPLE  =      F    k-point downsampling of WAVECAR
   LCHARG       =      T    write CHGCAR
   LVTOT        =      F    write LOCPOT, total local potential
   LVHAR        =      F    write LOCPOT, Hartree potential only
   LELF         =      F    write electronic localiz. function (ELF)
   LORBIT       =      0    0 simple, 1 ext, 2 COOP (PROOUT), +10 PAW based schemes


 Dipole corrections
   LMONO  =      F    monopole corrections only (constant potential shift)
   LDIPOL =      F    correct potential (dipole corrections)
   IDIPOL =      0    1-x, 2-y, 3-z, 4-all directions 
   EPSILON=  1.0000000 bulk dielectric constant

 Exchange correlation treatment:
   GGA     =    PE    GGA type
   LEXCH   =     8    internal setting for exchange type
   VOSKOWN=      0    Vosko Wilk Nusair interpolation
   LHFCALC =     F    Hartree Fock is set to
   LHFONE  =     F    Hartree Fock one center treatment
   AEXX    =    0.0000 exact exchange contribution

 Linear response parameters
   LEPSILON=     F    determine dielectric tensor
   LRPA    =     F    only Hartree local field effects (RPA)
   LNABLA  =     F    use nabla operator in PAW spheres
   LVEL    =     F    velocity operator in full k-point grid
   LINTERFAST=   F  fast interpolation
   KINTER  =     0    interpolate to denser k-point grid
   CSHIFT  =0.1000    complex shift for real part using Kramers Kronig
   OMEGAMAX=  -1.0    maximum frequency
   DEG_THRESHOLD= 0.2000000E-02 threshold for treating states as degnerate
   RTIME   =   -0.100 relaxation time in fs
  (WPLASMAI=    0.000 imaginary part of plasma frequency in eV, 0.658/RTIME)
   DFIELD  = 0.0000000 0.0000000 0.0000000 field for delta impulse in time
 
 Orbital magnetization related:
   ORBITALMAG=     F  switch on orbital magnetization
   LCHIMAG   =     F  perturbation theory with respect to B field
   DQ        =  0.001000  dq finite difference perturbation B field
   LLRAUG    =     F  two centre corrections for induced B field



--------------------------------------------------------------------------------------------------------


 conjugate gradient relaxation of ions
 charge density and potential will be updated during run
 non-spin polarized calculation
 Variant of blocked Davidson
 Davidson routine will perform the subspace rotation
 perform sub-space diagonalisation
    after iterative eigenvector-optimisation
 modified Broyden-mixing scheme, WC =      100.0
 initial mixing is a Kerker type mixing with AMIX =  0.4000 and BMIX =      1.0000
 Hartree-type preconditioning will be used
 using additional bands            4
 reciprocal scheme for non local part
 use partial core corrections
 calculate Harris-corrections to forces 
   (improved forces if not selfconsistent)
 use gradient corrections 
 use of overlap-Matrix (Vanderbilt PP)
 Gauss-broadening in eV      SIGMA  =   0.10


--------------------------------------------------------------------------------------------------------


  energy-cutoff  :      600.00
  volume of cell :      375.28
      direct lattice vectors                 reciprocal lattice vectors
     4.382356765 -0.005477946 -0.005477946     0.228188435  0.000285593  0.000286308
    -0.005365597  4.292477857 -0.005365597     0.000291573  0.232966405  0.000292303
    -0.025000000 -0.025000000 19.950000000     0.000062735  0.000062735  0.050125471

  length of vectors
     4.382363612  4.292484564 19.950031328     0.228188794  0.232966770  0.050125549


 
 k-points in units of 2pi/SCALE and weight: KMesh Grid                              
   0.00000000  0.00000000  0.00000000       0.004
   0.01521256  0.00001904  0.00001909       0.009
   0.03042512  0.00003808  0.00003817       0.009
   0.04563769  0.00005712  0.00005726       0.009
   0.06085025  0.00007616  0.00007635       0.009
   0.07606281  0.00009520  0.00009544       0.009
   0.09127537  0.00011424  0.00011452       0.009
   0.10648794  0.00013328  0.00013361       0.009
   0.00001944  0.01553109  0.00001949       0.009
   0.01523200  0.01555013  0.00003857       0.009
   0.03044456  0.01556917  0.00005766       0.009
   0.04565713  0.01558821  0.00007675       0.009
   0.06086969  0.01560725  0.00009584       0.009
   0.07608225  0.01562629  0.00011492       0.009
   0.09129481  0.01564533  0.00013401       0.009
   0.10650737  0.01566437  0.00015310       0.009
  -0.10646850  0.01539782 -0.00011412       0.009
  -0.09125594  0.01541686 -0.00009504       0.009
  -0.07604337  0.01543590 -0.00007595       0.009
  -0.06083081  0.01545494 -0.00005686       0.009
  -0.04561825  0.01547397 -0.00003777       0.009
  -0.03040569  0.01549301 -0.00001869       0.009
  -0.01519312  0.01551205  0.00000040       0.009
   0.00003888  0.03106219  0.00003897       0.009
   0.01525144  0.03108123  0.00005806       0.009
   0.03046400  0.03110027  0.00007715       0.009
   0.04567656  0.03111931  0.00009624       0.009
   0.06088913  0.03113835  0.00011532       0.009
   0.07610169  0.03115739  0.00013441       0.009
   0.09131425  0.03117642  0.00015350       0.009
   0.10652681  0.03119546  0.00017258       0.009
  -0.10644906  0.03092891 -0.00009464       0.009
  -0.09123650  0.03094795 -0.00007555       0.009
  -0.07602394  0.03096699 -0.00005646       0.009
  -0.06081137  0.03098603 -0.00003738       0.009
  -0.04559881  0.03100507 -0.00001829       0.009
  -0.03038625  0.03102411  0.00000080       0.009
  -0.01517369  0.03104315  0.00001989       0.009
   0.00005831  0.04659328  0.00005846       0.009
   0.01527088  0.04661232  0.00007755       0.009
   0.03048344  0.04663136  0.00009664       0.009
   0.04569600  0.04665040  0.00011572       0.009
   0.06090856  0.04666944  0.00013481       0.009
   0.07612113  0.04668848  0.00015390       0.009
   0.09133369  0.04670752  0.00017298       0.009
   0.10654625  0.04672656  0.00019207       0.009
  -0.10642962  0.04646000 -0.00007515       0.009
  -0.09121706  0.04647904 -0.00005606       0.009
  -0.07600450  0.04649808 -0.00003698       0.009
  -0.06079193  0.04651712 -0.00001789       0.009
  -0.04557937  0.04653616  0.00000120       0.009
  -0.03036681  0.04655520  0.00002029       0.009
  -0.01515425  0.04657424  0.00003937       0.009
   0.00007775  0.06212437  0.00007795       0.009
   0.01529032  0.06214341  0.00009703       0.009
   0.03050288  0.06216245  0.00011612       0.009
   0.04571544  0.06218149  0.00013521       0.009
   0.06092800  0.06220053  0.00015430       0.009
   0.07614056  0.06221957  0.00017338       0.009
   0.09135313  0.06223861  0.00019247       0.009
   0.10656569  0.06225765  0.00021156       0.009
  -0.10641018  0.06199110 -0.00005566       0.009
  -0.09119762  0.06201014 -0.00003658       0.009
  -0.07598506  0.06202918 -0.00001749       0.009
  -0.06077250  0.06204822  0.00000160       0.009
  -0.04555993  0.06206726  0.00002069       0.009
  -0.03034737  0.06208630  0.00003977       0.009
  -0.01513481  0.06210533  0.00005886       0.009
   0.00009719  0.07765547  0.00009743       0.009
   0.01530975  0.07767451  0.00011652       0.009
   0.03052232  0.07769355  0.00013561       0.009
   0.04573488  0.07771259  0.00015470       0.009
   0.06094744  0.07773163  0.00017378       0.009
   0.07616000  0.07775067  0.00019287       0.009
   0.09137257  0.07776971  0.00021196       0.009
   0.10658513  0.07778875  0.00023104       0.009
  -0.10639075  0.07752219 -0.00003618       0.009
  -0.09117818  0.07754123 -0.00001709       0.009
  -0.07596562  0.07756027  0.00000200       0.009
  -0.06075306  0.07757931  0.00002109       0.009
  -0.04554050  0.07759835  0.00004017       0.009
  -0.03032793  0.07761739  0.00005926       0.009
  -0.01511537  0.07763643  0.00007835       0.009
   0.00011663  0.09318656  0.00011692       0.009
   0.01532919  0.09320560  0.00013601       0.009
   0.03054175  0.09322464  0.00015510       0.009
   0.04575432  0.09324368  0.00017418       0.009
   0.06096688  0.09326272  0.00019327       0.009
   0.07617944  0.09328176  0.00021236       0.009
   0.09139200  0.09330080  0.00023144       0.009
   0.10660457  0.09331984  0.00025053       0.009
  -0.10637131  0.09305328 -0.00001669       0.009
  -0.09115874  0.09307232  0.00000240       0.009
  -0.07594618  0.09309136  0.00002149       0.009
  -0.06073362  0.09311040  0.00004057       0.009
  -0.04552106  0.09312944  0.00005966       0.009
  -0.03030850  0.09314848  0.00007875       0.009
  -0.01509593  0.09316752  0.00009783       0.009
   0.00013607  0.10871766  0.00013641       0.009
   0.01534863  0.10873670  0.00015550       0.009
   0.03056119  0.10875573  0.00017458       0.009
   0.04577375  0.10877477  0.00019367       0.009
   0.06098632  0.10879381  0.00021276       0.009
   0.07619888  0.10881285  0.00023184       0.009
   0.09141144  0.10883189  0.00025093       0.009
   0.10662400  0.10885093  0.00027002       0.009
  -0.10635187  0.10858438  0.00000280       0.009
  -0.09113931  0.10860342  0.00002188       0.009
  -0.07592674  0.10862246  0.00004097       0.009
  -0.06071418  0.10864150  0.00006006       0.009
  -0.04550162  0.10866054  0.00007915       0.009
  -0.03028906  0.10867958  0.00009823       0.009
  -0.01507649  0.10869862  0.00011732       0.009
 
 k-points in reciprocal lattice and weights: KMesh Grid                              
   0.00000000  0.00000000  0.00000000       0.004
   0.06666667  0.00000000 -0.00000000       0.009
   0.13333333  0.00000000 -0.00000000       0.009
   0.20000000 -0.00000000 -0.00000000       0.009
   0.26666667  0.00000000 -0.00000000       0.009
   0.33333333 -0.00000000 -0.00000000       0.009
   0.40000000 -0.00000000 -0.00000000       0.009
   0.46666667 -0.00000000 -0.00000000       0.009
   0.00000000  0.06666667 -0.00000000       0.009
   0.06666667  0.06666667 -0.00000000       0.009
   0.13333333  0.06666667 -0.00000000       0.009
   0.20000000  0.06666667 -0.00000000       0.009
   0.26666667  0.06666667  0.00000000       0.009
   0.33333333  0.06666667 -0.00000000       0.009
   0.40000000  0.06666667 -0.00000000       0.009
   0.46666667  0.06666667  0.00000000       0.009
  -0.46666667  0.06666667  0.00000000       0.009
  -0.40000000  0.06666667  0.00000000       0.009
  -0.33333333  0.06666667  0.00000000       0.009
  -0.26666667  0.06666667  0.00000000       0.009
  -0.20000000  0.06666667  0.00000000       0.009
  -0.13333333  0.06666667  0.00000000       0.009
  -0.06666667  0.06666667  0.00000000       0.009
  -0.00000000  0.13333333 -0.00000000       0.009
   0.06666667  0.13333333 -0.00000000       0.009
   0.13333333  0.13333333 -0.00000000       0.009
   0.20000000  0.13333333 -0.00000000       0.009
   0.26666667  0.13333333 -0.00000000       0.009
   0.33333333  0.13333333 -0.00000000       0.009
   0.40000000  0.13333333 -0.00000000       0.009
   0.46666667  0.13333333 -0.00000000       0.009
  -0.46666667  0.13333333  0.00000000       0.009
  -0.40000000  0.13333333  0.00000000       0.009
  -0.33333333  0.13333333  0.00000000       0.009
  -0.26666667  0.13333333 -0.00000000       0.009
  -0.20000000  0.13333333  0.00000000       0.009
  -0.13333333  0.13333333  0.00000000       0.009
  -0.06666667  0.13333333  0.00000000       0.009
  -0.00000000  0.20000000 -0.00000000       0.009
   0.06666667  0.20000000  0.00000000       0.009
   0.13333333  0.20000000 -0.00000000       0.009
   0.20000000  0.20000000 -0.00000000       0.009
   0.26666667  0.20000000  0.00000000       0.009
   0.33333333  0.20000000 -0.00000000       0.009
   0.40000000  0.20000000 -0.00000000       0.009
   0.46666667  0.20000000 -0.00000000       0.009
  -0.46666667  0.20000000  0.00000000       0.009
  -0.40000000  0.20000000  0.00000000       0.009
  -0.33333333  0.20000000  0.00000000       0.009
  -0.26666667  0.20000000  0.00000000       0.009
  -0.20000000  0.20000000 -0.00000000       0.009
  -0.13333333  0.20000000 -0.00000000       0.009
  -0.06666667  0.20000000 -0.00000000       0.009
  -0.00000000  0.26666667 -0.00000000       0.009
   0.06666667  0.26666667  0.00000000       0.009
   0.13333333  0.26666667  0.00000000       0.009
   0.20000000  0.26666667 -0.00000000       0.009
   0.26666667  0.26666667 -0.00000000       0.009
   0.33333333  0.26666667 -0.00000000       0.009
   0.40000000  0.26666667 -0.00000000       0.009
   0.46666667  0.26666667 -0.00000000       0.009
  -0.46666667  0.26666667 -0.00000000       0.009
  -0.40000000  0.26666667  0.00000000       0.009
  -0.33333333  0.26666667  0.00000000       0.009
  -0.26666667  0.26666667  0.00000000       0.009
  -0.20000000  0.26666667  0.00000000       0.009
  -0.13333333  0.26666667  0.00000000       0.009
  -0.06666667  0.26666667 -0.00000000       0.009
  -0.00000000  0.33333333 -0.00000000       0.009
   0.06666667  0.33333333 -0.00000000       0.009
   0.13333333  0.33333333  0.00000000       0.009
   0.20000000  0.33333333  0.00000000       0.009
   0.26666667  0.33333333 -0.00000000       0.009
   0.33333333  0.33333333 -0.00000000       0.009
   0.40000000  0.33333333 -0.00000000       0.009
   0.46666667  0.33333333 -0.00000000       0.009
  -0.46666667  0.33333333 -0.00000000       0.009
  -0.40000000  0.33333333  0.00000000       0.009
  -0.33333333  0.33333333 -0.00000000       0.009
  -0.26666667  0.33333333  0.00000000       0.009
  -0.20000000  0.33333333 -0.00000000       0.009
  -0.13333333  0.33333333 -0.00000000       0.009
  -0.06666667  0.33333333 -0.00000000       0.009
  -0.00000000  0.40000000 -0.00000000       0.009
   0.06666667  0.40000000 -0.00000000       0.009
   0.13333333  0.40000000 -0.00000000       0.009
   0.20000000  0.40000000 -0.00000000       0.009
   0.26666667  0.40000000 -0.00000000       0.009
   0.33333333  0.40000000 -0.00000000       0.009
   0.40000000  0.40000000 -0.00000000       0.009
   0.46666667  0.40000000 -0.00000000       0.009
  -0.46666667  0.40000000  0.00000000       0.009
  -0.40000000  0.40000000 -0.00000000       0.009
  -0.33333333  0.40000000 -0.00000000       0.009
  -0.26666667  0.40000000 -0.00000000       0.009
  -0.20000000  0.40000000 -0.00000000       0.009
  -0.13333333  0.40000000 -0.00000000       0.009
  -0.06666667  0.40000000 -0.00000000       0.009
   0.00000000  0.46666667  0.00000000       0.009
   0.06666667  0.46666667 -0.00000000       0.009
   0.13333333  0.46666667  0.00000000       0.009
   0.20000000  0.46666667 -0.00000000       0.009
   0.26666667  0.46666667 -0.00000000       0.009
   0.33333333  0.46666667 -0.00000000       0.009
   0.40000000  0.46666667  0.00000000       0.009
   0.46666667  0.46666667 -0.00000000       0.009
  -0.46666667  0.46666667  0.00000000       0.009
  -0.40000000  0.46666667  0.00000000       0.009
  -0.33333333  0.46666667 -0.00000000       0.009
  -0.26666667  0.46666667  0.00000000       0.009
  -0.20000000  0.46666667 -0.00000000       0.009
  -0.13333333  0.46666667 -0.00000000       0.009
  -0.06666667  0.46666667 -0.00000000       0.009
 
 position of ions in fractional coordinates (direct lattice) 
   0.58124336  0.75000000  0.56874314
   0.08124336  0.25000000  0.43125686
   0.03286064  0.25000000  0.56707387
   0.53286061  0.75000000  0.43292613
 
 position of ions in cartesian coordinates  (Angst):
   2.52897299  3.20195579 11.33921745
   0.34391456  1.06189300  8.60178788
   0.12848881  1.05876261 11.31160223
   2.32033797  3.20561626  8.62993318
 


--------------------------------------------------------------------------------------------------------


 k-point  1 :   0.0000 0.0000 0.0000  plane waves:   12599
 k-point  2 :   0.0667 0.0000-0.0000  plane waves:   12566
 k-point  3 :   0.1333 0.0000-0.0000  plane waves:   12539
 k-point  4 :   0.2000-0.0000-0.0000  plane waves:   12508
 k-point  5 :   0.2667 0.0000-0.0000  plane waves:   12512
 k-point  6 :   0.3333-0.0000-0.0000  plane waves:   12548
 k-point  7 :   0.4000-0.0000-0.0000  plane waves:   12580
 k-point  8 :   0.4667-0.0000-0.0000  plane waves:   12557
 k-point  9 :   0.0000 0.0667-0.0000  plane waves:   12569
 k-point 10 :   0.0667 0.0667-0.0000  plane waves:   12564
 k-point 11 :   0.1333 0.0667-0.0000  plane waves:   12546
 k-point 12 :   0.2000 0.0667-0.0000  plane waves:   12518
 k-point 13 :   0.2667 0.0667 0.0000  plane waves:   12531
 k-point 14 :   0.3333 0.0667-0.0000  plane waves:   12535
 k-point 15 :   0.4000 0.0667-0.0000  plane waves:   12569
 k-point 16 :   0.4667 0.0667 0.0000  plane waves:   12556
 k-point 17 :  -0.4667 0.0667 0.0000  plane waves:   12556
 k-point 18 :  -0.4000 0.0667 0.0000  plane waves:   12560
 k-point 19 :  -0.3333 0.0667 0.0000  plane waves:   12549
 k-point 20 :  -0.2667 0.0667 0.0000  plane waves:   12527
 k-point 21 :  -0.2000 0.0667 0.0000  plane waves:   12524
 k-point 22 :  -0.1333 0.0667 0.0000  plane waves:   12534
 k-point 23 :  -0.0667 0.0667 0.0000  plane waves:   12558
 k-point 24 :  -0.0000 0.1333-0.0000  plane waves:   12548
 k-point 25 :   0.0667 0.1333-0.0000  plane waves:   12550
 k-point 26 :   0.1333 0.1333-0.0000  plane waves:   12531
 k-point 27 :   0.2000 0.1333-0.0000  plane waves:   12523
 k-point 28 :   0.2667 0.1333-0.0000  plane waves:   12518
 k-point 29 :   0.3333 0.1333-0.0000  plane waves:   12545
 k-point 30 :   0.4000 0.1333-0.0000  plane waves:   12540
 k-point 31 :   0.4667 0.1333-0.0000  plane waves:   12535
 k-point 32 :  -0.4667 0.1333 0.0000  plane waves:   12539
 k-point 33 :  -0.4000 0.1333 0.0000  plane waves:   12541
 k-point 34 :  -0.3333 0.1333 0.0000  plane waves:   12543
 k-point 35 :  -0.2667 0.1333-0.0000  plane waves:   12517
 k-point 36 :  -0.2000 0.1333 0.0000  plane waves:   12509
 k-point 37 :  -0.1333 0.1333 0.0000  plane waves:   12526
 k-point 38 :  -0.0667 0.1333 0.0000  plane waves:   12547
 k-point 39 :  -0.0000 0.2000-0.0000  plane waves:   12531
 k-point 40 :   0.0667 0.2000 0.0000  plane waves:   12534
 k-point 41 :   0.1333 0.2000-0.0000  plane waves:   12537
 k-point 42 :   0.2000 0.2000-0.0000  plane waves:   12535
 k-point 43 :   0.2667 0.2000 0.0000  plane waves:   12526
 k-point 44 :   0.3333 0.2000-0.0000  plane waves:   12523
 k-point 45 :   0.4000 0.2000-0.0000  plane waves:   12535
 k-point 46 :   0.4667 0.2000-0.0000  plane waves:   12548
 k-point 47 :  -0.4667 0.2000 0.0000  plane waves:   12535
 k-point 48 :  -0.4000 0.2000 0.0000  plane waves:   12526
 k-point 49 :  -0.3333 0.2000 0.0000  plane waves:   12526
 k-point 50 :  -0.2667 0.2000 0.0000  plane waves:   12512
 k-point 51 :  -0.2000 0.2000-0.0000  plane waves:   12524
 k-point 52 :  -0.1333 0.2000-0.0000  plane waves:   12534
 k-point 53 :  -0.0667 0.2000-0.0000  plane waves:   12532
 k-point 54 :  -0.0000 0.2667-0.0000  plane waves:   12531
 k-point 55 :   0.0667 0.2667 0.0000  plane waves:   12536
 k-point 56 :   0.1333 0.2667 0.0000  plane waves:   12537
 k-point 57 :   0.2000 0.2667-0.0000  plane waves:   12518
 k-point 58 :   0.2667 0.2667-0.0000  plane waves:   12523
 k-point 59 :   0.3333 0.2667-0.0000  plane waves:   12517
 k-point 60 :   0.4000 0.2667-0.0000  plane waves:   12529
 k-point 61 :   0.4667 0.2667-0.0000  plane waves:   12533
 k-point 62 :  -0.4667 0.2667-0.0000  plane waves:   12533
 k-point 63 :  -0.4000 0.2667 0.0000  plane waves:   12524
 k-point 64 :  -0.3333 0.2667 0.0000  plane waves:   12521
 k-point 65 :  -0.2667 0.2667 0.0000  plane waves:   12522
 k-point 66 :  -0.2000 0.2667 0.0000  plane waves:   12523
 k-point 67 :  -0.1333 0.2667 0.0000  plane waves:   12533
 k-point 68 :  -0.0667 0.2667-0.0000  plane waves:   12534
 k-point 69 :  -0.0000 0.3333-0.0000  plane waves:   12511
 k-point 70 :   0.0667 0.3333-0.0000  plane waves:   12504
 k-point 71 :   0.1333 0.3333 0.0000  plane waves:   12520
 k-point 72 :   0.2000 0.3333 0.0000  plane waves:   12515
 k-point 73 :   0.2667 0.3333-0.0000  plane waves:   12509
 k-point 74 :   0.3333 0.3333-0.0000  plane waves:   12510
 k-point 75 :   0.4000 0.3333-0.0000  plane waves:   12519
 k-point 76 :   0.4667 0.3333-0.0000  plane waves:   12528
 k-point 77 :  -0.4667 0.3333-0.0000  plane waves:   12525
 k-point 78 :  -0.4000 0.3333 0.0000  plane waves:   12526
 k-point 79 :  -0.3333 0.3333-0.0000  plane waves:   12509
 k-point 80 :  -0.2667 0.3333 0.0000  plane waves:   12501
 k-point 81 :  -0.2000 0.3333-0.0000  plane waves:   12510
 k-point 82 :  -0.1333 0.3333-0.0000  plane waves:   12517
 k-point 83 :  -0.0667 0.3333-0.0000  plane waves:   12503
 k-point 84 :  -0.0000 0.4000-0.0000  plane waves:   12480
 k-point 85 :   0.0667 0.4000-0.0000  plane waves:   12490
 k-point 86 :   0.1333 0.4000-0.0000  plane waves:   12510
 k-point 87 :   0.2000 0.4000-0.0000  plane waves:   12505
 k-point 88 :   0.2667 0.4000-0.0000  plane waves:   12509
 k-point 89 :   0.3333 0.4000-0.0000  plane waves:   12509
 k-point 90 :   0.4000 0.4000-0.0000  plane waves:   12500
 k-point 91 :   0.4667 0.4000-0.0000  plane waves:   12515
 k-point 92 :  -0.4667 0.4000 0.0000  plane waves:   12518
 k-point 93 :  -0.4000 0.4000-0.0000  plane waves:   12517
 k-point 94 :  -0.3333 0.4000-0.0000  plane waves:   12503
 k-point 95 :  -0.2667 0.4000-0.0000  plane waves:   12505
 k-point 96 :  -0.2000 0.4000-0.0000  plane waves:   12507
 k-point 97 :  -0.1333 0.4000-0.0000  plane waves:   12504
 k-point 98 :  -0.0667 0.4000-0.0000  plane waves:   12499
 k-point 99 :   0.0000 0.4667 0.0000  plane waves:   12494
 k-point ** :   0.0667 0.4667-0.0000  plane waves:   12506
 k-point ** :   0.1333 0.4667 0.0000  plane waves:   12502
 k-point ** :   0.2000 0.4667-0.0000  plane waves:   12483
 k-point ** :   0.2667 0.4667-0.0000  plane waves:   12495
 k-point ** :   0.3333 0.4667-0.0000  plane waves:   12496
 k-point ** :   0.4000 0.4667 0.0000  plane waves:   12509
 k-point ** :   0.4667 0.4667-0.0000  plane waves:   12499
 k-point ** :  -0.4667 0.4667 0.0000  plane waves:   12503
 k-point ** :  -0.4000 0.4667 0.0000  plane waves:   12503
 k-point ** :  -0.3333 0.4667-0.0000  plane waves:   12502
 k-point ** :  -0.2667 0.4667 0.0000  plane waves:   12484
 k-point ** :  -0.2000 0.4667-0.0000  plane waves:   12504
 k-point ** :  -0.1333 0.4667-0.0000  plane waves:   12495
 k-point ** :  -0.0667 0.4667-0.0000  plane waves:   12506

 maximum and minimum number of plane-waves per node :       544      487

 maximum number of plane-waves:     12599
 maximum index in each direction: 
   IXMAX=    9   IYMAX=    8   IZMAX=   39
   IXMIN=   -9   IYMIN=   -9   IZMIN=  -39


 parallel 3D FFT for wavefunctions:
    minimum data exchange during FFTs selected (reduces bandwidth)
 parallel 3D FFT for charge:
    minimum data exchange during FFTs selected (reduces bandwidth)


 total amount of memory used by VASP MPI-rank0    63318. kBytes
=======================================================================

   base      :      30000. kBytes
   nonl-proj :      12514. kBytes
   fftplans  :       2678. kBytes
   grid      :       4349. kBytes
   one-center:          8. kBytes
   wavefun   :      13769. kBytes
 
     INWAV:  cpu time    0.0000: real time    0.0000
 Broyden mixing: mesh for mixing (old mesh)
   NGX = 17   NGY = 17   NGZ = 79
  (NGX  = 72   NGY  = 72   NGZ  =320)
  gives a total of  22831 points

 initial charge density was supplied:
 charge density of overlapping atoms calculated
 number of electron      20.0000000 magnetization 
 keeping initial charge density in first step


--------------------------------------------------------------------------------------------------------


 Maximum index for augmentation-charges         2234 (set IRDMAX)


--------------------------------------------------------------------------------------------------------


 First call to EWALD:  gamma=   0.246
 Maximum number of real-space cells 4x 4x 1
 Maximum number of reciprocal cells 2x 2x 7

    FEWALD:  cpu time    0.0011: real time    0.0023


--------------------------------------- Iteration      1(   1)  ---------------------------------------


    POTLOK:  cpu time    0.0569: real time    0.2165
    SETDIJ:  cpu time    0.0039: real time    0.0039
     EDDAV:  cpu time    1.9981: real time    2.0121
       DOS:  cpu time    0.0044: real time    0.0045
    --------------------------------------------
      LOOP:  cpu time    2.0632: real time    2.2370

 eigenvalue-minimisations  :  3164
 total energy-change (2. order) : 0.1435319E+03  (-0.6287871E+03)
 number of electron      20.0000000 magnetization 
 augmentation part       20.0000000 magnetization 

 Free energy of the ion-electron system (eV)
  ---------------------------------------------------
  alpha Z        PSCENC =         9.52808241
  Ewald energy   TEWEN  =      1147.55010929
  -Hartree energ DENC   =     -1749.50103622
  -exchange      EXHF   =         0.00000000
  -V(xc)+E(xc)   XCENC  =      -238.57664455
  PAW double counting   =       799.43158084     -524.17639913
  entropy T*S    EENTRO =        -0.01064510
  eigenvalues    EBANDS =        -3.14107089
  atomic energy  EATOM  =       702.42789710
  Solvation  Ediel_sol  =         0.00000000
  ---------------------------------------------------
  free energy    TOTEN  =       143.53187375 eV

  energy without entropy =      143.54251886  energy(sigma->0) =      143.53719630


--------------------------------------------------------------------------------------------------------




--------------------------------------- Iteration      1(   2)  ---------------------------------------


     EDDAV:  cpu time    2.8690: real time    2.8729
       DOS:  cpu time    0.0043: real time    0.0043
    --------------------------------------------
      LOOP:  cpu time    2.8733: real time    2.8772

 eigenvalue-minimisations  :  5180
 total energy-change (2. order) :-0.1389712E+03  (-0.1347206E+03)
 number of electron      20.0000000 magnetization 
 augmentation part       20.0000000 magnetization 

 Free energy of the ion-electron system (eV)
  ---------------------------------------------------
  alpha Z        PSCENC =         9.52808241
  Ewald energy   TEWEN  =      1147.55010929
  -Hartree energ DENC   =     -1749.50103622
  -exchange      EXHF   =         0.00000000
  -V(xc)+E(xc)   XCENC  =      -238.57664455
  PAW double counting   =       799.43158084     -524.17639913
  entropy T*S    EENTRO =        -0.00202725
  eigenvalues    EBANDS =      -142.12090050
  atomic energy  EATOM  =       702.42789710
  Solvation  Ediel_sol  =         0.00000000
  ---------------------------------------------------
  free energy    TOTEN  =         4.56066200 eV

  energy without entropy =        4.56268925  energy(sigma->0) =        4.56167563


--------------------------------------------------------------------------------------------------------




--------------------------------------- Iteration      1(   3)  ---------------------------------------


     EDDAV:  cpu time    2.2738: real time    2.2768
       DOS:  cpu time    0.0030: real time    0.0031
    --------------------------------------------
      LOOP:  cpu time    2.2768: real time    2.2798

 eigenvalue-minimisations  :  3950
 total energy-change (2. order) :-0.2052220E+02  (-0.2032216E+02)
 number of electron      20.0000000 magnetization 
 augmentation part       20.0000000 magnetization 

 Free energy of the ion-electron system (eV)
  ---------------------------------------------------
  alpha Z        PSCENC =         9.52808241
  Ewald energy   TEWEN  =      1147.55010929
  -Hartree energ DENC   =     -1749.50103622
  -exchange      EXHF   =         0.00000000
  -V(xc)+E(xc)   XCENC  =      -238.57664455
  PAW double counting   =       799.43158084     -524.17639913
  entropy T*S    EENTRO =        -0.00000000
  eigenvalues    EBANDS =      -162.64512503
  atomic energy  EATOM  =       702.42789710
  Solvation  Ediel_sol  =         0.00000000
  ---------------------------------------------------
  free energy    TOTEN  =       -15.96153529 eV

  energy without entropy =      -15.96153529  energy(sigma->0) =      -15.96153529


--------------------------------------------------------------------------------------------------------




--------------------------------------- Iteration      1(   4)  ---------------------------------------


     EDDAV:  cpu time    2.4871: real time    2.4903
       DOS:  cpu time    0.0030: real time    0.0030
    --------------------------------------------
      LOOP:  cpu time    2.4901: real time    2.4933

 eigenvalue-minimisations  :  4446
 total energy-change (2. order) :-0.8117964E+00  (-0.8091730E+00)
 number of electron      20.0000000 magnetization 
 augmentation part       20.0000000 magnetization 

 Free energy of the ion-electron system (eV)
  ---------------------------------------------------
  alpha Z        PSCENC =         9.52808241
  Ewald energy   TEWEN  =      1147.55010929
  -Hartree energ DENC   =     -1749.50103622
  -exchange      EXHF   =         0.00000000
  -V(xc)+E(xc)   XCENC  =      -238.57664455
  PAW double counting   =       799.43158084     -524.17639913
  entropy T*S    EENTRO =        -0.00000000
  eigenvalues    EBANDS =      -163.45692142
  atomic energy  EATOM  =       702.42789710
  Solvation  Ediel_sol  =         0.00000000
  ---------------------------------------------------
  free energy    TOTEN  =       -16.77333167 eV

  energy without entropy =      -16.77333167  energy(sigma->0) =      -16.77333167


--------------------------------------------------------------------------------------------------------




--------------------------------------- Iteration      1(   5)  ---------------------------------------


     EDDAV:  cpu time    2.3524: real time    2.3553
       DOS:  cpu time    0.0030: real time    0.0030
    CHARGE:  cpu time    0.1667: real time    0.1669
    MIXING:  cpu time    0.0031: real time    0.0031
    --------------------------------------------
      LOOP:  cpu time    2.5252: real time    2.5283

 eigenvalue-minimisations  :  4142
 total energy-change (2. order) :-0.2004103E-01  (-0.2002388E-01)
 number of electron      20.0000000 magnetization 
 augmentation part       -4.5234744 magnetization 

 Broyden mixing:
  rms(total) = 0.45276E+00    rms(broyden)= 0.45276E+00
  rms(prec ) = 0.49315E+00
  weight for this iteration     100.00

 Free energy of the ion-electron system (eV)
  ---------------------------------------------------
  alpha Z        PSCENC =         9.52808241
  Ewald energy   TEWEN  =      1147.55010929
  -Hartree energ DENC   =     -1749.50103622
  -exchange      EXHF   =         0.00000000
  -V(xc)+E(xc)   XCENC  =      -238.57664455
  PAW double counting   =       799.43158084     -524.17639913
  entropy T*S    EENTRO =        -0.00000000
  eigenvalues    EBANDS =      -163.47696245
  atomic energy  EATOM  =       702.42789710
  Solvation  Ediel_sol  =         0.00000000
  ---------------------------------------------------
  free energy    TOTEN  =       -16.79337271 eV

  energy without entropy =      -16.79337271  energy(sigma->0) =      -16.79337271


--------------------------------------------------------------------------------------------------------




--------------------------------------- Iteration      1(   6)  ---------------------------------------


    POTLOK:  cpu time    0.0336: real time    0.0337
    SETDIJ:  cpu time    0.0029: real time    0.0029
     EDDAV:  cpu time    2.2416: real time    2.2444
       DOS:  cpu time    0.0031: real time    0.0031
    CHARGE:  cpu time    0.1672: real time    0.1673
    MIXING:  cpu time    0.0031: real time    0.0031
    --------------------------------------------
      LOOP:  cpu time    2.4515: real time    2.4544

 eigenvalue-minimisations  :  3892
 total energy-change (2. order) : 0.4880792E+00  (-0.1227853E+00)
 number of electron      20.0000000 magnetization 
 augmentation part       -4.4910774 magnetization 

 Broyden mixing:
  rms(total) = 0.27808E+00    rms(broyden)= 0.27808E+00
  rms(prec ) = 0.28728E+00
  weight for this iteration     100.00

 eigenvalues of (default mixing * dielectric matrix)
  average eigenvalue GAMMA=   1.8143
  1.8143

 Free energy of the ion-electron system (eV)
  ---------------------------------------------------
  alpha Z        PSCENC =         9.52808241
  Ewald energy   TEWEN  =      1147.55010929
  -Hartree energ DENC   =     -1757.35536135
  -exchange      EXHF   =         0.00000000
  -V(xc)+E(xc)   XCENC  =      -238.09369584
  PAW double counting   =       924.91818169     -649.84665896
  entropy T*S    EENTRO =        -0.00000000
  eigenvalues    EBANDS =      -155.43384780
  atomic energy  EATOM  =       702.42789710
  Solvation  Ediel_sol  =         0.00000000
  ---------------------------------------------------
  free energy    TOTEN  =       -16.30529346 eV

  energy without entropy =      -16.30529346  energy(sigma->0) =      -16.30529346


--------------------------------------------------------------------------------------------------------




--------------------------------------- Iteration      1(   7)  ---------------------------------------


    POTLOK:  cpu time    0.0334: real time    0.0335
    SETDIJ:  cpu time    0.0028: real time    0.0028
     EDDAV:  cpu time    2.3574: real time    2.3601
       DOS:  cpu time    0.0031: real time    0.0031
    CHARGE:  cpu time    0.1681: real time    0.1685
    MIXING:  cpu time    0.0013: real time    0.0013
    --------------------------------------------
      LOOP:  cpu time    2.5661: real time    2.5694

 eigenvalue-minimisations  :  4108
 total energy-change (2. order) : 0.2749021E-01  (-0.3225272E-01)
 number of electron      20.0000000 magnetization 
 augmentation part       -4.4824149 magnetization 

 Broyden mixing:
  rms(total) = 0.10436E+00    rms(broyden)= 0.10436E+00
  rms(prec ) = 0.10981E+00
  weight for this iteration     100.00

 eigenvalues of (default mixing * dielectric matrix)
  average eigenvalue GAMMA=   1.7313
  1.3795  2.0832

 Free energy of the ion-electron system (eV)
  ---------------------------------------------------
  alpha Z        PSCENC =         9.52808241
  Ewald energy   TEWEN  =      1147.55010929
  -Hartree energ DENC   =     -1762.42831248
  -exchange      EXHF   =         0.00000000
  -V(xc)+E(xc)   XCENC  =      -237.76486585
  PAW double counting   =      1067.79810857     -792.86841908
  entropy T*S    EENTRO =        -0.00000000
  eigenvalues    EBANDS =      -150.52040321
  atomic energy  EATOM  =       702.42789710
  Solvation  Ediel_sol  =         0.00000000
  ---------------------------------------------------
  free energy    TOTEN  =       -16.27780325 eV

  energy without entropy =      -16.27780325  energy(sigma->0) =      -16.27780325


--------------------------------------------------------------------------------------------------------




--------------------------------------- Iteration      1(   8)  ---------------------------------------


    POTLOK:  cpu time    0.0339: real time    0.0340
    SETDIJ:  cpu time    0.0029: real time    0.0029
     EDDAV:  cpu time    2.4594: real time    2.4624
       DOS:  cpu time    0.0032: real time    0.0032
    CHARGE:  cpu time    0.1757: real time    0.1759
    MIXING:  cpu time    0.0013: real time    0.0013
    --------------------------------------------
      LOOP:  cpu time    2.6765: real time    2.6797

 eigenvalue-minimisations  :  4410
 total energy-change (2. order) : 0.9694015E-02  (-0.4029170E-02)
 number of electron      20.0000000 magnetization 
 augmentation part       -4.4867559 magnetization 

 Broyden mixing:
  rms(total) = 0.20702E-01    rms(broyden)= 0.20702E-01
  rms(prec ) = 0.28125E-01
  weight for this iteration     100.00

 eigenvalues of (default mixing * dielectric matrix)
  average eigenvalue GAMMA=   1.7096
  2.5344  1.2972  1.2972

 Free energy of the ion-electron system (eV)
  ---------------------------------------------------
  alpha Z        PSCENC =         9.52808241
  Ewald energy   TEWEN  =      1147.55010929
  -Hartree energ DENC   =     -1764.07289225
  -exchange      EXHF   =         0.00000000
  -V(xc)+E(xc)   XCENC  =      -237.68884021
  PAW double counting   =      1132.95320302     -858.06164221
  entropy T*S    EENTRO =        -0.00000000
  eigenvalues    EBANDS =      -148.90402639
  atomic energy  EATOM  =       702.42789710
  Solvation  Ediel_sol  =         0.00000000
  ---------------------------------------------------
  free energy    TOTEN  =       -16.26810924 eV

  energy without entropy =      -16.26810924  energy(sigma->0) =      -16.26810924


--------------------------------------------------------------------------------------------------------




--------------------------------------- Iteration      1(   9)  ---------------------------------------


    POTLOK:  cpu time    0.0335: real time    0.0336
    SETDIJ:  cpu time    0.0029: real time    0.0029
     EDDAV:  cpu time    2.4036: real time    2.4066
       DOS:  cpu time    0.0030: real time    0.0030
    CHARGE:  cpu time    0.1668: real time    0.1669
    MIXING:  cpu time    0.0014: real time    0.0014
    --------------------------------------------
      LOOP:  cpu time    2.6112: real time    2.6144

 eigenvalue-minimisations  :  4316
 total energy-change (2. order) : 0.3765443E-02  (-0.7051255E-03)
 number of electron      20.0000000 magnetization 
 augmentation part       -4.4847748 magnetization 

 Broyden mixing:
  rms(total) = 0.10131E-01    rms(broyden)= 0.10131E-01
  rms(prec ) = 0.15684E-01
  weight for this iteration     100.00

 eigenvalues of (default mixing * dielectric matrix)
  average eigenvalue GAMMA=   1.7103
  2.2279  2.2279  1.1926  1.1926

 Free energy of the ion-electron system (eV)
  ---------------------------------------------------
  alpha Z        PSCENC =         9.52808241
  Ewald energy   TEWEN  =      1147.55010929
  -Hartree energ DENC   =     -1766.06750286
  -exchange      EXHF   =         0.00000000
  -V(xc)+E(xc)   XCENC  =      -237.61408495
  PAW double counting   =      1151.63282358     -876.75383626
  entropy T*S    EENTRO =        -0.00000000
  eigenvalues    EBANDS =      -146.96783211
  atomic energy  EATOM  =       702.42789710
  Solvation  Ediel_sol  =         0.00000000
  ---------------------------------------------------
  free energy    TOTEN  =       -16.26434380 eV

  energy without entropy =      -16.26434380  energy(sigma->0) =      -16.26434380


--------------------------------------------------------------------------------------------------------




--------------------------------------- Iteration      1(  10)  ---------------------------------------


    POTLOK:  cpu time    0.0336: real time    0.0336
    SETDIJ:  cpu time    0.0029: real time    0.0029
     EDDAV:  cpu time    2.4295: real time    2.4322
       DOS:  cpu time    0.0030: real time    0.0030
    CHARGE:  cpu time    0.1667: real time    0.1669
    MIXING:  cpu time    0.0014: real time    0.0014
    --------------------------------------------
      LOOP:  cpu time    2.6372: real time    2.6402

 eigenvalue-minimisations  :  4358
 total energy-change (2. order) : 0.1267912E-02  (-0.1271848E-03)
 number of electron      20.0000000 magnetization 
 augmentation part       -4.4835597 magnetization 

 Broyden mixing:
  rms(total) = 0.52937E-02    rms(broyden)= 0.52937E-02
  rms(prec ) = 0.94704E-02
  weight for this iteration     100.00

 eigenvalues of (default mixing * dielectric matrix)
  average eigenvalue GAMMA=   1.8676
  3.3533  2.6032  1.2389  1.2389  0.9040

 Free energy of the ion-electron system (eV)
  ---------------------------------------------------
  alpha Z        PSCENC =         9.52808241
  Ewald energy   TEWEN  =      1147.55010929
  -Hartree energ DENC   =     -1767.32645702
  -exchange      EXHF   =         0.00000000
  -V(xc)+E(xc)   XCENC  =      -237.60404471
  PAW double counting   =      1140.73407868     -865.84444326
  entropy T*S    EENTRO =        -0.00000000
  eigenvalues    EBANDS =      -145.72829837
  atomic energy  EATOM  =       702.42789710
  Solvation  Ediel_sol  =         0.00000000
  ---------------------------------------------------
  free energy    TOTEN  =       -16.26307589 eV

  energy without entropy =      -16.26307589  energy(sigma->0) =      -16.26307589


--------------------------------------------------------------------------------------------------------




--------------------------------------- Iteration      1(  11)  ---------------------------------------


    POTLOK:  cpu time    0.0337: real time    0.0338
    SETDIJ:  cpu time    0.0030: real time    0.0029
     EDDAV:  cpu time   66.8921: real time   66.9341
       DOS:  cpu time    0.0031: real time    0.0031
    CHARGE:  cpu time    0.1673: real time    0.1675
    MIXING:  cpu time    0.0015: real time    0.0015
    --------------------------------------------
      LOOP:  cpu time   67.1007: real time   67.1430

 eigenvalue-minimisations  :  4292
 total energy-change (2. order) : 0.7361201E-03  (-0.1266876E-03)
 number of electron      20.0000000 magnetization 
 augmentation part       -4.4821688 magnetization 

 Broyden mixing:
  rms(total) = 0.33089E-02    rms(broyden)= 0.33089E-02
  rms(prec ) = 0.50198E-02
  weight for this iteration     100.00

 eigenvalues of (default mixing * dielectric matrix)
  average eigenvalue GAMMA=   1.8392
  3.4054  2.2671  2.0962  1.1922  1.1922  0.8821

 Free energy of the ion-electron system (eV)
  ---------------------------------------------------
  alpha Z        PSCENC =         9.52808241
  Ewald energy   TEWEN  =      1147.55010929
  -Hartree energ DENC   =     -1768.92834763
  -exchange      EXHF   =         0.00000000
  -V(xc)+E(xc)   XCENC  =      -237.57198743
  PAW double counting   =      1142.42272989     -867.53231284
  entropy T*S    EENTRO =        -0.00000000
  eigenvalues    EBANDS =      -144.15851055
  atomic energy  EATOM  =       702.42789710
  Solvation  Ediel_sol  =         0.00000000
  ---------------------------------------------------
  free energy    TOTEN  =       -16.26233977 eV

  energy without entropy =      -16.26233976  energy(sigma->0) =      -16.26233976


--------------------------------------------------------------------------------------------------------




--------------------------------------- Iteration      1(  12)  ---------------------------------------


    POTLOK:  cpu time    0.0343: real time    0.0344
    SETDIJ:  cpu time    0.0029: real time    0.0030
     EDDAV:  cpu time    2.1619: real time    2.1645
       DOS:  cpu time    0.0032: real time    0.0032
    CHARGE:  cpu time    0.1690: real time    0.1692
    MIXING:  cpu time    0.0015: real time    0.0015
    --------------------------------------------
      LOOP:  cpu time    2.3728: real time    2.3757

 eigenvalue-minimisations  :  3664
 total energy-change (2. order) :-0.8135037E-03  (-0.3219784E-04)
 number of electron      20.0000000 magnetization 
 augmentation part       -4.4815127 magnetization 

 Broyden mixing:
  rms(total) = 0.19146E-02    rms(broyden)= 0.19146E-02
  rms(prec ) = 0.28938E-02
  weight for this iteration     100.00

 eigenvalues of (default mixing * dielectric matrix)
  average eigenvalue GAMMA=   2.0644
  4.5786  3.0846  2.5074  1.2072  1.2072  1.0255  0.8399

 Free energy of the ion-electron system (eV)
  ---------------------------------------------------
  alpha Z        PSCENC =         9.52808241
  Ewald energy   TEWEN  =      1147.55010929
  -Hartree energ DENC   =     -1769.56364684
  -exchange      EXHF   =         0.00000000
  -V(xc)+E(xc)   XCENC  =      -237.56212132
  PAW double counting   =      1144.32784578     -869.44027602
  entropy T*S    EENTRO =        -0.00000000
  eigenvalues    EBANDS =      -143.53104367
  atomic energy  EATOM  =       702.42789710
  Solvation  Ediel_sol  =         0.00000000
  ---------------------------------------------------
  free energy    TOTEN  =       -16.26315327 eV

  energy without entropy =      -16.26315327  energy(sigma->0) =      -16.26315327


--------------------------------------------------------------------------------------------------------




--------------------------------------- Iteration      1(  13)  ---------------------------------------


    POTLOK:  cpu time    0.0345: real time    0.0345
    SETDIJ:  cpu time    0.0029: real time    0.0029
     EDDAV:  cpu time    2.1911: real time    2.1939
       DOS:  cpu time    0.0032: real time    0.0031
    CHARGE:  cpu time    0.1668: real time    0.1670
    MIXING:  cpu time    0.0015: real time    0.0015
    --------------------------------------------
      LOOP:  cpu time    2.4000: real time    2.4030

 eigenvalue-minimisations  :  3722
 total energy-change (2. order) :-0.4283775E-03  (-0.8370863E-05)
 number of electron      20.0000000 magnetization 
 augmentation part       -4.4813265 magnetization 

 Broyden mixing:
  rms(total) = 0.11930E-02    rms(broyden)= 0.11930E-02
  rms(prec ) = 0.15642E-02
  weight for this iteration     100.00

 eigenvalues of (default mixing * dielectric matrix)
  average eigenvalue GAMMA=   2.2252
  5.5824  3.2859  2.4727  2.1741  1.1606  1.1606  1.0561  0.9092

 Free energy of the ion-electron system (eV)
  ---------------------------------------------------
  alpha Z        PSCENC =         9.52808241
  Ewald energy   TEWEN  =      1147.55010929
  -Hartree energ DENC   =     -1769.96968875
  -exchange      EXHF   =         0.00000000
  -V(xc)+E(xc)   XCENC  =      -237.56103433
  PAW double counting   =      1143.17496857     -868.28617434
  entropy T*S    EENTRO =        -0.00000000
  eigenvalues    EBANDS =      -143.12774160
  atomic energy  EATOM  =       702.42789710
  Solvation  Ediel_sol  =         0.00000000
  ---------------------------------------------------
  free energy    TOTEN  =       -16.26358165 eV

  energy without entropy =      -16.26358165  energy(sigma->0) =      -16.26358165


--------------------------------------------------------------------------------------------------------




--------------------------------------- Iteration      1(  14)  ---------------------------------------


    POTLOK:  cpu time    0.0352: real time    0.0353
    SETDIJ:  cpu time    0.0029: real time    0.0030
     EDDAV:  cpu time    2.2776: real time    2.2804
       DOS:  cpu time    0.0030: real time    0.0030
    CHARGE:  cpu time    0.1748: real time    0.1750
    MIXING:  cpu time    0.0016: real time    0.0016
    --------------------------------------------
      LOOP:  cpu time    2.4952: real time    2.4983

 eigenvalue-minimisations  :  3926
 total energy-change (2. order) :-0.2570416E-03  (-0.4387699E-05)
 number of electron      20.0000000 magnetization 
 augmentation part       -4.4812998 magnetization 

 Broyden mixing:
  rms(total) = 0.40094E-03    rms(broyden)= 0.40094E-03
  rms(prec ) = 0.62829E-03
  weight for this iteration     100.00

 eigenvalues of (default mixing * dielectric matrix)
  average eigenvalue GAMMA=   2.2396
  6.7259  3.0624  2.5267  2.5267  1.1853  1.1853  1.0547  0.9446  0.9446

 Free energy of the ion-electron system (eV)
  ---------------------------------------------------
  alpha Z        PSCENC =         9.52808241
  Ewald energy   TEWEN  =      1147.55010929
  -Hartree energ DENC   =     -1770.17842480
  -exchange      EXHF   =         0.00000000
  -V(xc)+E(xc)   XCENC  =      -237.56092441
  PAW double counting   =      1143.40973869     -868.52032152
  entropy T*S    EENTRO =        -0.00000000
  eigenvalues    EBANDS =      -142.91999544
  atomic energy  EATOM  =       702.42789710
  Solvation  Ediel_sol  =         0.00000000
  ---------------------------------------------------
  free energy    TOTEN  =       -16.26383869 eV

  energy without entropy =      -16.26383869  energy(sigma->0) =      -16.26383869


--------------------------------------------------------------------------------------------------------




--------------------------------------- Iteration      1(  15)  ---------------------------------------


    POTLOK:  cpu time    0.0352: real time    0.0353
    SETDIJ:  cpu time    0.0029: real time    0.0029
     EDDAV:  cpu time    2.2382: real time    2.2410
       DOS:  cpu time    0.0031: real time    0.0031
    CHARGE:  cpu time    0.1692: real time    0.1694
    MIXING:  cpu time    0.0017: real time    0.0017
    --------------------------------------------
      LOOP:  cpu time    2.4504: real time    2.4535

 eigenvalue-minimisations  :  3826
 total energy-change (2. order) :-0.5757648E-04  (-0.2113336E-06)
 number of electron      20.0000000 magnetization 
 augmentation part       -4.4813199 magnetization 

 Broyden mixing:
  rms(total) = 0.34684E-03    rms(broyden)= 0.34683E-03
  rms(prec ) = 0.51977E-03
  weight for this iteration     100.00

 eigenvalues of (default mixing * dielectric matrix)
  average eigenvalue GAMMA=   2.3516
  6.5212  4.2580  2.7082  2.7082  1.9626  1.1415  1.1415  1.2048  0.9348  0.9348

 Free energy of the ion-electron system (eV)
  ---------------------------------------------------
  alpha Z        PSCENC =         9.52808241
  Ewald energy   TEWEN  =      1147.55010929
  -Hartree energ DENC   =     -1770.19406259
  -exchange      EXHF   =         0.00000000
  -V(xc)+E(xc)   XCENC  =      -237.56127020
  PAW double counting   =      1143.25356289     -868.36403939
  entropy T*S    EENTRO =        -0.00000000
  eigenvalues    EBANDS =      -142.90417577
  atomic energy  EATOM  =       702.42789710
  Solvation  Ediel_sol  =         0.00000000
  ---------------------------------------------------
  free energy    TOTEN  =       -16.26389626 eV

  energy without entropy =      -16.26389626  energy(sigma->0) =      -16.26389626


--------------------------------------------------------------------------------------------------------




--------------------------------------- Iteration      1(  16)  ---------------------------------------


    POTLOK:  cpu time    0.0342: real time    0.0342
    SETDIJ:  cpu time    0.0030: real time    0.0035
     EDDAV:  cpu time    2.1151: real time    2.1176
       DOS:  cpu time    0.0032: real time    0.0032
    CHARGE:  cpu time    0.1677: real time    0.1679
    MIXING:  cpu time    0.0017: real time    0.0017
    --------------------------------------------
      LOOP:  cpu time    2.3248: real time    2.3281

 eigenvalue-minimisations  :  3564
 total energy-change (2. order) :-0.4630983E-04  (-0.8448386E-06)
 number of electron      20.0000000 magnetization 
 augmentation part       -4.4813323 magnetization 

 Broyden mixing:
  rms(total) = 0.13061E-03    rms(broyden)= 0.13061E-03
  rms(prec ) = 0.23159E-03
  weight for this iteration     100.00

 eigenvalues of (default mixing * dielectric matrix)
  average eigenvalue GAMMA=   2.2807
  6.7864  4.5091  2.6470  2.6470  2.2630  1.1570  1.1570  1.1867  0.9350  0.9350
  0.8646

 Free energy of the ion-electron system (eV)
  ---------------------------------------------------
  alpha Z        PSCENC =         9.52808241
  Ewald energy   TEWEN  =      1147.55010929
  -Hartree energ DENC   =     -1770.24751686
  -exchange      EXHF   =         0.00000000
  -V(xc)+E(xc)   XCENC  =      -237.56137908
  PAW double counting   =      1143.08492791     -868.19540676
  entropy T*S    EENTRO =        -0.00000000
  eigenvalues    EBANDS =      -142.85065658
  atomic energy  EATOM  =       702.42789710
  Solvation  Ediel_sol  =         0.00000000
  ---------------------------------------------------
  free energy    TOTEN  =       -16.26394257 eV

  energy without entropy =      -16.26394257  energy(sigma->0) =      -16.26394257


--------------------------------------------------------------------------------------------------------




--------------------------------------- Iteration      1(  17)  ---------------------------------------


    POTLOK:  cpu time    0.0341: real time    0.0342
    SETDIJ:  cpu time    0.0029: real time    0.0029
     EDDAV:  cpu time    1.9984: real time    2.0008
       DOS:  cpu time    0.0032: real time    0.0032
    CHARGE:  cpu time    0.1693: real time    0.1695
    MIXING:  cpu time    0.0017: real time    0.0017
    --------------------------------------------
[...]
      3      -8.6425      2.00000
      4      -8.5021      2.00000
      5      -6.3887      2.00000
      6      -5.5061      2.00000
      7      -5.0629      2.00000
      8      -4.3565      2.00000
      9      -3.9678      2.00000
     10      -3.3663      2.00000
     11       0.5270      0.00000
     12       1.3370      0.00000
     13       1.5796      0.00000
     14       2.2397      0.00000

 k-point    95 :      -0.2667    0.4000   -0.0000
  band No.  band energies     occupation 
      1     -14.5565      2.00000
      2     -14.2991      2.00000
      3      -8.8238      2.00000
      4      -8.6053      2.00000
      5      -6.0705      2.00000
      6      -5.1174      2.00000
      7      -4.8195      2.00000
      8      -4.0973      2.00000
      9      -3.8740      2.00000
     10      -3.0871      2.00000
     11       0.1249      0.00000
     12       1.0748      0.00000
     13       1.1738      0.00000
     14       1.5833      0.00000

 k-point    96 :      -0.2000    0.4000   -0.0000
  band No.  band energies     occupation 
      1     -14.6253      2.00000
      2     -14.3220      2.00000
      3      -8.9890      2.00000
      4      -8.7074      2.00000
      5      -5.6319      2.00000
      6      -4.8327      2.00000
      7      -4.5518      2.00000
      8      -3.9612      2.00000
      9      -3.5058      2.00000
     10      -2.7183      2.00000
     11      -0.3475      0.00000
     12       0.5655      0.00000
     13       0.7117      0.00000
     14       1.2273      0.00000

 k-point    97 :      -0.1333    0.4000   -0.0000
  band No.  band energies     occupation 
      1     -14.6803      2.00000
      2     -14.3449      2.00000
      3      -9.1173      2.00000
      4      -8.7919      2.00000
      5      -5.1138      2.00000
      6      -4.7685      2.00000
      7      -4.1450      2.00000
      8      -3.9163      2.00000
      9      -2.9408      2.00000
     10      -2.4928      2.00000
     11      -0.6262      0.00000
     12      -0.1629      0.00000
     13       0.4924      0.00000
     14       0.7969      0.00000

 k-point    98 :      -0.0667    0.4000   -0.0000
  band No.  band energies     occupation 
      1     -14.7154      2.00000
      2     -14.3615      2.00000
      3      -9.1979      2.00000
      4      -8.8473      2.00000
      5      -4.7723      2.00000
      6      -4.5795      2.00000
      7      -3.9430      2.00000
      8      -3.7385      2.00000
      9      -2.6544      2.00000
     10      -2.3677      2.00000
     11      -0.7578      0.00000
     12      -0.3847      0.00000
     13       0.2381      0.00000
     14       0.3745      0.00000

 k-point    99 :       0.0000    0.4667    0.0000
  band No.  band energies     occupation 
      1     -14.5830      2.00000
      2     -14.4594      2.00000
      3      -9.2107      2.00000
      4      -9.0873      2.00000
      5      -4.5331      2.00000
      6      -4.3145      2.00000
      7      -3.8526      2.00000
      8      -3.6583      2.00000
      9      -2.5589      2.00000
     10      -2.2183      2.00000
     11      -0.8964      0.00000
     12      -0.4592      0.00000
     13      -0.0679      0.00000
     14       0.1305      0.00000

 k-point   100 :       0.0667    0.4667   -0.0000
  band No.  band energies     occupation 
      1     -14.5724      2.00000
      2     -14.4520      2.00000
      3      -9.1833      2.00000
      4      -9.0626      2.00000
      5      -4.5453      2.00000
      6      -4.4313      2.00000
      7      -4.0026      2.00000
      8      -3.8650      2.00000
      9      -2.4669      2.00000
     10      -2.3801      2.00000
     11      -0.8016      0.00000
     12      -0.6899      0.00000
     13       0.2924      0.00000
     14       0.5914      0.00000

 k-point   101 :       0.1333    0.4667    0.0000
  band No.  band energies     occupation 
      1     -14.5427      2.00000
      2     -14.4301      2.00000
      3      -9.1017      2.00000
      4      -8.9892      2.00000
      5      -4.8435      2.00000
      6      -4.6508      2.00000
      7      -4.2397      2.00000
      8      -4.1172      2.00000
      9      -2.8449      2.00000
     10      -2.6273      2.00000
     11      -0.5467      0.00000
     12      -0.3190      0.00000
     13       0.7933      0.00000
     14       0.8911      0.00000

 k-point   102 :       0.2000    0.4667   -0.0000
  band No.  band energies     occupation 
      1     -14.4979      2.00000
      2     -14.3976      2.00000
      3      -8.9698      2.00000
      4      -8.8714      2.00000
      5      -5.3543      2.00000
      6      -5.0232      2.00000
      7      -4.4347      2.00000
      8      -4.1920      2.00000
      9      -3.3541      2.00000
     10      -3.0560      2.00000
     11      -0.0194      0.00000
     12       0.3305      0.00000
     13       1.0176      0.00000
     14       1.2385      0.00000

 k-point   103 :       0.2667    0.4667   -0.0000
  band No.  band energies     occupation 
      1     -14.4438      2.00000
      2     -14.3605      2.00000
      3      -8.7959      2.00000
      4      -8.7176      2.00000
      5      -5.8260      2.00000
      6      -5.4838      2.00000
      7      -4.6332      2.00000
      8      -4.3579      2.00000
      9      -3.6894      2.00000
     10      -3.4296      2.00000
     11       0.4938      0.00000
     12       0.8451      0.00000
     13       1.4225      0.00000
     14       1.6585      0.00000

 k-point   104 :       0.3333    0.4667   -0.0000
  band No.  band energies     occupation 
      1     -14.3883      2.00000
      2     -14.3264      2.00000
      3      -8.5971      2.00000
      4      -8.5435      2.00000
      5      -6.2101      2.00000
      6      -5.9060      2.00000
      7      -4.9309      2.00000
      8      -4.6601      2.00000
      9      -3.7955      2.00000
     10      -3.6160      2.00000
     11       0.8386      0.00000
     12       1.1109      0.00000
     13       1.9813      0.00000
     14       2.2362      0.00000

 k-point   105 :       0.4000    0.4667    0.0000
  band No.  band energies     occupation 
      1     -14.3398      2.00000
      2     -14.3030      2.00000
      3      -8.4072      2.00000
      4      -8.3770      2.00000
      5      -6.4726      2.00000
      6      -6.2604      2.00000
      7      -5.1848      2.00000
      8      -4.9850      2.00000
      9      -3.7892      2.00000
     10      -3.6889      2.00000
     11       1.0726      0.00000
     12       1.2477      0.00000
     13       2.4729      0.00000
     14       2.6823      0.00000

 k-point   106 :       0.4667    0.4667   -0.0000
  band No.  band energies     occupation 
      1     -14.3060      2.00000
      2     -14.2969      2.00000
      3      -8.2837      2.00000
      4      -8.2655      2.00000
      5      -6.5734      2.00000
      6      -6.5120      2.00000
      7      -5.2902      2.00000
      8      -5.2158      2.00000
      9      -3.7517      2.00000
     10      -3.7310      2.00000
     11       1.2241      0.00000
     12       1.2913      0.00000
     13       2.7024      0.00000
     14       2.7962      0.00000

 k-point   107 :      -0.4667    0.4667    0.0000
  band No.  band energies     occupation 
      1     -14.3112      2.00000
      2     -14.2917      2.00000
      3      -8.2797      2.00000
      4      -8.2673      2.00000
      5      -6.5996      2.00000
      6      -6.4861      2.00000
      7      -5.2892      2.00000
      8      -5.2193      2.00000
      9      -3.7715      2.00000
     10      -3.7114      2.00000
     11       1.2332      0.00000
     12       1.2819      0.00000
     13       2.6924      0.00000
     14       2.8106      0.00000

 k-point   108 :      -0.4000    0.4667    0.0000
  band No.  band energies     occupation 
      1     -14.3448      2.00000
      2     -14.2982      2.00000
      3      -8.3940      2.00000
      4      -8.3854      2.00000
      5      -6.4911      2.00000
      6      -6.2427      2.00000
      7      -5.1816      2.00000
      8      -4.9937      2.00000
      9      -3.8090      2.00000
     10      -3.6700      2.00000
     11       1.0769      0.00000
     12       1.2428      0.00000
     13       2.4592      0.00000
     14       2.7043      0.00000

 k-point   109 :      -0.3333    0.4667   -0.0000
  band No.  band energies     occupation 
      1     -14.3929      2.00000
      2     -14.3220      2.00000
      3      -8.5883      2.00000
      4      -8.5471      2.00000
      5      -6.2190      2.00000
      6      -5.8993      2.00000
      7      -4.9220      2.00000
      8      -4.6737      2.00000
      9      -3.8148      2.00000
     10      -3.5996      2.00000
     11       0.8370      0.00000
     12       1.1119      0.00000
     13       1.9674      0.00000
     14       2.2536      0.00000

 k-point   110 :      -0.2667    0.4667    0.0000
  band No.  band energies     occupation 
      1     -14.4477      2.00000
      2     -14.3569      2.00000
      3      -8.7904      2.00000
      4      -8.7184      2.00000
      5      -5.8266      2.00000
      6      -5.4869      2.00000
      7      -4.6203      2.00000
      8      -4.3709      2.00000
      9      -3.7050      2.00000
     10      -3.4213      2.00000
     11       0.4869      0.00000
     12       0.8521      0.00000
     13       1.4135      0.00000
     14       1.6686      0.00000

 k-point   111 :      -0.2000    0.4667   -0.0000
  band No.  band energies     occupation 
      1     -14.5010      2.00000
      2     -14.3948      2.00000
      3      -8.9665      2.00000
      4      -8.8708      2.00000
      5      -5.3486      2.00000
      6      -5.0333      2.00000
      7      -4.4251      2.00000
      8      -4.1993      2.00000
      9      -3.3592      2.00000
     10      -3.0614      2.00000
     11      -0.0282      0.00000
     12       0.3409      0.00000
     13       1.0132      0.00000
     14       1.2422      0.00000

 k-point   112 :      -0.1333    0.4667   -0.0000
  band No.  band energies     occupation 
      1     -14.5449      2.00000
      2     -14.4282      2.00000
      3      -9.0999      2.00000
      4      -8.9884      2.00000
      5      -4.8332      2.00000
      6      -4.6607      2.00000
      7      -4.2374      2.00000
      8      -4.1212      2.00000
      9      -2.8403      2.00000
     10      -2.6439      2.00000
     11      -0.5518      0.00000
     12      -0.3117      0.00000
     13       0.7904      0.00000
     14       0.8893      0.00000

 k-point   113 :      -0.0667    0.4667   -0.0000
  band No.  band energies     occupation 
      1     -14.5734      2.00000
      2     -14.4510      2.00000
      3      -9.1825      2.00000
      4      -9.0621      2.00000
      5      -4.5485      2.00000
      6      -4.4226      2.00000
      7      -4.0033      2.00000
      8      -3.8700      2.00000
      9      -2.4845      2.00000
     10      -2.3704      2.00000
     11      -0.8008      0.00000
     12      -0.6930      0.00000
     13       0.2897      0.00000
     14       0.5975      0.00000


--------------------------------------------------------------------------------------------------------


 soft charge-density along one line, spin component           1
         0         1         2         3         4         5         6         7         8         9
 total charge-density along one line
 
 pseudopotential strength for first ion, spin component:           1
 30.083 -23.434  -0.001  -0.089   0.034  -0.002  -0.141   0.054
-23.434  28.116   0.001   0.051  -0.019   0.001   0.082  -0.031
 -0.001   0.001   6.331  -0.000  -0.000   9.795  -0.000  -0.000
 -0.089   0.051  -0.000   6.329   0.002  -0.000   9.791   0.003
  0.034  -0.019  -0.000   0.002   6.331  -0.000   0.003   9.794
 -0.002   0.001   9.795  -0.000  -0.000  15.224  -0.000  -0.000
 -0.141   0.082  -0.000   9.791   0.003  -0.000  15.217   0.004
  0.054  -0.031  -0.000   0.003   9.794  -0.000   0.004  15.223
 -0.000  -0.000   0.007  -0.000  -0.000   0.011  -0.000  -0.000
 -0.000   0.000  -0.020  -0.000  -0.000  -0.031  -0.001  -0.000
 -0.003   0.004   0.000  -0.023  -0.004   0.000  -0.035  -0.006
  0.003  -0.002  -0.000   0.008  -0.020  -0.000   0.013  -0.031
 -0.000   0.000   0.000  -0.000   0.008   0.001  -0.000   0.013
 total augmentation occupancy for first ion, spin component:           1
  2.025  -0.015   0.004   0.238  -0.087  -0.001  -0.042   0.016  -0.001  -0.000   0.023   0.002  -0.000
 -0.015   0.009  -0.001  -0.073   0.027   0.000   0.019  -0.006   0.000  -0.000  -0.002   0.001  -0.000
  0.004  -0.001   1.508  -0.000  -0.001  -0.406   0.001   0.000   0.123  -0.043   0.003  -0.000  -0.001
  0.238  -0.073  -0.000   1.840   0.001   0.001  -0.486  -0.014   0.000   0.001  -0.267  -0.019  -0.001
 -0.087   0.027  -0.001   0.001   1.491   0.000  -0.015  -0.395  -0.005  -0.000  -0.079  -0.045  -0.006
 -0.001   0.000  -0.406   0.001   0.000   0.118  -0.000  -0.000  -0.033   0.012  -0.001   0.000   0.000
 -0.042   0.019   0.001  -0.486  -0.015  -0.000   0.140   0.007  -0.000  -0.000   0.074   0.005   0.000
  0.016  -0.006   0.000  -0.014  -0.395  -0.000   0.007   0.114   0.001   0.000   0.021   0.012   0.002
 -0.001   0.000   0.123   0.000  -0.005  -0.033  -0.000   0.001   0.076   0.000  -0.000  -0.000  -0.000
 -0.000  -0.000  -0.043   0.001  -0.000   0.012  -0.000   0.000   0.000   0.021  -0.000   0.000   0.000
  0.023  -0.002   0.003  -0.267  -0.079  -0.001   0.074   0.021  -0.000  -0.000   0.078   0.006   0.002
  0.002   0.001  -0.000  -0.019  -0.045   0.000   0.005   0.012  -0.000   0.000   0.006   0.022   0.001
 -0.000  -0.000  -0.001  -0.001  -0.006   0.000   0.000   0.002  -0.000   0.000   0.002   0.001   0.017


------------------------ aborting loop because EDIFF is reached ----------------------------------------


    CHARGE:  cpu time    0.1805: real time    0.1806
    FORLOC:  cpu time    0.0021: real time    0.0021
    FORNL :  cpu time    0.3199: real time    0.3201
    STRESS:  cpu time    0.5759: real time    0.5768
    FORCOR:  cpu time    0.0364: real time    0.0364
    FORHAR:  cpu time    0.0092: real time    0.0092
    MIXING:  cpu time    0.0007: real time    0.0007
    OFIELD:  cpu time    0.0000: real time    0.0000

  FORCE on cell =-STRESS in cart. coord.  units (eV):
  Direction    XX          YY          ZZ          XY          YZ          ZX
  --------------------------------------------------------------------------------------
  Alpha Z     9.52808     9.52808     9.52808
  Ewald    1598.61927  1603.01433 -2056.45557     0.41088    -4.58044    -4.56166
  Hartree  1719.71845  1721.35307 -1673.01359     0.14047    -4.24927    -4.24427
  E(xc)     -77.66359   -77.67679   -78.88772     0.00543    -0.00155    -0.00141
  Local   -3571.09050 -3576.55819  3474.61895    -0.56200     8.82647     8.80636
  n-local   162.51398   162.69798   167.21457    -0.01470     0.00595     0.00583
  augment   -31.87594   -31.81964   -32.80284     0.00167    -0.00126    -0.00072
  Kinetic   190.24534   189.46210   189.79741     0.07088    -0.00024    -0.00604
  Fock        0.00000     0.00000     0.00000     0.00000     0.00000     0.00000
  -------------------------------------------------------------------------------------
  Total      -0.00491     0.00094    -0.00068     0.05263    -0.00034    -0.00190
  in kB      -0.02096     0.00403    -0.00292     0.22469    -0.00146    -0.00810
  external pressure =       -0.01 kB  Pullay stress =        0.00 kB


 VOLUME and BASIS-vectors are now :
 -----------------------------------------------------------------------------
  energy-cutoff  :      600.00
  volume of cell :      375.28
      direct lattice vectors                 reciprocal lattice vectors
     4.382356765 -0.005477946 -0.005477946     0.228188435  0.000285593  0.000286308
    -0.005365597  4.292477857 -0.005365597     0.000291573  0.232966405  0.000292303
    -0.025000000 -0.025000000 19.950000000     0.000062735  0.000062735  0.050125471

  length of vectors
     4.382363612  4.292484564 19.950031328     0.228188794  0.232966770  0.050125549


 FORCES acting on ions
    electron-ion (+dipol)            ewald-force                    non-local-force                 convergence-correction
 -----------------------------------------------------------------------------------------------
   0.404E+01 -.344E+00 -.144E+03   -.553E+01 0.407E+00 0.148E+03   0.148E+01 -.637E-01 -.381E+01   -.144E-04 -.235E-04 -.483E-04
   0.439E+01 0.233E-01 0.144E+03   -.588E+01 0.299E-01 -.148E+03   0.149E+01 -.536E-01 0.381E+01   0.181E-04 0.414E-04 -.304E-04
   -.553E+01 -.513E-01 -.206E+03   0.598E+01 0.381E-01 0.208E+03   -.448E+00 0.130E-01 -.204E+01   0.352E-04 0.677E-04 -.311E-04
   -.498E+01 0.459E+00 0.206E+03   0.542E+01 -.475E+00 -.208E+03   -.440E+00 0.177E-01 0.204E+01   -.306E-04 -.390E-03 -.100E-03
 -----------------------------------------------------------------------------------------------
   -.208E+01 0.870E-01 0.274E-02   0.178E-14 -.278E-15 0.284E-13   0.208E+01 -.866E-01 -.277E-02   0.840E-05 -.304E-03 -.210E-03
 
 
 POSITION                                       TOTAL-FORCE (eV/Angst)
 -----------------------------------------------------------------------------------
      2.53263      3.20032     11.34269        -0.000770      0.000018     -0.000251
      0.33965      1.05342      8.59838         0.000768     -0.000394     -0.000461
      0.13228      1.06724     11.31479         0.000125     -0.000216      0.000333
      2.31716      3.20725      8.62667        -0.000124      0.000592      0.000379
 -----------------------------------------------------------------------------------
    total drift:                               -0.000241      0.000183     -0.000238


--------------------------------------------------------------------------------------------------------



  FREE ENERGIE OF THE ION-ELECTRON SYSTEM (eV)
  ---------------------------------------------------
  free  energy   TOTEN  =       -16.26432997 eV

  energy  without entropy=      -16.26432997  energy(sigma->0) =      -16.26432997
 
 d Force =-0.4899248E-08[-0.204E-07, 0.106E-07]  d Energy = 0.1796798E-07-0.229E-07
 d Force = 0.3439110E-02[ 0.344E-02, 0.344E-02]  d Ewald  = 0.3439110E-02 0.341E-11


--------------------------------------------------------------------------------------------------------


    POTLOK:  cpu time    0.0379: real time    0.0380


--------------------------------------------------------------------------------------------------------




--------------------------------------------------------------------------------------------------------


  
 reached required accuracy - stopping structural energy minimisation
 writing wavefunctions
     LOOP+:  cpu time    5.5456: real time    5.8483
    4ORBIT:  cpu time    0.0000: real time    0.0000

 total amount of memory used by VASP MPI-rank0    63318. kBytes
=======================================================================

   base      :      30000. kBytes
   nonl-proj :      12514. kBytes
   fftplans  :       2678. kBytes
   grid      :       4349. kBytes
   one-center:          8. kBytes
   wavefun   :      13769. kBytes
 
  
  
 General timing and accounting informations for this job:
 ========================================================
  
                  Total CPU time used (sec):      469.817
                            User time (sec):      469.078
                          System time (sec):        0.739
                         Elapsed time (sec):      477.087
  
                   Maximum memory used (kb):      227060.
                   Average memory used (kb):           0.
  
                          Minor page faults:        74793
                          Major page faults:          764
                 Voluntary context switches:        10922
