 vasp.5.4.4.18Apr17-6-g9f103f2a35 (build Sep 16 2021 13:51:27) complex          
  
 executed on             LinuxIFC date 2023.03.16  11:28:58
 running on   24 total cores
 distrk:  each k-point on   24 cores,    1 groups
 distr:  one band on NCORES_PER_BAND=  24 cores,    1 groups


--------------------------------------------------------------------------------------------------------


 INCAR:
 POTCAR:    PAW_PBE Sn 08Apr2002                  
 POTCAR:    PAW_PBE Se 06Sep2000                  

 ----------------------------------------------------------------------------- 
|                                                                             |
|           W    W    AA    RRRRR   N    N  II  N    N   GGGG   !!!           |
|           W    W   A  A   R    R  NN   N  II  NN   N  G    G  !!!           |
|           W    W  A    A  R    R  N N  N  II  N N  N  G       !!!           |
|           W WW W  AAAAAA  RRRRR   N  N N  II  N  N N  G  GGG   !            |
|           WW  WW  A    A  R   R   N   NN  II  N   NN  G    G                |
|           W    W  A    A  R    R  N    N  II  N    N   GGGG   !!!           |
|                                                                             |
|      For optimal performance we recommend to set                            |
|        NCORE= 4 - approx SQRT( number of cores)                             |
|      NCORE specifies how many cores store one orbital (NPAR=cpu/NCORE).     |
|      This setting can  greatly improve the performance of VASP for DFT.     |
|      The default,   NCORE=1            might be grossly inefficient         |
|      on modern multi-core architectures or massively parallel machines.     |
|      Do your own testing !!!!                                               |
|      Unfortunately you need to use the default for GW and RPA calculations. |
|      (for HF NCORE is supported but not extensively tested yet)             |
|                                                                             |
 ----------------------------------------------------------------------------- 

 POTCAR:    PAW_PBE Sn 08Apr2002                  
   VRHFIN =Sn: s2p2                                                             
   LEXCH  = PE                                                                  
   EATOM  =    94.0860 eV,    6.9151 Ry                                         
                                                                                
   TITEL  = PAW_PBE Sn 08Apr2002                                                
   LULTRA =        F    use ultrasoft PP ?                                      
   IUNSCR =        1    unscreen: 0-lin 1-nonlin 2-no                           
   RPACOR =    2.000    partial core radius                                     
   POMASS =  118.710; ZVAL   =    4.000    mass and valenz                      
   RCORE  =    3.000    outmost cutoff radius                                   
   RWIGS  =    2.960; RWIGS  =    1.566    wigner-seitz radius (au A)           
   ENMAX  =  103.236; ENMIN  =   77.427 eV                                      
   ICORE  =        3    local potential                                         
   LCOR   =        T    correct aug charges                                     
   LPAW   =        T    paw PP                                                  
   EAUG   =  263.585                                                            
   DEXC   =    0.000                                                            
   RMAX   =    3.078    core radius for proj-oper                               
   RAUG   =    1.300    factor for augmentation sphere                          
   RDEP   =    3.022    radius for radial grids                                 
   RDEPT  =    2.655    core radius for aug-charge                              
                                                                                
   Atomic configuration                                                         
   13 entries                                                                   
     n  l   j            E        occ.                                          
     1  0  0.50    -29007.2859   2.0000                                         
     2  0  0.50     -4378.8056   2.0000                                         
     2  1  1.50     -3930.4293   6.0000                                         
     3  0  0.50      -845.0264   2.0000                                         
     3  1  1.50      -698.5725   6.0000                                         
     3  2  2.50      -473.2839  10.0000                                         
     4  0  0.50      -133.9036   2.0000                                         
     4  1  1.50       -89.6752   6.0000                                         
     4  2  2.50       -25.8375  10.0000                                         
     5  0  0.50       -10.5484   2.0000                                         
     5  1  0.50        -3.6940   2.0000                                         
     5  2  1.50        -1.3606   0.0000                                         
     4  3  2.50        -4.0817   0.0000                                         
   Description                                                                  
     l       E           TYP  RCUT    TYP  RCUT                                 
     0    -10.5483727     23  3.000                                             
     0     27.2116520     23  3.000                                             
     1     -3.6939829     23  3.000                                             
     1      1.9821976     23  3.000                                             
     2     -1.3605826     23  3.000                                             
     3     -2.7211652     23  3.000                                             
  local pseudopotential read in
  partial core-charges read in
  partial kinetic energy density read in
  atomic valenz-charges read in
  non local Contribution for L=           0  read in
    real space projection operators read in
  non local Contribution for L=           0  read in
    real space projection operators read in
  non local Contribution for L=           1  read in
    real space projection operators read in
  non local Contribution for L=           1  read in
    real space projection operators read in
  non local Contribution for L=           2  read in
    real space projection operators read in
    PAW grid and wavefunctions read in
 
   number of l-projection  operators is LMAX  =           5
   number of lm-projection operators is LMMAX =          13
 
 POTCAR:    PAW_PBE Se 06Sep2000                  
   VRHFIN =Se: s2p4                                                             
   LEXCH  = PE                                                                  
   EATOM  =   257.1286 eV,   18.8984 Ry                                         
                                                                                
   TITEL  = PAW_PBE Se 06Sep2000                                                
   LULTRA =        F    use ultrasoft PP ?                                      
   IUNSCR =        1    unscreen: 0-lin 1-nonlin 2-no                           
   RPACOR =    1.900    partial core radius                                     
   POMASS =   78.960; ZVAL   =    6.000    mass and valenz                      
   RCORE  =    2.100    outmost cutoff radius                                   
   RWIGS  =    2.200; RWIGS  =    1.164    wigner-seitz radius (au A)           
   ENMAX  =  211.555; ENMIN  =  158.666 eV                                      
   ICORE  =        3    local potential                                         
   LCOR   =        T    correct aug charges                                     
   LPAW   =        T    paw PP                                                  
   EAUG   =  446.842                                                            
   DEXC   =    0.000                                                            
   RMAX   =    2.147    core radius for proj-oper                               
   RAUG   =    1.300    factor for augmentation sphere                          
   RDEP   =    2.177    radius for radial grids                                 
   RDEPT  =    1.928    core radius for aug-charge                              
                                                                                
   Atomic configuration                                                         
   10 entries                                                                   
     n  l   j            E        occ.                                          
     1  0  0.50    -12503.4787   2.0000                                         
     2  0  0.50     -1606.9547   2.0000                                         
     2  1  1.50     -1413.3140   6.0000                                         
     3  0  0.50      -213.4885   2.0000                                         
     3  1  1.50      -152.9538   6.0000                                         
     3  2  2.50       -53.1221  10.0000                                         
     4  0  0.50       -17.2865   2.0000                                         
     4  1  0.50        -6.5110   4.0000                                         
     4  2  2.50        -6.8029   0.0000                                         
     4  3  2.50        -6.8029   0.0000                                         
   Description                                                                  
     l       E           TYP  RCUT    TYP  RCUT                                 
     0    -17.2865377     23  2.100                                             
     0    -15.3094411     23  2.100                                             
     1     -6.5110275     23  2.100                                             
     1     -0.0695192     23  2.100                                             
     2     -6.8029130     23  2.100                                             
     3     -1.3605826      7  2.100                                             
  local pseudopotential read in
  partial core-charges read in
  partial kinetic energy density read in
  atomic valenz-charges read in
  non local Contribution for L=           0  read in
    real space projection operators read in
  non local Contribution for L=           0  read in
    real space projection operators read in
  non local Contribution for L=           1  read in
    real space projection operators read in
  non local Contribution for L=           1  read in
    real space projection operators read in
  non local Contribution for L=           2  read in
    real space projection operators read in
    PAW grid and wavefunctions read in
 
   number of l-projection  operators is LMAX  =           5
   number of lm-projection operators is LMMAX =          13
 
 WARNING: PSMAXN for non-local potential too small
          PSMAXN should be >   12.5490833729506       NTYP=           1
  PAW_PBE Sn 08Apr2002                  :
 energy of atom  1       EATOM=  -94.0860
 kinetic energy error for atom=    0.0000 (will be added to EATOM!!)
  PAW_PBE Se 06Sep2000                  :
 energy of atom  2       EATOM= -257.1286
 kinetic energy error for atom=    0.0006 (will be added to EATOM!!)
 
 
 POSCAR:  POSCAR with strain of -0.003           
  positions in direct lattice
  No initial velocities read in
 exchange correlation table for  LEXCH =        8
   RHO(1)=    0.500       N(1)  =     2000
   RHO(2)=  100.500       N(2)  =     4000
 


--------------------------------------------------------------------------------------------------------


 ion  position               nearest neighbor table
   1  0.581  0.750  0.569-   4 2.72   3 2.91   3 2.92   3 3.21   3 3.22
   2  0.081  0.250  0.431-   3 2.72   4 2.91   4 2.92   4 3.21   4 3.22
   3  0.033  0.250  0.567-   2 2.72   1 2.91   1 2.92   1 3.21   1 3.22
   4  0.533  0.750  0.433-   1 2.72   2 2.91   2 2.92   2 3.21   2 3.22
 
  Warning from LATTYP: Monoclinic adjustement (A1->A3, A2->A1, A3->A2)!
  Warning from LATTYP: Got some problem with cell dimensions!
  Tried to take original basis but could not verify dimensions!
  LATTYP: Found a simple monoclinic cell.
 ALAT       =     6.1188750819
 B/A-ratio  =     3.2685746534
 C/A-ratio  =     1.5901726611
 COS(beta)  =    -0.9490362706
  
  Lattice vectors:
  
 A1 = (  -4.3660352757,  -4.2869999112,   0.0000000000)
 A2 = (   0.0000000000,   0.0000000000, -20.0000000000)
 A3 = (   8.7374361487,   4.2815219653,   0.0000000000)


Analysis of symmetry for initial positions (statically):
=====================================================================
 Subroutine PRICEL returns:
 Original cell was already a primitive cell.
 

 Routine SETGRP: Setting up the symmetry group for a 
 simple monoclinic supercell.


 Subroutine GETGRP returns: Found  2 space group operations
 (whereof  1 operations were pure point group operations)
 out of a pool of  4 trial point group operations.


The static configuration has the point symmetry C_1 .
 The point group associated with its full space group is C_1h.


Analysis of symmetry for dynamics (positions and initial velocities):
=====================================================================
 Subroutine PRICEL returns:
 Original cell was already a primitive cell.
 

 Routine SETGRP: Setting up the symmetry group for a 
 simple monoclinic supercell.


 Subroutine GETGRP returns: Found  2 space group operations
 (whereof  1 operations were pure point group operations)
 out of a pool of  4 trial point group operations.


The dynamic configuration has the point symmetry C_1 .
 The point group associated with its full space group is C_1h.


 Subroutine INISYM returns: Found  2 space group operations
 (whereof  1 operations are pure point group operations),
 and found     1 'primitive' translations

 
 
 KPOINTS: KMesh Grid                              

Automatic generation of k-mesh.
Space group operators:
 irot       det(A)        alpha          n_x          n_y          n_z        tau_x        tau_y        tau_z
    1     1.000000     0.000000     1.000000     0.000000     0.000000     0.000000     0.000000     0.000000
    2    -1.000000   180.000000     0.000000     0.000000     1.000000    -0.500000    -0.500000     0.000000
 
 Subroutine IBZKPT returns following result:
 ===========================================
 
 Found    113 irreducible k-points:
 
 Following reciprocal coordinates:
            Coordinates               Weight
  0.000000  0.000000  0.000000      1.000000
  0.066667 -0.000000  0.000000      2.000000
  0.133333 -0.000000  0.000000      2.000000
  0.200000 -0.000000  0.000000      2.000000
  0.266667 -0.000000  0.000000      2.000000
  0.333333  0.000000  0.000000      2.000000
  0.400000 -0.000000  0.000000      2.000000
  0.466667 -0.000000  0.000000      2.000000
 -0.000000  0.066667  0.000000      2.000000
  0.066667  0.066667  0.000000      2.000000
  0.133333  0.066667  0.000000      2.000000
  0.200000  0.066667  0.000000      2.000000
  0.266667  0.066667  0.000000      2.000000
  0.333333  0.066667  0.000000      2.000000
  0.400000  0.066667  0.000000      2.000000
  0.466667  0.066667  0.000000      2.000000
 -0.466667  0.066667  0.000000      2.000000
 -0.400000  0.066667  0.000000      2.000000
 -0.333333  0.066667  0.000000      2.000000
 -0.266667  0.066667  0.000000      2.000000
 -0.200000  0.066667  0.000000      2.000000
 -0.133333  0.066667  0.000000      2.000000
 -0.066667  0.066667  0.000000      2.000000
 -0.000000  0.133333  0.000000      2.000000
  0.066667  0.133333  0.000000      2.000000
  0.133333  0.133333  0.000000      2.000000
  0.200000  0.133333  0.000000      2.000000
  0.266667  0.133333  0.000000      2.000000
  0.333333  0.133333  0.000000      2.000000
  0.400000  0.133333  0.000000      2.000000
  0.466667  0.133333  0.000000      2.000000
 -0.466667  0.133333  0.000000      2.000000
 -0.400000  0.133333  0.000000      2.000000
 -0.333333  0.133333  0.000000      2.000000
 -0.266667  0.133333  0.000000      2.000000
 -0.200000  0.133333  0.000000      2.000000
 -0.133333  0.133333  0.000000      2.000000
 -0.066667  0.133333  0.000000      2.000000
 -0.000000  0.200000  0.000000      2.000000
  0.066667  0.200000  0.000000      2.000000
  0.133333  0.200000  0.000000      2.000000
  0.200000  0.200000  0.000000      2.000000
  0.266667  0.200000  0.000000      2.000000
  0.333333  0.200000  0.000000      2.000000
  0.400000  0.200000  0.000000      2.000000
  0.466667  0.200000  0.000000      2.000000
 -0.466667  0.200000  0.000000      2.000000
 -0.400000  0.200000  0.000000      2.000000
 -0.333333  0.200000  0.000000      2.000000
 -0.266667  0.200000  0.000000      2.000000
 -0.200000  0.200000  0.000000      2.000000
 -0.133333  0.200000  0.000000      2.000000
 -0.066667  0.200000  0.000000      2.000000
 -0.000000  0.266667  0.000000      2.000000
  0.066667  0.266667  0.000000      2.000000
  0.133333  0.266667  0.000000      2.000000
  0.200000  0.266667  0.000000      2.000000
  0.266667  0.266667  0.000000      2.000000
  0.333333  0.266667  0.000000      2.000000
  0.400000  0.266667  0.000000      2.000000
  0.466667  0.266667  0.000000      2.000000
 -0.466667  0.266667  0.000000      2.000000
 -0.400000  0.266667  0.000000      2.000000
 -0.333333  0.266667  0.000000      2.000000
 -0.266667  0.266667  0.000000      2.000000
 -0.200000  0.266667  0.000000      2.000000
 -0.133333  0.266667  0.000000      2.000000
 -0.066667  0.266667  0.000000      2.000000
 -0.000000  0.333333  0.000000      2.000000
  0.066667  0.333333  0.000000      2.000000
  0.133333  0.333333  0.000000      2.000000
  0.200000  0.333333  0.000000      2.000000
  0.266667  0.333333  0.000000      2.000000
  0.333333  0.333333  0.000000      2.000000
  0.400000  0.333333  0.000000      2.000000
  0.466667  0.333333  0.000000      2.000000
 -0.466667  0.333333  0.000000      2.000000
 -0.400000  0.333333  0.000000      2.000000
 -0.333333  0.333333  0.000000      2.000000
 -0.266667  0.333333  0.000000      2.000000
 -0.200000  0.333333  0.000000      2.000000
 -0.133333  0.333333  0.000000      2.000000
 -0.066667  0.333333  0.000000      2.000000
 -0.000000  0.400000  0.000000      2.000000
  0.066667  0.400000  0.000000      2.000000
  0.133333  0.400000  0.000000      2.000000
  0.200000  0.400000  0.000000      2.000000
  0.266667  0.400000  0.000000      2.000000
  0.333333  0.400000  0.000000      2.000000
  0.400000  0.400000  0.000000      2.000000
  0.466667  0.400000  0.000000      2.000000
 -0.466667  0.400000  0.000000      2.000000
 -0.400000  0.400000  0.000000      2.000000
 -0.333333  0.400000  0.000000      2.000000
 -0.266667  0.400000  0.000000      2.000000
 -0.200000  0.400000  0.000000      2.000000
 -0.133333  0.400000  0.000000      2.000000
 -0.066667  0.400000  0.000000      2.000000
 -0.000000  0.466667  0.000000      2.000000
  0.066667  0.466667  0.000000      2.000000
  0.133333  0.466667  0.000000      2.000000
  0.200000  0.466667  0.000000      2.000000
  0.266667  0.466667  0.000000      2.000000
  0.333333  0.466667  0.000000      2.000000
  0.400000  0.466667  0.000000      2.000000
  0.466667  0.466667  0.000000      2.000000
 -0.466667  0.466667  0.000000      2.000000
 -0.400000  0.466667  0.000000      2.000000
 -0.333333  0.466667  0.000000      2.000000
 -0.266667  0.466667  0.000000      2.000000
 -0.200000  0.466667  0.000000      2.000000
 -0.133333  0.466667  0.000000      2.000000
 -0.066667  0.466667  0.000000      2.000000
 
 Following cartesian coordinates:
            Coordinates               Weight
  0.000000  0.000000  0.000000      1.000000
  0.015251  0.000019  0.000000      2.000000
  0.030501  0.000038  0.000000      2.000000
  0.045752  0.000057  0.000000      2.000000
  0.061003  0.000076  0.000000      2.000000
  0.076253  0.000095  0.000000      2.000000
  0.091504  0.000114  0.000000      2.000000
  0.106755  0.000133  0.000000      2.000000
  0.000019  0.015531  0.000000      2.000000
  0.015270  0.015550  0.000000      2.000000
  0.030521  0.015569  0.000000      2.000000
  0.045771  0.015588  0.000000      2.000000
  0.061022  0.015607  0.000000      2.000000
  0.076273  0.015626  0.000000      2.000000
  0.091523  0.015645  0.000000      2.000000
  0.106774  0.015665  0.000000      2.000000
 -0.106735  0.015398  0.000000      2.000000
 -0.091485  0.015417  0.000000      2.000000
 -0.076234  0.015436  0.000000      2.000000
 -0.060983  0.015455  0.000000      2.000000
 -0.045733  0.015474  0.000000      2.000000
 -0.030482  0.015493  0.000000      2.000000
 -0.015231  0.015512  0.000000      2.000000
  0.000039  0.031062  0.000000      2.000000
  0.015290  0.031081  0.000000      2.000000
  0.030540  0.031100  0.000000      2.000000
  0.045791  0.031119  0.000000      2.000000
  0.061042  0.031138  0.000000      2.000000
  0.076292  0.031157  0.000000      2.000000
  0.091543  0.031177  0.000000      2.000000
  0.106794  0.031196  0.000000      2.000000
 -0.106716  0.030929  0.000000      2.000000
 -0.091465  0.030948  0.000000      2.000000
 -0.076214  0.030967  0.000000      2.000000
 -0.060964  0.030986  0.000000      2.000000
 -0.045713  0.031005  0.000000      2.000000
 -0.030462  0.031024  0.000000      2.000000
 -0.015212  0.031043  0.000000      2.000000
  0.000058  0.046593  0.000000      2.000000
  0.015309  0.046612  0.000000      2.000000
  0.030560  0.046631  0.000000      2.000000
  0.045810  0.046650  0.000000      2.000000
  0.061061  0.046669  0.000000      2.000000
  0.076312  0.046689  0.000000      2.000000
  0.091562  0.046708  0.000000      2.000000
  0.106813  0.046727  0.000000      2.000000
 -0.106696  0.046460  0.000000      2.000000
 -0.091446  0.046479  0.000000      2.000000
 -0.076195  0.046498  0.000000      2.000000
 -0.060944  0.046517  0.000000      2.000000
 -0.045694  0.046536  0.000000      2.000000
 -0.030443  0.046555  0.000000      2.000000
 -0.015192  0.046574  0.000000      2.000000
  0.000078  0.062124  0.000000      2.000000
  0.015329  0.062143  0.000000      2.000000
  0.030579  0.062162  0.000000      2.000000
  0.045830  0.062181  0.000000      2.000000
  0.061081  0.062201  0.000000      2.000000
  0.076331  0.062220  0.000000      2.000000
  0.091582  0.062239  0.000000      2.000000
  0.106833  0.062258  0.000000      2.000000
 -0.106677  0.061991  0.000000      2.000000
 -0.091426  0.062010  0.000000      2.000000
 -0.076175  0.062029  0.000000      2.000000
 -0.060925  0.062048  0.000000      2.000000
 -0.045674  0.062067  0.000000      2.000000
 -0.030423  0.062086  0.000000      2.000000
 -0.015173  0.062105  0.000000      2.000000
  0.000097  0.077655  0.000000      2.000000
  0.015348  0.077674  0.000000      2.000000
  0.030599  0.077693  0.000000      2.000000
  0.045849  0.077713  0.000000      2.000000
  0.061100  0.077732  0.000000      2.000000
  0.076351  0.077751  0.000000      2.000000
  0.091601  0.077770  0.000000      2.000000
  0.106852  0.077789  0.000000      2.000000
 -0.106657  0.077522  0.000000      2.000000
 -0.091407  0.077541  0.000000      2.000000
 -0.076156  0.077560  0.000000      2.000000
 -0.060905  0.077579  0.000000      2.000000
 -0.045655  0.077598  0.000000      2.000000
 -0.030404  0.077617  0.000000      2.000000
 -0.015153  0.077636  0.000000      2.000000
  0.000117  0.093186  0.000000      2.000000
  0.015367  0.093205  0.000000      2.000000
  0.030618  0.093225  0.000000      2.000000
  0.045869  0.093244  0.000000      2.000000
  0.061119  0.093263  0.000000      2.000000
  0.076370  0.093282  0.000000      2.000000
  0.091621  0.093301  0.000000      2.000000
  0.106871  0.093320  0.000000      2.000000
 -0.106638  0.093053  0.000000      2.000000
 -0.091387  0.093072  0.000000      2.000000
 -0.076137  0.093091  0.000000      2.000000
 -0.060886  0.093110  0.000000      2.000000
 -0.045635  0.093129  0.000000      2.000000
 -0.030385  0.093148  0.000000      2.000000
 -0.015134  0.093167  0.000000      2.000000
  0.000136  0.108717  0.000000      2.000000
  0.015387  0.108737  0.000000      2.000000
  0.030638  0.108756  0.000000      2.000000
  0.045888  0.108775  0.000000      2.000000
  0.061139  0.108794  0.000000      2.000000
  0.076390  0.108813  0.000000      2.000000
  0.091640  0.108832  0.000000      2.000000
  0.106891  0.108851  0.000000      2.000000
 -0.106618  0.108584  0.000000      2.000000
 -0.091368  0.108603  0.000000      2.000000
 -0.076117  0.108622  0.000000      2.000000
 -0.060866  0.108641  0.000000      2.000000
 -0.045616  0.108660  0.000000      2.000000
 -0.030365  0.108679  0.000000      2.000000
 -0.015114  0.108698  0.000000      2.000000
 


--------------------------------------------------------------------------------------------------------




 Dimension of arrays:
   k-points           NKPTS =    113   k-points in BZ     NKDIM =    113   number of bands    NBANDS=     14
   number of dos      NEDOS =    301   number of ions     NIONS =      4
   non local maximal  LDIM  =      5   non local SUM 2l+1 LMDIM =     13
   total plane-waves  NPLWV = 207360
   max r-space proj   IRMAX =      1   max aug-charges    IRDMAX=  53380
   dimension x,y,z NGX =    36 NGY =   36 NGZ =  160
   dimension x,y,z NGXF=    72 NGYF=   72 NGZF=  320
   support grid    NGXF=    72 NGYF=   72 NGZF=  320
   ions per type =               2   2
   NGX,Y,Z   is equivalent  to a cutoff of  13.69, 13.94, 13.30 a.u.
   NGXF,Y,Z  is equivalent  to a cutoff of  27.38, 27.89, 26.60 a.u.

 SYSTEM =  SnSe                                    
 POSCAR =   POSCAR with strain of -0.003           

 Startparameter for this run:
   NWRITE =      2    write-flag & timer
   PREC   = accura    normal or accurate (medium, high low for compatibility)
   ISTART =      0    job   : 0-new  1-cont  2-samecut
   ICHARG =      2    charge: 1-file 2-atom 10-const
   ISPIN  =      1    spin polarized calculation?
   LNONCOLLINEAR =      F non collinear calculations
   LSORBIT =      F    spin-orbit coupling
   INIWAV =      1    electr: 0-lowe 1-rand  2-diag
   LASPH  =      F    aspherical Exc in radial PAW
   METAGGA=      F    non-selfconsistent MetaGGA calc.

 Electronic Relaxation 1
   ENCUT  =  600.0 eV  44.10 Ry    6.64 a.u.   8.73  8.57 39.94*2*pi/ulx,y,z
   ENINI  =  600.0     initial cutoff
   ENAUG  =  446.8 eV  augmentation charge cutoff
   NELM   =     60;   NELMIN=  2; NELMDL= -5     # of ELM steps 
   EDIFF  = 0.1E-05   stopping-criterion for ELM
   LREAL  =      F    real-space projection
   NLSPLINE    = F    spline interpolate recip. space projectors
   LCOMPAT=      F    compatible to vasp.4.4
   GGA_COMPAT  = T    GGA compatible to vasp.4.4-vasp.4.6
   LMAXPAW     = -100 max onsite density
   LMAXMIX     =    2 max onsite mixed and CHGCAR
   VOSKOWN=      0    Vosko Wilk Nusair interpolation
   ROPT   =    0.00000   0.00000
 Ionic relaxation
   EDIFFG = -.1E-02   stopping-criterion for IOM
   NSW    =    100    number of steps for IOM
   NBLOCK =      1;   KBLOCK =    100    inner block; outer block 
   IBRION =      2    ionic relax: 0-MD 1-quasi-New 2-CG
   NFREE  =      1    steps in history (QN), initial steepest desc. (CG)
   ISIF   =      2    stress and relaxation
   IWAVPR =     11    prediction:  0-non 1-charg 2-wave 3-comb
   ISYM   =      2    0-nonsym 1-usesym 2-fastsym
   LCORR  =      T    Harris-Foulkes like correction to forces

   POTIM  = 0.5000    time-step for ionic-motion
   TEIN   =    0.0    initial temperature
   TEBEG  =    0.0;   TEEND  =   0.0 temperature during run
   SMASS  =  -3.00    Nose mass-parameter (am)
   estimated Nose-frequenzy (Omega)   =  0.10E-29 period in steps =****** mass=  -0.437E-27a.u.
   SCALEE = 1.0000    scale energy and forces
   NPACO  =    256;   APACO  = 16.0  distance and # of slots for P.C.
   PSTRESS=    0.0 pullay stress

  Mass of Ions in am
   POMASS = 118.71 78.96
  Ionic Valenz
   ZVAL   =   4.00  6.00
  Atomic Wigner-Seitz radii
   RWIGS  =  -1.00 -1.00
  virtual crystal weights 
   VCA    =   1.00  1.00
   NELECT =      20.0000    total number of electrons
   NUPDOWN=      -1.0000    fix difference up-down

 DOS related values:
   EMIN   =  10.00;   EMAX   =-10.00  energy-range for DOS
   EFERMI =   0.00
   ISMEAR =     0;   SIGMA  =   0.10  broadening in eV -4-tet -1-fermi 0-gaus

 Electronic relaxation 2 (details)
   IALGO  =     38    algorithm
   LDIAG  =      T    sub-space diagonalisation (order eigenvalues)
   LSUBROT=      F    optimize rotation matrix (better conditioning)
   TURBO    =      0    0=normal 1=particle mesh
   IRESTART =      0    0=no restart 2=restart with 2 vectors
   NREBOOT  =      0    no. of reboots
   NMIN     =      0    reboot dimension
   EREF     =   0.00    reference energy to select bands
   IMIX   =      4    mixing-type and parameters
     AMIX     =   0.40;   BMIX     =  1.00
     AMIX_MAG =   1.60;   BMIX_MAG =  1.00
     AMIN     =   0.10
     WC   =   100.;   INIMIX=   1;  MIXPRE=   1;  MAXMIX= -45

 Intra band minimization:
   WEIMIN = 0.0010     energy-eigenvalue tresh-hold
   EBREAK =  0.18E-07  absolut break condition
   DEPER  =   0.30     relativ break condition  

   TIME   =   0.40     timestep for ELM

  volume/ion in A,a.u.               =      93.82       633.13
  Fermi-wavevector in a.u.,A,eV,Ry     =   0.616073  1.164209  5.164036  0.379546
  Thomas-Fermi vector in A             =   1.673671
 
 Write flags
   LWAVE        =      T    write WAVECAR
   LDOWNSAMPLE  =      F    k-point downsampling of WAVECAR
   LCHARG       =      T    write CHGCAR
   LVTOT        =      F    write LOCPOT, total local potential
   LVHAR        =      F    write LOCPOT, Hartree potential only
   LELF         =      F    write electronic localiz. function (ELF)
   LORBIT       =      0    0 simple, 1 ext, 2 COOP (PROOUT), +10 PAW based schemes


 Dipole corrections
   LMONO  =      F    monopole corrections only (constant potential shift)
   LDIPOL =      F    correct potential (dipole corrections)
   IDIPOL =      0    1-x, 2-y, 3-z, 4-all directions 
   EPSILON=  1.0000000 bulk dielectric constant

 Exchange correlation treatment:
   GGA     =    PE    GGA type
   LEXCH   =     8    internal setting for exchange type
   VOSKOWN=      0    Vosko Wilk Nusair interpolation
   LHFCALC =     F    Hartree Fock is set to
   LHFONE  =     F    Hartree Fock one center treatment
   AEXX    =    0.0000 exact exchange contribution

 Linear response parameters
   LEPSILON=     F    determine dielectric tensor
   LRPA    =     F    only Hartree local field effects (RPA)
   LNABLA  =     F    use nabla operator in PAW spheres
   LVEL    =     F    velocity operator in full k-point grid
   LINTERFAST=   F  fast interpolation
   KINTER  =     0    interpolate to denser k-point grid
   CSHIFT  =0.1000    complex shift for real part using Kramers Kronig
   OMEGAMAX=  -1.0    maximum frequency
   DEG_THRESHOLD= 0.2000000E-02 threshold for treating states as degnerate
   RTIME   =   -0.100 relaxation time in fs
  (WPLASMAI=    0.000 imaginary part of plasma frequency in eV, 0.658/RTIME)
   DFIELD  = 0.0000000 0.0000000 0.0000000 field for delta impulse in time
 
 Orbital magnetization related:
   ORBITALMAG=     F  switch on orbital magnetization
   LCHIMAG   =     F  perturbation theory with respect to B field
   DQ        =  0.001000  dq finite difference perturbation B field
   LLRAUG    =     F  two centre corrections for induced B field



--------------------------------------------------------------------------------------------------------


 conjugate gradient relaxation of ions
 charge density and potential will be updated during run
 non-spin polarized calculation
 Variant of blocked Davidson
 Davidson routine will perform the subspace rotation
 perform sub-space diagonalisation
    after iterative eigenvector-optimisation
 modified Broyden-mixing scheme, WC =      100.0
 initial mixing is a Kerker type mixing with AMIX =  0.4000 and BMIX =      1.0000
 Hartree-type preconditioning will be used
 using additional bands            4
 reciprocal scheme for non local part
 use partial core corrections
 calculate Harris-corrections to forces 
   (improved forces if not selfconsistent)
 use gradient corrections 
 use of overlap-Matrix (Vanderbilt PP)
 Gauss-broadening in eV      SIGMA  =   0.10


--------------------------------------------------------------------------------------------------------


  energy-cutoff  :      600.00
  volume of cell :      375.28
      direct lattice vectors                 reciprocal lattice vectors
     4.371400873 -0.005477946  0.000000000     0.228759978  0.000285950  0.000000000
    -0.005365597  4.292477857  0.000000000     0.000291937  0.232966040  0.000000000
     0.000000000  0.000000000 20.000000000     0.000000000  0.000000000  0.050000000

  length of vectors
     4.371404305  4.292481211 20.000000000     0.228760156  0.232966223  0.050000000


 
 k-points in units of 2pi/SCALE and weight: KMesh Grid                              
   0.00000000  0.00000000  0.00000000       0.004
   0.01525067  0.00001906  0.00000000       0.009
   0.03050133  0.00003813  0.00000000       0.009
   0.04575200  0.00005719  0.00000000       0.009
   0.06100266  0.00007625  0.00000000       0.009
   0.07625333  0.00009532  0.00000000       0.009
   0.09150399  0.00011438  0.00000000       0.009
   0.10675466  0.00013344  0.00000000       0.009
   0.00001946  0.01553107  0.00000000       0.009
   0.01527013  0.01555013  0.00000000       0.009
   0.03052079  0.01556920  0.00000000       0.009
   0.04577146  0.01558826  0.00000000       0.009
   0.06102212  0.01560732  0.00000000       0.009
   0.07627279  0.01562639  0.00000000       0.009
   0.09152345  0.01564545  0.00000000       0.009
   0.10677412  0.01566451  0.00000000       0.009
  -0.10673519  0.01539763  0.00000000       0.009
  -0.09148453  0.01541669  0.00000000       0.009
  -0.07623386  0.01543575  0.00000000       0.009
  -0.06098320  0.01545482  0.00000000       0.009
  -0.04573253  0.01547388  0.00000000       0.009
  -0.03048187  0.01549294  0.00000000       0.009
  -0.01523120  0.01551201  0.00000000       0.009
   0.00003892  0.03106214  0.00000000       0.009
   0.01528959  0.03108120  0.00000000       0.009
   0.03054026  0.03110027  0.00000000       0.009
   0.04579092  0.03111933  0.00000000       0.009
   0.06104159  0.03113839  0.00000000       0.009
   0.07629225  0.03115746  0.00000000       0.009
   0.09154292  0.03117652  0.00000000       0.009
   0.10679358  0.03119558  0.00000000       0.009
  -0.10671573  0.03092870  0.00000000       0.009
  -0.09146507  0.03094776  0.00000000       0.009
  -0.07621440  0.03096682  0.00000000       0.009
  -0.06096374  0.03098589  0.00000000       0.009
  -0.04571307  0.03100495  0.00000000       0.009
  -0.03046241  0.03102401  0.00000000       0.009
  -0.01521174  0.03104308  0.00000000       0.009
   0.00005839  0.04659321  0.00000000       0.009
   0.01530905  0.04661227  0.00000000       0.009
   0.03055972  0.04663133  0.00000000       0.009
   0.04581038  0.04665040  0.00000000       0.009
   0.06106105  0.04666946  0.00000000       0.009
   0.07631171  0.04668852  0.00000000       0.009
   0.09156238  0.04670759  0.00000000       0.009
   0.10681304  0.04672665  0.00000000       0.009
  -0.10669627  0.04645976  0.00000000       0.009
  -0.09144560  0.04647883  0.00000000       0.009
  -0.07619494  0.04649789  0.00000000       0.009
  -0.06094427  0.04651695  0.00000000       0.009
  -0.04569361  0.04653602  0.00000000       0.009
  -0.03044294  0.04655508  0.00000000       0.009
  -0.01519228  0.04657414  0.00000000       0.009
   0.00007785  0.06212428  0.00000000       0.009
   0.01532852  0.06214334  0.00000000       0.009
   0.03057918  0.06216240  0.00000000       0.009
   0.04582985  0.06218147  0.00000000       0.009
   0.06108051  0.06220053  0.00000000       0.009
   0.07633118  0.06221959  0.00000000       0.009
   0.09158184  0.06223866  0.00000000       0.009
   0.10683251  0.06225772  0.00000000       0.009
  -0.10667681  0.06199083  0.00000000       0.009
  -0.09142614  0.06200990  0.00000000       0.009
  -0.07617548  0.06202896  0.00000000       0.009
  -0.06092481  0.06204802  0.00000000       0.009
  -0.04567415  0.06206709  0.00000000       0.009
  -0.03042348  0.06208615  0.00000000       0.009
  -0.01517282  0.06210521  0.00000000       0.009
   0.00009731  0.07765535  0.00000000       0.009
   0.01534798  0.07767441  0.00000000       0.009
   0.03059864  0.07769347  0.00000000       0.009
   0.04584931  0.07771254  0.00000000       0.009
   0.06109997  0.07773160  0.00000000       0.009
   0.07635064  0.07775066  0.00000000       0.009
   0.09160130  0.07776973  0.00000000       0.009
   0.10685197  0.07778879  0.00000000       0.009
  -0.10665734  0.07752190  0.00000000       0.009
  -0.09140668  0.07754097  0.00000000       0.009
  -0.07615601  0.07756003  0.00000000       0.009
  -0.06090535  0.07757909  0.00000000       0.009
  -0.04565468  0.07759816  0.00000000       0.009
  -0.03040402  0.07761722  0.00000000       0.009
  -0.01515335  0.07763628  0.00000000       0.009
   0.00011677  0.09318642  0.00000000       0.009
   0.01536744  0.09320548  0.00000000       0.009
   0.03061811  0.09322454  0.00000000       0.009
   0.04586877  0.09324361  0.00000000       0.009
   0.06111944  0.09326267  0.00000000       0.009
   0.07637010  0.09328173  0.00000000       0.009
   0.09162077  0.09330080  0.00000000       0.009
   0.10687143  0.09331986  0.00000000       0.009
  -0.10663788  0.09305297  0.00000000       0.009
  -0.09138722  0.09307204  0.00000000       0.009
  -0.07613655  0.09309110  0.00000000       0.009
  -0.06088589  0.09311016  0.00000000       0.009
  -0.04563522  0.09312923  0.00000000       0.009
  -0.03038456  0.09314829  0.00000000       0.009
  -0.01513389  0.09316735  0.00000000       0.009
   0.00013624  0.10871749  0.00000000       0.009
   0.01538690  0.10873655  0.00000000       0.009
   0.03063757  0.10875561  0.00000000       0.009
   0.04588823  0.10877468  0.00000000       0.009
   0.06113890  0.10879374  0.00000000       0.009
   0.07638956  0.10881280  0.00000000       0.009
   0.09164023  0.10883187  0.00000000       0.009
   0.10689089  0.10885093  0.00000000       0.009
  -0.10661842  0.10858404  0.00000000       0.009
  -0.09136775  0.10860311  0.00000000       0.009
  -0.07611709  0.10862217  0.00000000       0.009
  -0.06086642  0.10864123  0.00000000       0.009
  -0.04561576  0.10866030  0.00000000       0.009
  -0.03036509  0.10867936  0.00000000       0.009
  -0.01511443  0.10869842  0.00000000       0.009
 
 k-points in reciprocal lattice and weights: KMesh Grid                              
   0.00000000  0.00000000  0.00000000       0.004
   0.06666667 -0.00000000  0.00000000       0.009
   0.13333333 -0.00000000  0.00000000       0.009
   0.20000000 -0.00000000  0.00000000       0.009
   0.26666667 -0.00000000  0.00000000       0.009
   0.33333333  0.00000000  0.00000000       0.009
   0.40000000 -0.00000000  0.00000000       0.009
   0.46666667 -0.00000000  0.00000000       0.009
  -0.00000000  0.06666667  0.00000000       0.009
   0.06666667  0.06666667  0.00000000       0.009
   0.13333333  0.06666667  0.00000000       0.009
   0.20000000  0.06666667  0.00000000       0.009
   0.26666667  0.06666667  0.00000000       0.009
   0.33333333  0.06666667  0.00000000       0.009
   0.40000000  0.06666667  0.00000000       0.009
   0.46666667  0.06666667  0.00000000       0.009
  -0.46666667  0.06666667  0.00000000       0.009
  -0.40000000  0.06666667  0.00000000       0.009
  -0.33333333  0.06666667  0.00000000       0.009
  -0.26666667  0.06666667  0.00000000       0.009
  -0.20000000  0.06666667  0.00000000       0.009
  -0.13333333  0.06666667  0.00000000       0.009
  -0.06666667  0.06666667  0.00000000       0.009
  -0.00000000  0.13333333  0.00000000       0.009
   0.06666667  0.13333333  0.00000000       0.009
   0.13333333  0.13333333  0.00000000       0.009
   0.20000000  0.13333333  0.00000000       0.009
   0.26666667  0.13333333  0.00000000       0.009
   0.33333333  0.13333333  0.00000000       0.009
   0.40000000  0.13333333  0.00000000       0.009
   0.46666667  0.13333333  0.00000000       0.009
  -0.46666667  0.13333333  0.00000000       0.009
  -0.40000000  0.13333333  0.00000000       0.009
  -0.33333333  0.13333333  0.00000000       0.009
  -0.26666667  0.13333333  0.00000000       0.009
  -0.20000000  0.13333333  0.00000000       0.009
  -0.13333333  0.13333333  0.00000000       0.009
  -0.06666667  0.13333333  0.00000000       0.009
  -0.00000000  0.20000000  0.00000000       0.009
   0.06666667  0.20000000  0.00000000       0.009
   0.13333333  0.20000000  0.00000000       0.009
   0.20000000  0.20000000  0.00000000       0.009
   0.26666667  0.20000000  0.00000000       0.009
   0.33333333  0.20000000  0.00000000       0.009
   0.40000000  0.20000000  0.00000000       0.009
   0.46666667  0.20000000  0.00000000       0.009
  -0.46666667  0.20000000  0.00000000       0.009
  -0.40000000  0.20000000  0.00000000       0.009
  -0.33333333  0.20000000  0.00000000       0.009
  -0.26666667  0.20000000  0.00000000       0.009
  -0.20000000  0.20000000  0.00000000       0.009
  -0.13333333  0.20000000  0.00000000       0.009
  -0.06666667  0.20000000  0.00000000       0.009
  -0.00000000  0.26666667  0.00000000       0.009
   0.06666667  0.26666667  0.00000000       0.009
   0.13333333  0.26666667  0.00000000       0.009
   0.20000000  0.26666667  0.00000000       0.009
   0.26666667  0.26666667  0.00000000       0.009
   0.33333333  0.26666667  0.00000000       0.009
   0.40000000  0.26666667  0.00000000       0.009
   0.46666667  0.26666667  0.00000000       0.009
  -0.46666667  0.26666667  0.00000000       0.009
  -0.40000000  0.26666667  0.00000000       0.009
  -0.33333333  0.26666667  0.00000000       0.009
  -0.26666667  0.26666667  0.00000000       0.009
  -0.20000000  0.26666667  0.00000000       0.009
  -0.13333333  0.26666667  0.00000000       0.009
  -0.06666667  0.26666667  0.00000000       0.009
  -0.00000000  0.33333333  0.00000000       0.009
   0.06666667  0.33333333  0.00000000       0.009
   0.13333333  0.33333333  0.00000000       0.009
   0.20000000  0.33333333  0.00000000       0.009
   0.26666667  0.33333333  0.00000000       0.009
   0.33333333  0.33333333  0.00000000       0.009
   0.40000000  0.33333333  0.00000000       0.009
   0.46666667  0.33333333  0.00000000       0.009
  -0.46666667  0.33333333  0.00000000       0.009
  -0.40000000  0.33333333  0.00000000       0.009
  -0.33333333  0.33333333  0.00000000       0.009
  -0.26666667  0.33333333  0.00000000       0.009
  -0.20000000  0.33333333  0.00000000       0.009
  -0.13333333  0.33333333  0.00000000       0.009
  -0.06666667  0.33333333  0.00000000       0.009
  -0.00000000  0.40000000  0.00000000       0.009
   0.06666667  0.40000000  0.00000000       0.009
   0.13333333  0.40000000  0.00000000       0.009
   0.20000000  0.40000000  0.00000000       0.009
   0.26666667  0.40000000  0.00000000       0.009
   0.33333333  0.40000000  0.00000000       0.009
   0.40000000  0.40000000  0.00000000       0.009
   0.46666667  0.40000000  0.00000000       0.009
  -0.46666667  0.40000000  0.00000000       0.009
  -0.40000000  0.40000000  0.00000000       0.009
  -0.33333333  0.40000000  0.00000000       0.009
  -0.26666667  0.40000000  0.00000000       0.009
  -0.20000000  0.40000000  0.00000000       0.009
  -0.13333333  0.40000000  0.00000000       0.009
  -0.06666667  0.40000000  0.00000000       0.009
  -0.00000000  0.46666667  0.00000000       0.009
   0.06666667  0.46666667  0.00000000       0.009
   0.13333333  0.46666667  0.00000000       0.009
   0.20000000  0.46666667  0.00000000       0.009
   0.26666667  0.46666667  0.00000000       0.009
   0.33333333  0.46666667  0.00000000       0.009
   0.40000000  0.46666667  0.00000000       0.009
   0.46666667  0.46666667  0.00000000       0.009
  -0.46666667  0.46666667  0.00000000       0.009
  -0.40000000  0.46666667  0.00000000       0.009
  -0.33333333  0.46666667  0.00000000       0.009
  -0.26666667  0.46666667  0.00000000       0.009
  -0.20000000  0.46666667  0.00000000       0.009
  -0.13333333  0.46666667  0.00000000       0.009
  -0.06666667  0.46666667  0.00000000       0.009
 
 position of ions in fractional coordinates (direct lattice) 
   0.58124336  0.75000000  0.56874314
   0.08124336  0.25000000  0.43125686
   0.03286064  0.25000000  0.56707387
   0.53286061  0.75000000  0.43292613
 
 position of ions in cartesian coordinates  (Angst):
   2.53682353  3.21617437 11.37486283
   0.35380589  1.07267442  8.62513717
   0.14230564  1.07293946 11.34147733
   2.32532316  3.21643941  8.65852267
 


--------------------------------------------------------------------------------------------------------


 k-point  1 :   0.0000 0.0000 0.0000  plane waves:   12591
 k-point  2 :   0.0667-0.0000 0.0000  plane waves:   12567
 k-point  3 :   0.1333-0.0000 0.0000  plane waves:   12550
 k-point  4 :   0.2000-0.0000 0.0000  plane waves:   12517
 k-point  5 :   0.2667-0.0000 0.0000  plane waves:   12501
 k-point  6 :   0.3333 0.0000 0.0000  plane waves:   12540
 k-point  7 :   0.4000-0.0000 0.0000  plane waves:   12562
 k-point  8 :   0.4667-0.0000 0.0000  plane waves:   12554
 k-point  9 :  -0.0000 0.0667 0.0000  plane waves:   12563
 k-point 10 :   0.0667 0.0667 0.0000  plane waves:   12556
 k-point 11 :   0.1333 0.0667 0.0000  plane waves:   12536
 k-point 12 :   0.2000 0.0667 0.0000  plane waves:   12530
 k-point 13 :   0.2667 0.0667 0.0000  plane waves:   12526
 k-point 14 :   0.3333 0.0667 0.0000  plane waves:   12537
 k-point 15 :   0.4000 0.0667 0.0000  plane waves:   12562
 k-point 16 :   0.4667 0.0667 0.0000  plane waves:   12558
 k-point 17 :  -0.4667 0.0667 0.0000  plane waves:   12550
 k-point 18 :  -0.4000 0.0667 0.0000  plane waves:   12562
 k-point 19 :  -0.3333 0.0667 0.0000  plane waves:   12533
 k-point 20 :  -0.2667 0.0667 0.0000  plane waves:   12520
 k-point 21 :  -0.2000 0.0667 0.0000  plane waves:   12527
 k-point 22 :  -0.1333 0.0667 0.0000  plane waves:   12524
 k-point 23 :  -0.0667 0.0667 0.0000  plane waves:   12549
 k-point 24 :  -0.0000 0.1333 0.0000  plane waves:   12542
 k-point 25 :   0.0667 0.1333 0.0000  plane waves:   12548
 k-point 26 :   0.1333 0.1333 0.0000  plane waves:   12516
 k-point 27 :   0.2000 0.1333 0.0000  plane waves:   12515
 k-point 28 :   0.2667 0.1333 0.0000  plane waves:   12518
 k-point 29 :   0.3333 0.1333 0.0000  plane waves:   12544
 k-point 30 :   0.4000 0.1333 0.0000  plane waves:   12553
 k-point 31 :   0.4667 0.1333 0.0000  plane waves:   12538
 k-point 32 :  -0.4667 0.1333 0.0000  plane waves:   12543
 k-point 33 :  -0.4000 0.1333 0.0000  plane waves:   12535
 k-point 34 :  -0.3333 0.1333 0.0000  plane waves:   12542
 k-point 35 :  -0.2667 0.1333 0.0000  plane waves:   12522
 k-point 36 :  -0.2000 0.1333 0.0000  plane waves:   12503
 k-point 37 :  -0.1333 0.1333 0.0000  plane waves:   12517
 k-point 38 :  -0.0667 0.1333 0.0000  plane waves:   12544
 k-point 39 :  -0.0000 0.2000 0.0000  plane waves:   12541
 k-point 40 :   0.0667 0.2000 0.0000  plane waves:   12531
 k-point 41 :   0.1333 0.2000 0.0000  plane waves:   12550
 k-point 42 :   0.2000 0.2000 0.0000  plane waves:   12533
 k-point 43 :   0.2667 0.2000 0.0000  plane waves:   12512
 k-point 44 :   0.3333 0.2000 0.0000  plane waves:   12528
 k-point 45 :   0.4000 0.2000 0.0000  plane waves:   12528
 k-point 46 :   0.4667 0.2000 0.0000  plane waves:   12541
 k-point 47 :  -0.4667 0.2000 0.0000  plane waves:   12541
 k-point 48 :  -0.4000 0.2000 0.0000  plane waves:   12526
 k-point 49 :  -0.3333 0.2000 0.0000  plane waves:   12521
 k-point 50 :  -0.2667 0.2000 0.0000  plane waves:   12509
 k-point 51 :  -0.2000 0.2000 0.0000  plane waves:   12525
 k-point 52 :  -0.1333 0.2000 0.0000  plane waves:   12538
 k-point 53 :  -0.0667 0.2000 0.0000  plane waves:   12530
 k-point 54 :  -0.0000 0.2667 0.0000  plane waves:   12531
 k-point 55 :   0.0667 0.2667 0.0000  plane waves:   12513
 k-point 56 :   0.1333 0.2667 0.0000  plane waves:   12528
 k-point 57 :   0.2000 0.2667 0.0000  plane waves:   12523
 k-point 58 :   0.2667 0.2667 0.0000  plane waves:   12520
 k-point 59 :   0.3333 0.2667 0.0000  plane waves:   12529
 k-point 60 :   0.4000 0.2667 0.0000  plane waves:   12519
 k-point 61 :   0.4667 0.2667 0.0000  plane waves:   12535
 k-point 62 :  -0.4667 0.2667 0.0000  plane waves:   12531
 k-point 63 :  -0.4000 0.2667 0.0000  plane waves:   12514
 k-point 64 :  -0.3333 0.2667 0.0000  plane waves:   12524
 k-point 65 :  -0.2667 0.2667 0.0000  plane waves:   12520
 k-point 66 :  -0.2000 0.2667 0.0000  plane waves:   12523
 k-point 67 :  -0.1333 0.2667 0.0000  plane waves:   12533
 k-point 68 :  -0.0667 0.2667 0.0000  plane waves:   12520
 k-point 69 :  -0.0000 0.3333 0.0000  plane waves:   12501
 k-point 70 :   0.0667 0.3333 0.0000  plane waves:   12503
 k-point 71 :   0.1333 0.3333 0.0000  plane waves:   12516
 k-point 72 :   0.2000 0.3333 0.0000  plane waves:   12533
 k-point 73 :   0.2667 0.3333 0.0000  plane waves:   12509
 k-point 74 :   0.3333 0.3333 0.0000  plane waves:   12508
 k-point 75 :   0.4000 0.3333 0.0000  plane waves:   12515
 k-point 76 :   0.4667 0.3333 0.0000  plane waves:   12525
 k-point 77 :  -0.4667 0.3333 0.0000  plane waves:   12515
 k-point 78 :  -0.4000 0.3333 0.0000  plane waves:   12516
 k-point 79 :  -0.3333 0.3333 0.0000  plane waves:   12503
 k-point 80 :  -0.2667 0.3333 0.0000  plane waves:   12495
 k-point 81 :  -0.2000 0.3333 0.0000  plane waves:   12515
 k-point 82 :  -0.1333 0.3333 0.0000  plane waves:   12522
 k-point 83 :  -0.0667 0.3333 0.0000  plane waves:   12508
 k-point 84 :  -0.0000 0.4000 0.0000  plane waves:   12481
 k-point 85 :   0.0667 0.4000 0.0000  plane waves:   12503
 k-point 86 :   0.1333 0.4000 0.0000  plane waves:   12518
 k-point 87 :   0.2000 0.4000 0.0000  plane waves:   12507
 k-point 88 :   0.2667 0.4000 0.0000  plane waves:   12507
 k-point 89 :   0.3333 0.4000 0.0000  plane waves:   12500
 k-point 90 :   0.4000 0.4000 0.0000  plane waves:   12494
 k-point 91 :   0.4667 0.4000 0.0000  plane waves:   12513
 k-point 92 :  -0.4667 0.4000 0.0000  plane waves:   12519
 k-point 93 :  -0.4000 0.4000 0.0000  plane waves:   12500
 k-point 94 :  -0.3333 0.4000 0.0000  plane waves:   12506
 k-point 95 :  -0.2667 0.4000 0.0000  plane waves:   12524
 k-point 96 :  -0.2000 0.4000 0.0000  plane waves:   12508
 k-point 97 :  -0.1333 0.4000 0.0000  plane waves:   12524
 k-point 98 :  -0.0667 0.4000 0.0000  plane waves:   12501
 k-point 99 :  -0.0000 0.4667 0.0000  plane waves:   12488
 k-point ** :   0.0667 0.4667 0.0000  plane waves:   12514
 k-point ** :   0.1333 0.4667 0.0000  plane waves:   12502
 k-point ** :   0.2000 0.4667 0.0000  plane waves:   12496
 k-point ** :   0.2667 0.4667 0.0000  plane waves:   12498
 k-point ** :   0.3333 0.4667 0.0000  plane waves:   12481
 k-point ** :   0.4000 0.4667 0.0000  plane waves:   12489
 k-point ** :   0.4667 0.4667 0.0000  plane waves:   12498
 k-point ** :  -0.4667 0.4667 0.0000  plane waves:   12508
 k-point ** :  -0.4000 0.4667 0.0000  plane waves:   12489
 k-point ** :  -0.3333 0.4667 0.0000  plane waves:   12493
 k-point ** :  -0.2667 0.4667 0.0000  plane waves:   12484
 k-point ** :  -0.2000 0.4667 0.0000  plane waves:   12510
 k-point ** :  -0.1333 0.4667 0.0000  plane waves:   12504
 k-point ** :  -0.0667 0.4667 0.0000  plane waves:   12512

 maximum and minimum number of plane-waves per node :       542      501

 maximum number of plane-waves:     12591
 maximum index in each direction: 
   IXMAX=    9   IYMAX=    8   IZMAX=   39
   IXMIN=   -9   IYMIN=   -9   IZMIN=  -39


 parallel 3D FFT for wavefunctions:
    minimum data exchange during FFTs selected (reduces bandwidth)
 parallel 3D FFT for charge:
    minimum data exchange during FFTs selected (reduces bandwidth)


 total amount of memory used by VASP MPI-rank0    63368. kBytes
=======================================================================

   base      :      30000. kBytes
   nonl-proj :      12538. kBytes
   fftplans  :       2678. kBytes
   grid      :       4349. kBytes
   one-center:          8. kBytes
   wavefun   :      13795. kBytes
 
     INWAV:  cpu time    0.0000: real time    0.0000
 Broyden mixing: mesh for mixing (old mesh)
   NGX = 17   NGY = 17   NGZ = 79
  (NGX  = 72   NGY  = 72   NGZ  =320)
  gives a total of  22831 points

 initial charge density was supplied:
 charge density of overlapping atoms calculated
 number of electron      20.0000000 magnetization 
 keeping initial charge density in first step


--------------------------------------------------------------------------------------------------------


 Maximum index for augmentation-charges         2230 (set IRDMAX)


--------------------------------------------------------------------------------------------------------


 First call to EWALD:  gamma=   0.246
 Maximum number of real-space cells 4x 4x 1
 Maximum number of reciprocal cells 2x 2x 7

    FEWALD:  cpu time    0.0011: real time    0.0011


--------------------------------------- Iteration      1(   1)  ---------------------------------------


    POTLOK:  cpu time    0.0574: real time    0.1650
    SETDIJ:  cpu time    0.0051: real time    0.0052
     EDDAV:  cpu time    2.7445: real time    2.7492
       DOS:  cpu time    0.0046: real time    0.0046
    --------------------------------------------
      LOOP:  cpu time    2.8116: real time    2.9239

 eigenvalue-minimisations  :  3164
 total energy-change (2. order) : 0.1434112E+03  (-0.6286717E+03)
 number of electron      20.0000000 magnetization 
 augmentation part       20.0000000 magnetization 

 Free energy of the ion-electron system (eV)
  ---------------------------------------------------
  alpha Z        PSCENC =         9.52805256
  Ewald energy   TEWEN  =      1156.74837074
  -Hartree energ DENC   =     -1758.69100255
  -exchange      EXHF   =         0.00000000
  -V(xc)+E(xc)   XCENC  =      -238.57039130
  PAW double counting   =       799.43158084     -524.17639913
  entropy T*S    EENTRO =        -0.01330746
  eigenvalues    EBANDS =        -3.27356525
  atomic energy  EATOM  =       702.42789710
  Solvation  Ediel_sol  =         0.00000000
  ---------------------------------------------------
  free energy    TOTEN  =       143.41123556 eV

  energy without entropy =      143.42454301  energy(sigma->0) =      143.41788928


--------------------------------------------------------------------------------------------------------




--------------------------------------- Iteration      1(   2)  ---------------------------------------


     EDDAV:  cpu time    3.9044: real time    3.9109
       DOS:  cpu time    0.0048: real time    0.0048
    --------------------------------------------
      LOOP:  cpu time    3.9092: real time    3.9157

 eigenvalue-minimisations  :  5076
 total energy-change (2. order) :-0.1382685E+03  (-0.1336090E+03)
 number of electron      20.0000000 magnetization 
 augmentation part       20.0000000 magnetization 

 Free energy of the ion-electron system (eV)
  ---------------------------------------------------
  alpha Z        PSCENC =         9.52805256
  Ewald energy   TEWEN  =      1156.74837074
  -Hartree energ DENC   =     -1758.69100255
  -exchange      EXHF   =         0.00000000
  -V(xc)+E(xc)   XCENC  =      -238.57039130
  PAW double counting   =       799.43158084     -524.17639913
  entropy T*S    EENTRO =        -0.00153266
  eigenvalues    EBANDS =      -141.55386657
  atomic energy  EATOM  =       702.42789710
  Solvation  Ediel_sol  =         0.00000000
  ---------------------------------------------------
  free energy    TOTEN  =         5.14270903 eV

  energy without entropy =        5.14424169  energy(sigma->0) =        5.14347536


--------------------------------------------------------------------------------------------------------




--------------------------------------- Iteration      1(   3)  ---------------------------------------


     EDDAV:  cpu time    3.2636: real time    3.2710
       DOS:  cpu time    0.0032: real time    0.0032
    --------------------------------------------
      LOOP:  cpu time    3.2668: real time    3.2742

 eigenvalue-minimisations  :  4018
 total energy-change (2. order) :-0.2110733E+02  (-0.2092585E+02)
 number of electron      20.0000000 magnetization 
 augmentation part       20.0000000 magnetization 

 Free energy of the ion-electron system (eV)
  ---------------------------------------------------
  alpha Z        PSCENC =         9.52805256
  Ewald energy   TEWEN  =      1156.74837074
  -Hartree energ DENC   =     -1758.69100255
  -exchange      EXHF   =         0.00000000
  -V(xc)+E(xc)   XCENC  =      -238.57039130
  PAW double counting   =       799.43158084     -524.17639913
  entropy T*S    EENTRO =        -0.00000000
  eigenvalues    EBANDS =      -162.66273060
  atomic energy  EATOM  =       702.42789710
  Solvation  Ediel_sol  =         0.00000000
  ---------------------------------------------------
  free energy    TOTEN  =       -15.96462234 eV

  energy without entropy =      -15.96462234  energy(sigma->0) =      -15.96462234


--------------------------------------------------------------------------------------------------------




--------------------------------------- Iteration      1(   4)  ---------------------------------------


     EDDAV:  cpu time    3.5679: real time    3.5739
       DOS:  cpu time    0.0031: real time    0.0031
    --------------------------------------------
      LOOP:  cpu time    3.5710: real time    3.5770

 eigenvalue-minimisations  :  4524
 total energy-change (2. order) :-0.8130012E+00  (-0.8110237E+00)
 number of electron      20.0000000 magnetization 
 augmentation part       20.0000000 magnetization 

 Free energy of the ion-electron system (eV)
  ---------------------------------------------------
  alpha Z        PSCENC =         9.52805256
  Ewald energy   TEWEN  =      1156.74837074
  -Hartree energ DENC   =     -1758.69100255
  -exchange      EXHF   =         0.00000000
  -V(xc)+E(xc)   XCENC  =      -238.57039130
  PAW double counting   =       799.43158084     -524.17639913
  entropy T*S    EENTRO =        -0.00000000
  eigenvalues    EBANDS =      -163.47573177
  atomic energy  EATOM  =       702.42789710
  Solvation  Ediel_sol  =         0.00000000
  ---------------------------------------------------
  free energy    TOTEN  =       -16.77762351 eV

  energy without entropy =      -16.77762351  energy(sigma->0) =      -16.77762351


--------------------------------------------------------------------------------------------------------




--------------------------------------- Iteration      1(   5)  ---------------------------------------


     EDDAV:  cpu time    3.3053: real time    3.3106
       DOS:  cpu time    0.0032: real time    0.0032
    CHARGE:  cpu time    0.2282: real time    0.2285
    MIXING:  cpu time    0.0033: real time    0.0033
    --------------------------------------------
      LOOP:  cpu time    3.5400: real time    3.5457

 eigenvalue-minimisations  :  4140
 total energy-change (2. order) :-0.1633894E-01  (-0.1632635E-01)
 number of electron      20.0000000 magnetization 
 augmentation part       -4.5236799 magnetization 

 Broyden mixing:
  rms(total) = 0.45253E+00    rms(broyden)= 0.45253E+00
  rms(prec ) = 0.49283E+00
  weight for this iteration     100.00

 Free energy of the ion-electron system (eV)
  ---------------------------------------------------
  alpha Z        PSCENC =         9.52805256
  Ewald energy   TEWEN  =      1156.74837074
  -Hartree energ DENC   =     -1758.69100255
  -exchange      EXHF   =         0.00000000
  -V(xc)+E(xc)   XCENC  =      -238.57039130
  PAW double counting   =       799.43158084     -524.17639913
  entropy T*S    EENTRO =        -0.00000000
  eigenvalues    EBANDS =      -163.49207071
  atomic energy  EATOM  =       702.42789710
  Solvation  Ediel_sol  =         0.00000000
  ---------------------------------------------------
  free energy    TOTEN  =       -16.79396245 eV

  energy without entropy =      -16.79396245  energy(sigma->0) =      -16.79396245


--------------------------------------------------------------------------------------------------------




--------------------------------------- Iteration      1(   6)  ---------------------------------------


    POTLOK:  cpu time    0.0431: real time    0.0432
    SETDIJ:  cpu time    0.0035: real time    0.0035
     EDDAV:  cpu time    3.1860: real time    3.1911
       DOS:  cpu time    0.0033: real time    0.0033
    CHARGE:  cpu time    0.2312: real time    0.2315
    MIXING:  cpu time    0.0018: real time    0.0018
    --------------------------------------------
      LOOP:  cpu time    3.4688: real time    3.4744

 eigenvalue-minimisations  :  3906
 total energy-change (2. order) : 0.4881384E+00  (-0.1244276E+00)
 number of electron      20.0000000 magnetization 
 augmentation part       -4.4911700 magnetization 

 Broyden mixing:
  rms(total) = 0.27778E+00    rms(broyden)= 0.27778E+00
  rms(prec ) = 0.28691E+00
  weight for this iteration     100.00

 eigenvalues of (default mixing * dielectric matrix)
  average eigenvalue GAMMA=   1.8071
  1.8071

 Free energy of the ion-electron system (eV)
  ---------------------------------------------------
  alpha Z        PSCENC =         9.52805256
  Ewald energy   TEWEN  =      1156.74837074
  -Hartree energ DENC   =     -1766.56941028
  -exchange      EXHF   =         0.00000000
  -V(xc)+E(xc)   XCENC  =      -238.08786179
  PAW double counting   =       924.78763810     -649.71569560
  entropy T*S    EENTRO =        -0.00000000
  eigenvalues    EBANDS =      -155.42481488
  atomic energy  EATOM  =       702.42789710
  Solvation  Ediel_sol  =         0.00000000
  ---------------------------------------------------
  free energy    TOTEN  =       -16.30582404 eV

  energy without entropy =      -16.30582404  energy(sigma->0) =      -16.30582404


--------------------------------------------------------------------------------------------------------




--------------------------------------- Iteration      1(   7)  ---------------------------------------


    POTLOK:  cpu time    0.0501: real time    0.0502
    SETDIJ:  cpu time    0.0035: real time    0.0035
     EDDAV:  cpu time    3.3441: real time    3.3511
       DOS:  cpu time    0.0033: real time    0.0033
    CHARGE:  cpu time    0.2367: real time    0.2370
    MIXING:  cpu time    0.0018: real time    0.0018
    --------------------------------------------
      LOOP:  cpu time    3.6395: real time    3.6468

 eigenvalue-minimisations  :  4162
 total energy-change (2. order) : 0.2796080E-01  (-0.3121332E-01)
 number of electron      20.0000000 magnetization 
 augmentation part       -4.4826651 magnetization 

 Broyden mixing:
  rms(total) = 0.10456E+00    rms(broyden)= 0.10456E+00
  rms(prec ) = 0.10997E+00
  weight for this iteration     100.00

 eigenvalues of (default mixing * dielectric matrix)
  average eigenvalue GAMMA=   1.7327
  1.3701  2.0953

 Free energy of the ion-electron system (eV)
  ---------------------------------------------------
  alpha Z        PSCENC =         9.52805256
  Ewald energy   TEWEN  =      1156.74837074
  -Hartree energ DENC   =     -1771.63035276
  -exchange      EXHF   =         0.00000000
  -V(xc)+E(xc)   XCENC  =      -237.76201488
  PAW double counting   =      1067.29345075     -792.36217877
  entropy T*S    EENTRO =        -0.00000000
  eigenvalues    EBANDS =      -150.52108797
  atomic energy  EATOM  =       702.42789710
  Solvation  Ediel_sol  =         0.00000000
  ---------------------------------------------------
  free energy    TOTEN  =       -16.27786324 eV

  energy without entropy =      -16.27786324  energy(sigma->0) =      -16.27786324


--------------------------------------------------------------------------------------------------------




--------------------------------------- Iteration      1(   8)  ---------------------------------------


    POTLOK:  cpu time    0.0431: real time    0.0433
    SETDIJ:  cpu time    0.0035: real time    0.0035
     EDDAV:  cpu time    3.6122: real time    3.6181
       DOS:  cpu time    0.0033: real time    0.0033
    CHARGE:  cpu time    0.2423: real time    0.2427
    MIXING:  cpu time    0.0018: real time    0.0018
    --------------------------------------------
      LOOP:  cpu time    3.9062: real time    3.9126

 eigenvalue-minimisations  :  4486
 total energy-change (2. order) : 0.9695712E-02  (-0.3806593E-02)
 number of electron      20.0000000 magnetization 
 augmentation part       -4.4868544 magnetization 

 Broyden mixing:
  rms(total) = 0.20260E-01    rms(broyden)= 0.20260E-01
  rms(prec ) = 0.27732E-01
  weight for this iteration     100.00

 eigenvalues of (default mixing * dielectric matrix)
  average eigenvalue GAMMA=   1.7083
  2.5304  1.2973  1.2973

 Free energy of the ion-electron system (eV)
  ---------------------------------------------------
  alpha Z        PSCENC =         9.52805256
  Ewald energy   TEWEN  =      1156.74837074
  -Hartree energ DENC   =     -1773.34324998
  -exchange      EXHF   =         0.00000000
  -V(xc)+E(xc)   XCENC  =      -237.68284535
  PAW double counting   =      1133.29059553     -858.39849480
  entropy T*S    EENTRO =        -0.00000000
  eigenvalues    EBANDS =      -148.83849332
  atomic energy  EATOM  =       702.42789710
  Solvation  Ediel_sol  =         0.00000000
  ---------------------------------------------------
  free energy    TOTEN  =       -16.26816753 eV

  energy without entropy =      -16.26816753  energy(sigma->0) =      -16.26816753


--------------------------------------------------------------------------------------------------------




--------------------------------------- Iteration      1(   9)  ---------------------------------------


    POTLOK:  cpu time    0.0477: real time    0.0478
    SETDIJ:  cpu time    0.0034: real time    0.0034
     EDDAV:  cpu time    3.4304: real time    3.4360
       DOS:  cpu time    0.0033: real time    0.0033
    CHARGE:  cpu time    0.2226: real time    0.2229
    MIXING:  cpu time    0.0017: real time    0.0017
    --------------------------------------------
      LOOP:  cpu time    3.7092: real time    3.7151

 eigenvalue-minimisations  :  4340
 total energy-change (2. order) : 0.3742722E-02  (-0.6541688E-03)
 number of electron      20.0000000 magnetization 
 augmentation part       -4.4849502 magnetization 

 Broyden mixing:
  rms(total) = 0.10055E-01    rms(broyden)= 0.10055E-01
  rms(prec ) = 0.15641E-01
  weight for this iteration     100.00

 eigenvalues of (default mixing * dielectric matrix)
  average eigenvalue GAMMA=   1.7044
  2.2193  2.2193  1.1896  1.1896

 Free energy of the ion-electron system (eV)
  ---------------------------------------------------
  alpha Z        PSCENC =         9.52805256
  Ewald energy   TEWEN  =      1156.74837074
  -Hartree energ DENC   =     -1775.32686090
  -exchange      EXHF   =         0.00000000
  -V(xc)+E(xc)   XCENC  =      -237.60981728
  PAW double counting   =      1151.37113063     -876.49102282
  entropy T*S    EENTRO =        -0.00000000
  eigenvalues    EBANDS =      -146.91217482
  atomic energy  EATOM  =       702.42789710
  Solvation  Ediel_sol  =         0.00000000
  ---------------------------------------------------
  free energy    TOTEN  =       -16.26442481 eV

  energy without entropy =      -16.26442481  energy(sigma->0) =      -16.26442481


--------------------------------------------------------------------------------------------------------




--------------------------------------- Iteration      1(  10)  ---------------------------------------


    POTLOK:  cpu time    0.0462: real time    0.0464
    SETDIJ:  cpu time    0.0034: real time    0.0034
     EDDAV:  cpu time    3.4773: real time    3.4829
       DOS:  cpu time    0.0033: real time    0.0033
    CHARGE:  cpu time    0.2441: real time    0.2444
    MIXING:  cpu time    0.0019: real time    0.0019
    --------------------------------------------
      LOOP:  cpu time    3.7762: real time    3.7823

 eigenvalue-minimisations  :  4388
 total energy-change (2. order) : 0.1276806E-02  (-0.1196727E-03)
 number of electron      20.0000000 magnetization 
 augmentation part       -4.4836777 magnetization 

 Broyden mixing:
  rms(total) = 0.51013E-02    rms(broyden)= 0.51013E-02
  rms(prec ) = 0.93805E-02
  weight for this iteration     100.00

 eigenvalues of (default mixing * dielectric matrix)
  average eigenvalue GAMMA=   1.8678
  3.3565  2.5952  1.2395  1.2395  0.9085

 Free energy of the ion-electron system (eV)
  ---------------------------------------------------
  alpha Z        PSCENC =         9.52805256
  Ewald energy   TEWEN  =      1156.74837074
  -Hartree energ DENC   =     -1776.60101543
  -exchange      EXHF   =         0.00000000
  -V(xc)+E(xc)   XCENC  =      -237.59844916
  PAW double counting   =      1140.97470772     -866.08443615
  entropy T*S    EENTRO =        -0.00000000
  eigenvalues    EBANDS =      -145.65827537
  atomic energy  EATOM  =       702.42789710
  Solvation  Ediel_sol  =         0.00000000
  ---------------------------------------------------
  free energy    TOTEN  =       -16.26314800 eV

  energy without entropy =      -16.26314800  energy(sigma->0) =      -16.26314800


--------------------------------------------------------------------------------------------------------




--------------------------------------- Iteration      1(  11)  ---------------------------------------


    POTLOK:  cpu time    0.0486: real time    0.0487
    SETDIJ:  cpu time    0.0034: real time    0.0034
     EDDAV:  cpu time    3.4240: real time    3.4295
       DOS:  cpu time    0.0034: real time    0.0034
    CHARGE:  cpu time    0.2221: real time    0.2224
    MIXING:  cpu time    0.0018: real time    0.0018
    --------------------------------------------
      LOOP:  cpu time    3.7033: real time    3.7092

 eigenvalue-minimisations  :  4286
 total energy-change (2. order) : 0.7313825E-03  (-0.1269555E-03)
 number of electron      20.0000000 magnetization 
 augmentation part       -4.4822832 magnetization 

 Broyden mixing:
  rms(total) = 0.32909E-02    rms(broyden)= 0.32909E-02
  rms(prec ) = 0.50053E-02
  weight for this iteration     100.00

 eigenvalues of (default mixing * dielectric matrix)
  average eigenvalue GAMMA=   1.8443
  3.4058  2.1954  2.1954  1.1941  1.1941  0.8810

 Free energy of the ion-electron system (eV)
  ---------------------------------------------------
  alpha Z        PSCENC =         9.52805256
  Ewald energy   TEWEN  =      1156.74837074
  -Hartree energ DENC   =     -1778.21400568
  -exchange      EXHF   =         0.00000000
  -V(xc)+E(xc)   XCENC  =      -237.56693817
  PAW double counting   =      1142.34387508     -867.45251193
  entropy T*S    EENTRO =        -0.00000000
  eigenvalues    EBANDS =      -144.07715631
  atomic energy  EATOM  =       702.42789710
  Solvation  Ediel_sol  =         0.00000000
  ---------------------------------------------------
  free energy    TOTEN  =       -16.26241662 eV

  energy without entropy =      -16.26241662  energy(sigma->0) =      -16.26241662


--------------------------------------------------------------------------------------------------------




--------------------------------------- Iteration      1(  12)  ---------------------------------------


    POTLOK:  cpu time    0.0487: real time    0.0489
    SETDIJ:  cpu time    0.0035: real time    0.0035
     EDDAV:  cpu time    3.0513: real time    3.0563
       DOS:  cpu time    0.0033: real time    0.0034
    CHARGE:  cpu time    0.2248: real time    0.2251
    MIXING:  cpu time    0.0019: real time    0.0019
    --------------------------------------------
      LOOP:  cpu time    3.3335: real time    3.3390

 eigenvalue-minimisations  :  3626
 total energy-change (2. order) :-0.8328638E-03  (-0.2996235E-04)
 number of electron      20.0000000 magnetization 
 augmentation part       -4.4816467 magnetization 

 Broyden mixing:
  rms(total) = 0.18519E-02    rms(broyden)= 0.18519E-02
  rms(prec ) = 0.28140E-02
  weight for this iteration     100.00

 eigenvalues of (default mixing * dielectric matrix)
  average eigenvalue GAMMA=   2.0678
  4.6046  3.0823  2.5043  1.2074  1.2074  1.0242  0.8447

 Free energy of the ion-electron system (eV)
  ---------------------------------------------------
  alpha Z        PSCENC =         9.52805256
  Ewald energy   TEWEN  =      1156.74837074
  -Hartree energ DENC   =     -1778.85719752
  -exchange      EXHF   =         0.00000000
  -V(xc)+E(xc)   XCENC  =      -237.55727577
  PAW double counting   =      1144.20673646     -869.31813755
  entropy T*S    EENTRO =        -0.00000000
  eigenvalues    EBANDS =      -143.44169550
  atomic energy  EATOM  =       702.42789710
  Solvation  Ediel_sol  =         0.00000000
  ---------------------------------------------------
  free energy    TOTEN  =       -16.26324948 eV

  energy without entropy =      -16.26324948  energy(sigma->0) =      -16.26324948


--------------------------------------------------------------------------------------------------------




--------------------------------------- Iteration      1(  13)  ---------------------------------------


    POTLOK:  cpu time    0.0447: real time    0.0448
    SETDIJ:  cpu time    0.0035: real time    0.0035
     EDDAV:  cpu time    3.1592: real time    3.1645
       DOS:  cpu time    0.0033: real time    0.0033
    CHARGE:  cpu time    0.2284: real time    0.2286
    MIXING:  cpu time    0.0019: real time    0.0019
    --------------------------------------------
      LOOP:  cpu time    3.4409: real time    3.4465

 eigenvalue-minimisations  :  3734
 total energy-change (2. order) :-0.4246342E-03  (-0.7882438E-05)
 number of electron      20.0000000 magnetization 
 augmentation part       -4.4814502 magnetization 

 Broyden mixing:
  rms(total) = 0.11527E-02    rms(broyden)= 0.11527E-02
  rms(prec ) = 0.15265E-02
  weight for this iteration     100.00

 eigenvalues of (default mixing * dielectric matrix)
  average eigenvalue GAMMA=   2.2388
  5.6394  3.3037  2.4955  2.1775  1.1599  1.1599  1.0641  0.9104

 Free energy of the ion-electron system (eV)
  ---------------------------------------------------
  alpha Z        PSCENC =         9.52805256
  Ewald energy   TEWEN  =      1156.74837074
  -Hartree energ DENC   =     -1779.25999730
  -exchange      EXHF   =         0.00000000
  -V(xc)+E(xc)   XCENC  =      -237.55613116
  PAW double counting   =      1143.01997938     -868.13016177
  entropy T*S    EENTRO =        -0.00000000
  eigenvalues    EBANDS =      -143.04168366
  atomic energy  EATOM  =       702.42789710
  Solvation  Ediel_sol  =         0.00000000
  ---------------------------------------------------
  free energy    TOTEN  =       -16.26367411 eV

  energy without entropy =      -16.26367411  energy(sigma->0) =      -16.26367411


--------------------------------------------------------------------------------------------------------




--------------------------------------- Iteration      1(  14)  ---------------------------------------


    POTLOK:  cpu time    0.0477: real time    0.0478
    SETDIJ:  cpu time    0.0035: real time    0.0035
     EDDAV:  cpu time    3.2370: real time    3.2423
       DOS:  cpu time    0.0033: real time    0.0033
    CHARGE:  cpu time    0.2399: real time    0.2402
    MIXING:  cpu time    0.0020: real time    0.0020
    --------------------------------------------
      LOOP:  cpu time    3.5333: real time    3.5390

 eigenvalue-minimisations  :  3926
 total energy-change (2. order) :-0.2675494E-03  (-0.4238371E-05)
 number of electron      20.0000000 magnetization 
 augmentation part       -4.4814270 magnetization 

 Broyden mixing:
  rms(total) = 0.40626E-03    rms(broyden)= 0.40626E-03
  rms(prec ) = 0.62295E-03
  weight for this iteration     100.00

 eigenvalues of (default mixing * dielectric matrix)
  average eigenvalue GAMMA=   2.2435
  6.7390  3.0722  2.5310  2.5310  1.1844  1.1844  1.0505  0.9495  0.9495

 Free energy of the ion-electron system (eV)
  ---------------------------------------------------
  alpha Z        PSCENC =         9.52805256
  Ewald energy   TEWEN  =      1156.74837074
  -Hartree energ DENC   =     -1779.46849368
  -exchange      EXHF   =         0.00000000
  -V(xc)+E(xc)   XCENC  =      -237.55604675
  PAW double counting   =      1143.27954221     -868.38915861
  entropy T*S    EENTRO =        -0.00000000
  eigenvalues    EBANDS =      -142.83410524
  atomic energy  EATOM  =       702.42789710
  Solvation  Ediel_sol  =         0.00000000
  ---------------------------------------------------
  free energy    TOTEN  =       -16.26394166 eV

  energy without entropy =      -16.26394166  energy(sigma->0) =      -16.26394166


--------------------------------------------------------------------------------------------------------




--------------------------------------- Iteration      1(  15)  ---------------------------------------


    POTLOK:  cpu time    0.0494: real time    0.0496
    SETDIJ:  cpu time    0.0035: real time    0.0035
     EDDAV:  cpu time    3.1460: real time    3.1513
       DOS:  cpu time    0.0033: real time    0.0033
    CHARGE:  cpu time    0.2252: real time    0.2255
    MIXING:  cpu time    0.0021: real time    0.0021
    --------------------------------------------
      LOOP:  cpu time    3.4295: real time    3.4352

 eigenvalue-minimisations  :  3816
 total energy-change (2. order) :-0.5518037E-04  (-0.1987134E-06)
 number of electron      20.0000000 magnetization 
 augmentation part       -4.4814426 magnetization 

 Broyden mixing:
  rms(total) = 0.32715E-03    rms(broyden)= 0.32715E-03
  rms(prec ) = 0.50157E-03
  weight for this iteration     100.00

 eigenvalues of (default mixing * dielectric matrix)
  average eigenvalue GAMMA=   2.3582
  6.5661  4.2679  2.7003  2.7003  1.9858  1.1417  1.1417  1.2048  0.9367  0.9367

 Free energy of the ion-electron system (eV)
  ---------------------------------------------------
  alpha Z        PSCENC =         9.52805256
  Ewald energy   TEWEN  =      1156.74837074
  -Hartree energ DENC   =     -1779.48309795
  -exchange      EXHF   =         0.00000000
  -V(xc)+E(xc)   XCENC  =      -237.55635956
  PAW double counting   =      1143.09946992     -868.20896606
  entropy T*S    EENTRO =        -0.00000000
  eigenvalues    EBANDS =      -142.81936359
  atomic energy  EATOM  =       702.42789710
  Solvation  Ediel_sol  =         0.00000000
  ---------------------------------------------------
  free energy    TOTEN  =       -16.26399684 eV

  energy without entropy =      -16.26399684  energy(sigma->0) =      -16.26399684


--------------------------------------------------------------------------------------------------------




--------------------------------------- Iteration      1(  16)  ---------------------------------------


    POTLOK:  cpu time    0.0465: real time    0.0466
    SETDIJ:  cpu time    0.0034: real time    0.0034
     EDDAV:  cpu time    2.9608: real time    2.9657
       DOS:  cpu time    0.0033: real time    0.0033
    CHARGE:  cpu time    0.2302: real time    0.2305
    MIXING:  cpu time    0.0022: real time    0.0023
    --------------------------------------------
      LOOP:  cpu time    3.2464: real time    3.2518

[...]
      3      -8.6377      2.00000
      4      -8.4994      2.00000
      5      -6.4010      2.00000
      6      -5.5114      2.00000
      7      -5.0645      2.00000
      8      -4.3547      2.00000
      9      -3.9777      2.00000
     10      -3.3723      2.00000
     11       0.5354      0.00000
     12       1.3429      0.00000
     13       1.5959      0.00000
     14       2.2628      0.00000

 k-point    95 :      -0.2667    0.4000    0.0000
  band No.  band energies     occupation 
      1     -14.5562      2.00000
      2     -14.2978      2.00000
      3      -8.8225      2.00000
      4      -8.6053      2.00000
      5      -6.0780      2.00000
      6      -5.1203      2.00000
      7      -4.8159      2.00000
      8      -4.0933      2.00000
      9      -3.8827      2.00000
     10      -3.0893      2.00000
     11       0.1350      0.00000
     12       1.0823      0.00000
     13       1.1850      0.00000
     14       1.5950      0.00000

 k-point    96 :      -0.2000    0.4000    0.0000
  band No.  band energies     occupation 
      1     -14.6261      2.00000
      2     -14.3216      2.00000
      3      -8.9906      2.00000
      4      -8.7097      2.00000
      5      -5.6339      2.00000
      6      -4.8302      2.00000
      7      -4.5517      2.00000
      8      -3.9578      2.00000
      9      -3.5060      2.00000
     10      -2.7119      2.00000
     11      -0.3393      0.00000
     12       0.5818      0.00000
     13       0.7115      0.00000
     14       1.2306      0.00000

 k-point    97 :      -0.1333    0.4000    0.0000
  band No.  band energies     occupation 
      1     -14.6818      2.00000
      2     -14.3453      2.00000
      3      -9.1208      2.00000
      4      -8.7959      2.00000
      5      -5.1101      2.00000
      6      -4.7675      2.00000
      7      -4.1411      2.00000
      8      -3.9136      2.00000
      9      -2.9305      2.00000
     10      -2.4768      2.00000
     11      -0.6247      0.00000
     12      -0.1519      0.00000
     13       0.4884      0.00000
     14       0.8041      0.00000

 k-point    98 :      -0.0667    0.4000    0.0000
  band No.  band energies     occupation 
      1     -14.7175      2.00000
      2     -14.3624      2.00000
      3      -9.2026      2.00000
      4      -8.8524      2.00000
      5      -4.7731      2.00000
      6      -4.5702      2.00000
      7      -3.9391      2.00000
      8      -3.7282      2.00000
      9      -2.6394      2.00000
     10      -2.3471      2.00000
     11      -0.7529      0.00000
     12      -0.3815      0.00000
     13       0.2415      0.00000
     14       0.3690      0.00000

 k-point    99 :      -0.0000    0.4667    0.0000
  band No.  band energies     occupation 
      1     -14.5848      2.00000
      2     -14.4607      2.00000
      3      -9.2165      2.00000
      4      -9.0932      2.00000
      5      -4.5326      2.00000
      6      -4.3102      2.00000
      7      -3.8404      2.00000
      8      -3.6437      2.00000
      9      -2.5416      2.00000
     10      -2.1938      2.00000
     11      -0.8918      0.00000
     12      -0.4491      0.00000
     13      -0.0715      0.00000
     14       0.1279      0.00000

 k-point   100 :       0.0667    0.4667    0.0000
  band No.  band energies     occupation 
      1     -14.5740      2.00000
      2     -14.4532      2.00000
      3      -9.1888      2.00000
      4      -9.0681      2.00000
      5      -4.5439      2.00000
      6      -4.4241      2.00000
      7      -3.9976      2.00000
      8      -3.8548      2.00000
      9      -2.4470      2.00000
     10      -2.3595      2.00000
     11      -0.7973      0.00000
     12      -0.6879      0.00000
     13       0.2952      0.00000
     14       0.5945      0.00000

 k-point   101 :       0.1333    0.4667    0.0000
  band No.  band energies     occupation 
      1     -14.5438      2.00000
      2     -14.4308      2.00000
      3      -9.1061      2.00000
      4      -8.9936      2.00000
      5      -4.8380      2.00000
      6      -4.6463      2.00000
      7      -4.2375      2.00000
      8      -4.1160      2.00000
      9      -2.8350      2.00000
     10      -2.6140      2.00000
     11      -0.5405      0.00000
     12      -0.3080      0.00000
     13       0.7898      0.00000
     14       0.8945      0.00000

 k-point   102 :       0.2000    0.4667    0.0000
  band No.  band energies     occupation 
      1     -14.4982      2.00000
      2     -14.3975      2.00000
      3      -8.9721      2.00000
      4      -8.8738      2.00000
      5      -5.3546      2.00000
      6      -5.0219      2.00000
      7      -4.4327      2.00000
      8      -4.1892      2.00000
      9      -3.3545      2.00000
     10      -3.0538      2.00000
     11      -0.0073      0.00000
     12       0.3455      0.00000
     13       1.0192      0.00000
     14       1.2412      0.00000

 k-point   103 :       0.2667    0.4667    0.0000
  band No.  band energies     occupation 
      1     -14.4432      2.00000
      2     -14.3595      2.00000
      3      -8.7953      2.00000
      4      -8.7171      2.00000
      5      -5.8319      2.00000
      6      -5.4882      2.00000
      7      -4.6299      2.00000
      8      -4.3538      2.00000
      9      -3.6968      2.00000
     10      -3.4352      2.00000
     11       0.5041      0.00000
     12       0.8554      0.00000
     13       1.4351      0.00000
     14       1.6744      0.00000

 k-point   104 :       0.3333    0.4667    0.0000
  band No.  band energies     occupation 
      1     -14.3867      2.00000
      2     -14.3245      2.00000
      3      -8.5925      2.00000
      4      -8.5392      2.00000
      5      -6.2215      2.00000
      6      -5.9156      2.00000
      7      -4.9317      2.00000
      8      -4.6593      2.00000
      9      -3.8035      2.00000
     10      -3.6234      2.00000
     11       0.8464      0.00000
     12       1.1183      0.00000
     13       2.0039      0.00000
     14       2.2625      0.00000

 k-point   105 :       0.4000    0.4667    0.0000
  band No.  band energies     occupation 
      1     -14.3374      2.00000
      2     -14.3004      2.00000
      3      -8.3977      2.00000
      4      -8.3679      2.00000
      5      -6.4892      2.00000
      6      -6.2753      2.00000
      7      -5.1901      2.00000
      8      -4.9889      2.00000
      9      -3.7960      2.00000
     10      -3.6954      2.00000
     11       1.0817      0.00000
     12       1.2570      0.00000
     13       2.4976      0.00000
     14       2.7100      0.00000

 k-point   106 :       0.4667    0.4667    0.0000
  band No.  band energies     occupation 
      1     -14.3031      2.00000
      2     -14.2939      2.00000
      3      -8.2705      2.00000
      4      -8.2520      2.00000
      5      -6.5932      2.00000
      6      -6.5318      2.00000
      7      -5.2978      2.00000
      8      -5.2228      2.00000
      9      -3.7575      2.00000
     10      -3.7370      2.00000
     11       1.2351      0.00000
     12       1.3030      0.00000
     13       2.7030      0.00000
     14       2.7851      0.00000

 k-point   107 :      -0.4667    0.4667    0.0000
  band No.  band energies     occupation 
      1     -14.3083      2.00000
      2     -14.2888      2.00000
      3      -8.2671      2.00000
      4      -8.2531      2.00000
      5      -6.6206      2.00000
      6      -6.5048      2.00000
      7      -5.2967      2.00000
      8      -5.2265      2.00000
      9      -3.7776      2.00000
     10      -3.7171      2.00000
     11       1.2449      0.00000
     12       1.2929      0.00000
     13       2.6937      0.00000
     14       2.7993      0.00000

 k-point   108 :      -0.4000    0.4667    0.0000
  band No.  band energies     occupation 
      1     -14.3424      2.00000
      2     -14.2956      2.00000
      3      -8.3837      2.00000
      4      -8.3769      2.00000
      5      -6.5085      2.00000
      6      -6.2570      2.00000
      7      -5.1867      2.00000
      8      -4.9979      2.00000
      9      -3.8160      2.00000
     10      -3.6763      2.00000
     11       1.0865      0.00000
     12       1.2516      0.00000
     13       2.4850      0.00000
     14       2.7316      0.00000

 k-point   109 :      -0.3333    0.4667    0.0000
  band No.  band energies     occupation 
      1     -14.3913      2.00000
      2     -14.3202      2.00000
      3      -8.5832      2.00000
      4      -8.5431      2.00000
      5      -6.2308      2.00000
      6      -5.9086      2.00000
      7      -4.9223      2.00000
      8      -4.6733      2.00000
      9      -3.8232      2.00000
     10      -3.6066      2.00000
     11       0.8452      0.00000
     12       1.1190      0.00000
     13       1.9901      0.00000
     14       2.2799      0.00000

 k-point   110 :      -0.2667    0.4667    0.0000
  band No.  band energies     occupation 
      1     -14.4471      2.00000
      2     -14.3559      2.00000
      3      -8.7896      2.00000
      4      -8.7181      2.00000
      5      -5.8327      2.00000
      6      -5.4911      2.00000
      7      -4.6165      2.00000
      8      -4.3672      2.00000
      9      -3.7128      2.00000
     10      -3.4268      2.00000
     11       0.4974      0.00000
     12       0.8621      0.00000
     13       1.4261      0.00000
     14       1.6846      0.00000

 k-point   111 :      -0.2000    0.4667    0.0000
  band No.  band energies     occupation 
      1     -14.5013      2.00000
      2     -14.3947      2.00000
      3      -8.9687      2.00000
      4      -8.8734      2.00000
      5      -5.3488      2.00000
      6      -5.0320      2.00000
      7      -4.4228      2.00000
      8      -4.1965      2.00000
      9      -3.3597      2.00000
     10      -3.0594      2.00000
     11      -0.0160      0.00000
     12       0.3558      0.00000
     13       1.0149      0.00000
     14       1.2451      0.00000

 k-point   112 :      -0.1333    0.4667    0.0000
  band No.  band energies     occupation 
      1     -14.5460      2.00000
      2     -14.4289      2.00000
      3      -9.1042      2.00000
      4      -8.9928      2.00000
      5      -4.8277      2.00000
      6      -4.6562      2.00000
      7      -4.2352      2.00000
      8      -4.1201      2.00000
      9      -2.8303      2.00000
     10      -2.6311      2.00000
     11      -0.5454      0.00000
     12      -0.3008      0.00000
     13       0.7869      0.00000
     14       0.8931      0.00000

 k-point   113 :      -0.0667    0.4667    0.0000
  band No.  band energies     occupation 
      1     -14.5751      2.00000
      2     -14.4522      2.00000
      3      -9.1879      2.00000
      4      -9.0676      2.00000
      5      -4.5469      2.00000
      6      -4.4154      2.00000
      7      -3.9982      2.00000
      8      -3.8599      2.00000
      9      -2.4651      2.00000
     10      -2.3495      2.00000
     11      -0.7969      0.00000
     12      -0.6907      0.00000
     13       0.2928      0.00000
     14       0.5996      0.00000


--------------------------------------------------------------------------------------------------------


 soft charge-density along one line, spin component           1
         0         1         2         3         4         5         6         7         8         9
 total charge-density along one line
 
 pseudopotential strength for first ion, spin component:           1
 30.081 -23.433  -0.001  -0.089   0.033  -0.002  -0.141   0.052
-23.433  28.115   0.001   0.050  -0.018   0.001   0.082  -0.030
 -0.001   0.001   6.331  -0.000  -0.000   9.794  -0.000  -0.000
 -0.089   0.050  -0.000   6.328   0.002  -0.000   9.790   0.002
  0.033  -0.018  -0.000   0.002   6.330  -0.000   0.002   9.794
 -0.002   0.001   9.794  -0.000  -0.000  15.223  -0.000  -0.000
 -0.141   0.082  -0.000   9.790   0.002  -0.000  15.216   0.004
  0.052  -0.030  -0.000   0.002   9.794  -0.000   0.004  15.222
 -0.000  -0.000   0.007  -0.000  -0.000   0.011  -0.000  -0.000
 -0.000   0.000  -0.020  -0.000  -0.000  -0.031  -0.001  -0.000
 -0.002   0.003   0.000  -0.023  -0.004   0.000  -0.035  -0.006
  0.003  -0.002  -0.000   0.008  -0.020  -0.000   0.012  -0.031
 -0.000   0.000   0.000  -0.000   0.008   0.001  -0.000   0.012
 total augmentation occupancy for first ion, spin component:           1
  2.025  -0.015   0.004   0.238  -0.083  -0.001  -0.043   0.015  -0.001  -0.000   0.023   0.002  -0.000
 -0.015   0.009  -0.001  -0.073   0.026   0.000   0.018  -0.006   0.000  -0.000  -0.002   0.001  -0.000
  0.004  -0.001   1.507  -0.001  -0.001  -0.406   0.001   0.000   0.117  -0.043   0.004   0.000  -0.001
  0.238  -0.073  -0.001   1.840   0.000   0.001  -0.486  -0.013   0.000   0.001  -0.268  -0.017  -0.000
 -0.083   0.026  -0.001   0.000   1.492   0.000  -0.014  -0.396  -0.006   0.000  -0.075  -0.045  -0.006
 -0.001   0.000  -0.406   0.001   0.000   0.118  -0.000  -0.000  -0.031   0.012  -0.001  -0.000   0.000
 -0.043   0.018   0.001  -0.486  -0.014  -0.000   0.140   0.007  -0.000  -0.000   0.074   0.005   0.000
  0.015  -0.006   0.000  -0.013  -0.396  -0.000   0.007   0.114   0.002  -0.000   0.020   0.012   0.002
 -0.001   0.000   0.117   0.000  -0.006  -0.031  -0.000   0.002   0.077   0.000  -0.000  -0.000  -0.000
 -0.000  -0.000  -0.043   0.001   0.000   0.012  -0.000  -0.000   0.000   0.021  -0.000  -0.000   0.000
  0.023  -0.002   0.004  -0.268  -0.075  -0.001   0.074   0.020  -0.000  -0.000   0.078   0.006   0.002
  0.002   0.001   0.000  -0.017  -0.045  -0.000   0.005   0.012  -0.000  -0.000   0.006   0.022   0.001
 -0.000  -0.000  -0.001  -0.000  -0.006   0.000   0.000   0.002  -0.000   0.000   0.002   0.001   0.017


------------------------ aborting loop because EDIFF is reached ----------------------------------------


    CHARGE:  cpu time    0.2425: real time    0.2427
    FORLOC:  cpu time    0.0022: real time    0.0022
    FORNL :  cpu time    0.3763: real time    0.3766
    STRESS:  cpu time    1.0021: real time    1.0030
    FORCOR:  cpu time    0.0491: real time    0.0492
    FORHAR:  cpu time    0.0119: real time    0.0119
    MIXING:  cpu time    0.0010: real time    0.0010
    OFIELD:  cpu time    0.0000: real time    0.0000

  FORCE on cell =-STRESS in cart. coord.  units (eV):
  Direction    XX          YY          ZZ          XY          YZ          ZX
  --------------------------------------------------------------------------------------
  Alpha Z     9.52805     9.52805     9.52805
  Ewald    1610.47455  1614.48833 -2068.72827     0.41092    -0.00000     0.00000
  Hartree  1731.08506  1732.55081 -1684.50554     0.14553     0.00000     0.00000
  E(xc)     -77.67240   -77.68384   -78.90031     0.00581    -0.00000     0.00000
  Local   -3594.29712 -3599.26140  3498.39198    -0.56738     0.00000     0.00000
  n-local   162.53701   162.70543   167.22941    -0.01750    -0.00000     0.00000
  augment   -31.87562   -31.82304   -32.80288     0.00205     0.00000     0.00000
  Kinetic   190.27676   189.54804   189.78601     0.07325    -0.00000    -0.00000
  Fock        0.00000     0.00000     0.00000     0.00000     0.00000     0.00000
  -------------------------------------------------------------------------------------
  Total       0.05630     0.05239    -0.00154     0.05269     0.00000     0.00000
  in kB       0.24036     0.22365    -0.00655     0.22494     0.00000     0.00000
  external pressure =        0.15 kB  Pullay stress =        0.00 kB


 VOLUME and BASIS-vectors are now :
 -----------------------------------------------------------------------------
  energy-cutoff  :      600.00
  volume of cell :      375.28
      direct lattice vectors                 reciprocal lattice vectors
     4.371400873 -0.005477946  0.000000000     0.228759978  0.000285950  0.000000000
    -0.005365597  4.292477857  0.000000000     0.000291937  0.232966040  0.000000000
     0.000000000  0.000000000 20.000000000     0.000000000  0.000000000  0.050000000

  length of vectors
     4.371404305  4.292481211 20.000000000     0.228760156  0.232966223  0.050000000


 FORCES acting on ions
    electron-ion (+dipol)            ewald-force                    non-local-force                 convergence-correction
 -----------------------------------------------------------------------------------------------
   0.399E+01 -.179E+00 -.144E+03   -.541E+01 0.244E+00 0.148E+03   0.142E+01 -.650E-01 -.380E+01   -.957E-05 -.862E-04 -.416E-03
   0.399E+01 -.179E+00 0.144E+03   -.541E+01 0.244E+00 -.148E+03   0.142E+01 -.650E-01 0.380E+01   -.957E-05 -.862E-04 0.416E-03
   -.499E+01 0.225E+00 -.207E+03   0.541E+01 -.244E+00 0.209E+03   -.421E+00 0.180E-01 -.204E+01   -.298E-03 0.949E-03 -.150E-02
   -.499E+01 0.225E+00 0.207E+03   0.541E+01 -.244E+00 -.209E+03   -.421E+00 0.180E-01 0.204E+01   -.298E-03 0.949E-03 0.150E-02
 -----------------------------------------------------------------------------------------------
   -.199E+01 0.925E-01 -.755E-06   0.888E-15 0.153E-14 0.000E+00   0.199E+01 -.939E-01 0.000E+00   -.616E-03 0.173E-02 -.332E-10
 
 
 POSITION                                       TOTAL-FORCE (eV/Angst)
 -----------------------------------------------------------------------------------
      2.53118      3.21073     11.37423         0.000181     -0.000107      0.000306
      0.34817      1.06723      8.62577         0.000181     -0.000107     -0.000306
      0.14794      1.07839     11.34286        -0.000181      0.000107     -0.000159
      2.33096      3.22189      8.65714        -0.000181      0.000107      0.000159
 -----------------------------------------------------------------------------------
    total drift:                               -0.000282      0.000270     -0.000001


--------------------------------------------------------------------------------------------------------



  FREE ENERGIE OF THE ION-ELECTRON SYSTEM (eV)
  ---------------------------------------------------
  free  energy   TOTEN  =       -16.26426116 eV

  energy  without entropy=      -16.26426116  energy(sigma->0) =      -16.26426116
 
 d Force = 0.4408383E-06[ 0.183E-07, 0.863E-06]  d Energy = 0.6362127E-06-0.195E-06
 d Force = 0.9743493E-01[ 0.974E-01, 0.974E-01]  d Ewald  = 0.9743493E-01 0.705E-11


--------------------------------------------------------------------------------------------------------


    POTLOK:  cpu time    0.0475: real time    0.0476


--------------------------------------------------------------------------------------------------------




--------------------------------------------------------------------------------------------------------


  
 reached required accuracy - stopping structural energy minimisation
 writing wavefunctions
     LOOP+:  cpu time    9.9898: real time   10.3407
    4ORBIT:  cpu time    0.0000: real time    0.0000

 total amount of memory used by VASP MPI-rank0    63368. kBytes
=======================================================================

   base      :      30000. kBytes
   nonl-proj :      12538. kBytes
   fftplans  :       2678. kBytes
   grid      :       4349. kBytes
   one-center:          8. kBytes
   wavefun   :      13795. kBytes
 
  
  
 General timing and accounting informations for this job:
 ========================================================
  
                  Total CPU time used (sec):      342.619
                            User time (sec):      341.680
                          System time (sec):        0.939
                         Elapsed time (sec):      354.775
  
                   Maximum memory used (kb):      212740.
                   Average memory used (kb):           0.
  
                          Minor page faults:       130590
                          Major page faults:           92
                 Voluntary context switches:        11213
