 vasp.5.4.4.18Apr17-6-g9f103f2a35 (build Jan 05 2022 20:33:25) complex          
  
 02/POSCAR found :  2 types and       6 ions
 scaLAPACK will be used

 ----------------------------------------------------------------------------- 
|                                                                             |
|           W    W    AA    RRRRR   N    N  II  N    N   GGGG   !!!           |
|           W    W   A  A   R    R  NN   N  II  NN   N  G    G  !!!           |
|           W    W  A    A  R    R  N N  N  II  N N  N  G       !!!           |
|           W WW W  AAAAAA  RRRRR   N  N N  II  N  N N  G  GGG   !            |
|           WW  WW  A    A  R   R   N   NN  II  N   NN  G    G                |
|           W    W  A    A  R    R  N    N  II  N    N   GGGG   !!!           |
|                                                                             |
|      For optimal performance we recommend to set                            |
|        NCORE= 4 - approx SQRT( number of cores)                             |
|      NCORE specifies how many cores store one orbital (NPAR=cpu/NCORE).     |
|      This setting can  greatly improve the performance of VASP for DFT.     |
|      The default,   NCORE=1            might be grossly inefficient         |
|      on modern multi-core architectures or massively parallel machines.     |
|      Do your own testing !!!!                                               |
|      Unfortunately you need to use the default for GW and RPA calculations. |
|      (for HF NCORE is supported but not extensively tested yet)             |
|                                                                             |
 ----------------------------------------------------------------------------- 

 LDA part: xc-table for Pade appr. of Perdew
 00/POSCAR found :  2 types and       6 ions
 04/POSCAR found :  2 types and       6 ions
 Jacobian:    11.4326695265214     
 POSCAR, INCAR and KPOINTS ok, starting setup
 FFT: planning ...
 WAVECAR not read
 entering main loop
       N       E                     dE             d eps       ncg     rms          rms(c)
DAV:   1     0.277648936088E+03    0.27765E+03   -0.11544E+04  2992   0.127E+03
DAV:   2     0.460510901956E+01   -0.27304E+03   -0.26666E+03  4856   0.198E+02
DAV:   3    -0.328413918720E+02   -0.37447E+02   -0.36961E+02  3748   0.830E+01
DAV:   4    -0.347654459498E+02   -0.19241E+01   -0.19093E+01  4720   0.219E+01
DAV:   5    -0.348116145916E+02   -0.46169E-01   -0.45951E-01  4512   0.366E+00    0.220E+01
DAV:   6    -0.339659702292E+02    0.84564E+00   -0.46456E+00  4398   0.102E+01    0.976E+00
DAV:   7    -0.343673354833E+02   -0.40137E+00   -0.10183E+01  4250   0.142E+01    0.740E+00
DAV:   8    -0.337755041926E+02    0.59183E+00   -0.89551E+00  4322   0.993E+00    0.437E+00
DAV:   9    -0.335603916020E+02    0.21511E+00   -0.24011E+00  4280   0.570E+00    0.175E+00
DAV:  10    -0.335445055809E+02    0.15886E-01   -0.16088E-01  4076   0.202E+00    0.678E-01
DAV:  11    -0.335435018897E+02    0.10037E-02   -0.18527E-02  4322   0.662E-01    0.512E-01
DAV:  12    -0.335424758889E+02    0.10260E-02   -0.62564E-03  4440   0.337E-01    0.254E-01
DAV:  13    -0.335419222027E+02    0.55369E-03   -0.20967E-03  4298   0.239E-01    0.726E-02
DAV:  14    -0.335418557529E+02    0.66450E-04   -0.53053E-04  3884   0.121E-01    0.709E-02
DAV:  15    -0.335417936999E+02    0.62053E-04   -0.25596E-04  3832   0.646E-02    0.472E-02
DAV:  16    -0.335418218884E+02   -0.28189E-04   -0.41925E-05  4264   0.319E-02    0.310E-02
DAV:  17    -0.335419367406E+02   -0.11485E-03   -0.64345E-05  3862   0.334E-02    0.110E-02
DAV:  18    -0.335420381610E+02   -0.10142E-03   -0.28197E-05  3616   0.215E-02    0.110E-02
DAV:  19    -0.335421012838E+02   -0.63123E-04   -0.13647E-05  3606   0.138E-02    0.646E-03
DAV:  20    -0.335421924935E+02   -0.91210E-04   -0.70533E-06  3434   0.121E-02    0.407E-03
DAV:  21    -0.335422081492E+02   -0.15656E-04   -0.95167E-07  2706   0.522E-03    0.300E-03
DAV:  22    -0.335422331713E+02   -0.25022E-04   -0.48602E-07  2290   0.371E-03    0.168E-03
DAV:  23    -0.335422528620E+02   -0.19691E-04   -0.72245E-07  2492   0.278E-03    0.149E-03
DAV:  24    -0.335422583270E+02   -0.54650E-05   -0.81413E-08  1868   0.120E-03    0.127E-03
DAV:  25    -0.335422667837E+02   -0.84567E-05   -0.31673E-07  2128   0.196E-03    0.673E-04
DAV:  26    -0.335422679185E+02   -0.11348E-05   -0.42314E-08  1736   0.931E-04    0.679E-04
DAV:  27    -0.335422689953E+02   -0.10768E-05   -0.18062E-08  1712   0.531E-04    0.373E-04
DAV:  28    -0.335422708604E+02   -0.18651E-05   -0.53829E-08  1772   0.712E-04    0.341E-04
DAV:  29    -0.335422709299E+02   -0.69484E-07   -0.94952E-09  1706   0.425E-04
   1 F= -.33542271E+02 E0= -.33531279E+02  d E =-.335423E+02
quench:  g(F)=  0.000E+00 g(S)=  0.000E+00 dE (1.order)= 0.000E+00
 bond charge predicted
       N       E                     dE             d eps       ncg     rms          rms(c)
DAV:   1    -0.337597524325E+02   -0.21748E+00   -0.44780E+00  2992   0.112E+01    0.958E-01
DAV:   2    -0.337669949666E+02   -0.72425E-02   -0.11773E-01  3984   0.172E+00    0.604E-01
DAV:   3    -0.337717108168E+02   -0.47159E-02   -0.11458E-01  4592   0.128E+00    0.695E-01
DAV:   4    -0.337652929799E+02    0.64178E-02   -0.84525E-02  4694   0.102E+00    0.341E-01
DAV:   5    -0.337644305209E+02    0.86246E-03   -0.51140E-03  4024   0.298E-01    0.155E-01
DAV:   6    -0.337643570043E+02    0.73517E-04   -0.14986E-03  4222   0.176E-01    0.519E-02
DAV:   7    -0.337643346233E+02    0.22381E-04   -0.28657E-04  4152   0.896E-02    0.288E-02
DAV:   8    -0.337643322434E+02    0.23799E-05   -0.33725E-05  4402   0.289E-02    0.175E-02
DAV:   9    -0.337643306506E+02    0.15928E-05   -0.17045E-05  4194   0.190E-02    0.109E-02
DAV:  10    -0.337643299562E+02    0.69437E-06   -0.33636E-06  2602   0.102E-02
   2 F= -.33764330E+02 E0= -.33753446E+02  d E =-.222059E+00
quench:  g(F)=  0.000E+00 g(S)=  0.000E+00 dE (1.order)= 0.000E+00
 bond charge predicted
       N       E                     dE             d eps       ncg     rms          rms(c)
DAV:   1    -0.340074524193E+02   -0.24312E+00   -0.13467E+01  2992   0.194E+01    0.161E+00
DAV:   2    -0.340281802091E+02   -0.20728E-01   -0.32022E-01  3944   0.286E+00    0.899E-01
DAV:   3    -0.340381576140E+02   -0.99774E-02   -0.21341E-01  4610   0.177E+00    0.999E-01
DAV:   4    -0.340261602089E+02    0.11997E-01   -0.18550E-01  4634   0.151E+00    0.564E-01
DAV:   5    -0.340235385291E+02    0.26217E-02   -0.14707E-02  4014   0.485E-01    0.222E-01
DAV:   6    -0.340234220623E+02    0.11647E-03   -0.39479E-03  4416   0.293E-01    0.824E-02
DAV:   7    -0.340233456379E+02    0.76424E-04   -0.93777E-04  4180   0.160E-01    0.465E-02
DAV:   8    -0.340233403627E+02    0.52752E-05   -0.93867E-05  4344   0.515E-02    0.272E-02
DAV:   9    -0.340233364334E+02    0.39293E-05   -0.45006E-05  4348   0.309E-02    0.186E-02
DAV:  10    -0.340233354894E+02    0.94400E-06   -0.11980E-05  4158   0.181E-02    0.465E-03
DAV:  11    -0.340233356853E+02   -0.19590E-06   -0.16459E-06  2552   0.728E-03
   3 F= -.34023336E+02 E0= -.34012925E+02  d E =-.259006E+00
quench:  g(F)=  0.000E+00 g(S)=  0.000E+00 dE (1.order)= 0.000E+00
 bond charge predicted
       N       E                     dE             d eps       ncg     rms          rms(c)
DAV:   1    -0.341456398054E+02   -0.12230E+00   -0.18929E+01  2992   0.230E+01    0.188E+00
DAV:   2    -0.341737291802E+02   -0.28089E-01   -0.40224E-01  3864   0.325E+00    0.869E-01
DAV:   3    -0.341758349988E+02   -0.21058E-02   -0.60044E-02  4736   0.105E+00    0.668E-01
DAV:   4    -0.341796592093E+02   -0.38242E-02   -0.14092E-01  4666   0.133E+00    0.804E-01
DAV:   5    -0.341715872690E+02    0.80719E-02   -0.54690E-02  4664   0.829E-01    0.192E-01
DAV:   6    -0.341715345145E+02    0.52755E-04   -0.48674E-03  4452   0.352E-01    0.882E-02
DAV:   7    -0.341714008723E+02    0.13364E-03   -0.11796E-03  4276   0.184E-01    0.555E-02
DAV:   8    -0.341714056386E+02   -0.47663E-05   -0.83867E-05  4156   0.507E-02    0.384E-02
DAV:   9    -0.341714016767E+02    0.39619E-05   -0.43543E-05  4356   0.322E-02    0.265E-02
DAV:  10    -0.341713990289E+02    0.26478E-05   -0.21225E-05  3844   0.242E-02    0.166E-02
DAV:  11    -0.341713993576E+02   -0.32871E-06   -0.43318E-06  3354   0.117E-02
   4 F= -.34171399E+02 E0= -.34160824E+02  d E =-.148064E+00
quench:  g(F)=  0.000E+00 g(S)=  0.000E+00 dE (1.order)= 0.000E+00
 bond charge predicted
       N       E                     dE             d eps       ncg     rms          rms(c)
DAV:   1    -0.341987689541E+02   -0.27370E-01   -0.17275E+01  2992   0.219E+01    0.180E+00
DAV:   2    -0.342263009500E+02   -0.27532E-01   -0.38106E-01  3874   0.317E+00    0.861E-01
DAV:   3    -0.342261921825E+02    0.10877E-03   -0.24751E-02  4482   0.818E-01    0.540E-01
DAV:   4    -0.342343264495E+02   -0.81343E-02   -0.96441E-02  4672   0.116E+00    0.831E-01
DAV:   5    -0.342259145892E+02    0.84119E-02   -0.91121E-02  4752   0.109E+00    0.311E-01
DAV:   6    -0.342246322677E+02    0.12823E-02   -0.11470E-02  4318   0.457E-01    0.611E-02
DAV:   7    -0.342246157954E+02    0.16472E-04   -0.72115E-04  3946   0.154E-01    0.792E-02
DAV:   8    -0.342246188625E+02   -0.30671E-05   -0.54022E-05  4958   0.380E-02    0.737E-02
DAV:   9    -0.342246171467E+02    0.17158E-05   -0.54441E-06  3456   0.117E-02    0.653E-02
DAV:  10    -0.342246149259E+02    0.22208E-05   -0.51649E-05  4140   0.317E-02    0.532E-02
DAV:  11    -0.342246141227E+02    0.80316E-06   -0.60939E-06  3684   0.140E-02
   5 F= -.34224614E+02 E0= -.34213509E+02  d E =-.532148E-01
quench:  g(F)=  0.000E+00 g(S)=  0.000E+00 dE (1.order)= 0.000E+00
 bond charge predicted
       N       E                     dE             d eps       ncg     rms          rms(c)
DAV:   1    -0.342290478340E+02   -0.44329E-02   -0.14348E+01  2992   0.199E+01    0.163E+00
DAV:   2    -0.342536673654E+02   -0.24620E-01   -0.35573E-01  4064   0.305E+00    0.889E-01
DAV:   3    -0.342541641836E+02   -0.49682E-03   -0.68941E-02  4352   0.127E+00    0.637E-01
DAV:   4    -0.342551854336E+02   -0.10212E-02   -0.87487E-02  4448   0.112E+00    0.682E-01
DAV:   5    -0.342529982379E+02    0.21872E-02   -0.64630E-02  4604   0.932E-01    0.452E-01
DAV:   6    -0.342504829606E+02    0.25153E-02   -0.21322E-02  4354   0.594E-01    0.850E-02
DAV:   7    -0.342504141397E+02    0.68821E-04   -0.13786E-03  4270   0.202E-01    0.648E-02
DAV:   8    -0.342504101610E+02    0.39787E-05   -0.10600E-04  4370   0.567E-02    0.557E-02
DAV:   9    -0.342504107464E+02   -0.58545E-06   -0.13961E-05  4090   0.181E-02    0.422E-02
DAV:  10    -0.342504079535E+02    0.27929E-05   -0.24069E-05  4140   0.217E-02    0.159E-02
DAV:  11    -0.342504104672E+02   -0.25137E-05   -0.50466E-06  3726   0.110E-02    0.996E-03
DAV:  12    -0.342504122186E+02   -0.17514E-05   -0.60178E-07  2276   0.406E-03    0.697E-03
DAV:  13    -0.342504145013E+02   -0.22827E-05   -0.23633E-07  2048   0.241E-03    0.448E-03
DAV:  14    -0.342504194921E+02   -0.49908E-05   -0.64163E-07  2078   0.296E-03    0.210E-03
DAV:  15    -0.342504211233E+02   -0.16312E-05   -0.16277E-07  1850   0.169E-03    0.238E-03
DAV:  16    -0.342504247155E+02   -0.35922E-05   -0.34485E-07  1988   0.187E-03    0.175E-03
DAV:  17    -0.342504262201E+02   -0.15046E-05   -0.17307E-07  1766   0.138E-03    0.153E-03
DAV:  18    -0.342504268111E+02   -0.59102E-06   -0.58176E-08  1700   0.951E-04
   6 F= -.34250427E+02 E0= -.34239250E+02  d E =-.258127E-01
quench:  g(F)=  0.000E+00 g(S)=  0.000E+00 dE (1.order)= 0.000E+00
 bond charge predicted
       N       E                     dE             d eps       ncg     rms          rms(c)
DAV:   1    -0.342593850694E+02   -0.89588E-02   -0.45765E-02  2992   0.112E+00    0.863E-02
DAV:   2    -0.342594432635E+02   -0.58194E-04   -0.77951E-04  4144   0.142E-01    0.261E-02
DAV:   3    -0.342594434108E+02   -0.14726E-06   -0.12450E-04  4226   0.533E-02    0.280E-02
DAV:   4    -0.342594387191E+02    0.46917E-05   -0.71403E-05  4392   0.346E-02    0.189E-02
DAV:   5    -0.342594389432E+02   -0.22412E-06   -0.50156E-05  4302   0.269E-02    0.164E-02
DAV:   6    -0.342594360418E+02    0.29014E-05   -0.29457E-05  4330   0.212E-02    0.775E-03
DAV:   7    -0.342594356702E+02    0.37158E-06   -0.18189E-06  2228   0.813E-03
   7 F= -.34259436E+02 E0= -.34248298E+02  d E =-.900886E-02
quench:  g(F)=  0.000E+00 g(S)=  0.000E+00 dE (1.order)= 0.000E+00
 bond charge predicted
       N       E                     dE             d eps       ncg     rms          rms(c)
DAV:   1    -0.342757121338E+02   -0.16276E-01   -0.17398E-01  2992   0.218E+00    0.168E-01
DAV:   2    -0.342759365873E+02   -0.22445E-03   -0.29840E-03  4144   0.277E-01    0.505E-02
DAV:   3    -0.342759384276E+02   -0.18403E-05   -0.49274E-04  4232   0.105E-01    0.561E-02
DAV:   4    -0.342759185641E+02    0.19863E-04   -0.27749E-04  4396   0.677E-02    0.366E-02
DAV:   5    -0.342759196158E+02   -0.10516E-05   -0.17635E-04  4640   0.507E-02    0.315E-02
DAV:   6    -0.342759085145E+02    0.11101E-04   -0.10726E-04  4412   0.404E-02    0.155E-02
DAV:   7    -0.342759073913E+02    0.11232E-05   -0.72347E-06  3500   0.154E-02    0.437E-03
DAV:   8    -0.342759071722E+02    0.21910E-06   -0.31949E-06  2896   0.787E-03
   8 F= -.34275907E+02 E0= -.34264848E+02  d E =-.164715E-01
quench:  g(F)=  0.000E+00 g(S)=  0.000E+00 dE (1.order)= 0.000E+00
 bond charge predicted
       N       E                     dE             d eps       ncg     rms          rms(c)
DAV:   1    -0.342966911745E+02   -0.20784E-01   -0.35876E-01  2992   0.314E+00    0.241E-01
DAV:   2    -0.342971595498E+02   -0.46838E-03   -0.61655E-03  4120   0.399E-01    0.723E-02
DAV:   3    -0.342971726674E+02   -0.13118E-04   -0.10734E-03  4256   0.152E-01    0.825E-02
DAV:   4    -0.342971240420E+02    0.48625E-04   -0.64417E-04  4382   0.101E-01    0.525E-02
DAV:   5    -0.342971219637E+02    0.20783E-05   -0.30891E-04  4540   0.680E-02    0.415E-02
DAV:   6    -0.342971040435E+02    0.17920E-04   -0.19215E-04  4334   0.555E-02    0.224E-02
DAV:   7    -0.342971014212E+02    0.26223E-05   -0.15672E-05  4000   0.223E-02    0.579E-03
DAV:   8    -0.342971009807E+02    0.44050E-06   -0.59805E-06  3574   0.106E-02
   9 F= -.34297101E+02 E0= -.34286155E+02  d E =-.211938E-01
quench:  g(F)=  0.000E+00 g(S)=  0.000E+00 dE (1.order)= 0.000E+00
 bond charge predicted
       N       E                     dE             d eps       ncg     rms          rms(c)
DAV:   1    -0.343190092842E+02   -0.21908E-01   -0.56196E-01  2992   0.392E+00    0.302E-01
DAV:   2    -0.343197577202E+02   -0.74844E-03   -0.97792E-03  4088   0.503E-01    0.912E-02
DAV:   3    -0.343197970903E+02   -0.39370E-04   -0.18377E-03  4304   0.195E-01    0.107E-01
DAV:   4    -0.343197038106E+02    0.93280E-04   -0.11461E-03  4428   0.132E-01    0.657E-02
DAV:   5    -0.343196953436E+02    0.84670E-05   -0.40010E-04  4468   0.786E-02    0.479E-02
DAV:   6    -0.343196745789E+02    0.20765E-04   -0.26562E-04  4282   0.671E-02    0.287E-02
DAV:   7    -0.343196694978E+02    0.50811E-05   -0.27498E-05  4128   0.288E-02    0.659E-03
DAV:   8    -0.343196689477E+02    0.55013E-06   -0.91010E-06  4042   0.132E-02
  10 F= -.34319669E+02 E0= -.34308864E+02  d E =-.225680E-01
quench:  g(F)=  0.000E+00 g(S)=  0.000E+00 dE (1.order)= 0.000E+00
 bond charge predicted
       N       E                     dE             d eps       ncg     rms          rms(c)
DAV:   1    -0.343394993933E+02   -0.19830E-01   -0.73847E-01  2992   0.450E+00    0.347E-01
DAV:   2    -0.343405154911E+02   -0.10161E-02   -0.13201E-02  4056   0.584E-01    0.107E-01
DAV:   3    -0.343406073687E+02   -0.91878E-04   -0.28366E-03  4342   0.235E-01    0.130E-01
DAV:   4    -0.343404446175E+02    0.16275E-03   -0.18285E-03  4420   0.164E-01    0.758E-02
DAV:   5    -0.343404267791E+02    0.17838E-04   -0.41616E-04  4316   0.824E-02    0.495E-02
DAV:   6    -0.343404093271E+02    0.17452E-04   -0.30832E-04  4232   0.748E-02    0.331E-02
DAV:   7    -0.343404011124E+02    0.82147E-05   -0.43319E-05  4180   0.349E-02    0.699E-03
DAV:   8    -0.343404006763E+02    0.43606E-06   -0.11947E-05  4240   0.154E-02    0.499E-03
DAV:   9    -0.343404006949E+02   -0.18548E-07   -0.10760E-06  2372   0.604E-03
  11 F= -.34340401E+02 E0= -.34329754E+02  d E =-.207317E-01
quench:  g(F)=  0.000E+00 g(S)=  0.000E+00 dE (1.order)= 0.000E+00
 bond charge predicted
       N       E                     dE             d eps       ncg     rms          rms(c)
DAV:   1    -0.343558956372E+02   -0.15495E-01   -0.84029E-01  2992   0.479E+00    0.374E-01
DAV:   2    -0.343571194784E+02   -0.12238E-02   -0.15868E-02  4072   0.639E-01    0.122E-01
DAV:   3    -0.343572999274E+02   -0.18045E-03   -0.42534E-03  4454   0.278E-01    0.154E-01
DAV:   4    -0.343570291354E+02    0.27079E-03   -0.28293E-03  4576   0.200E-01    0.832E-02
DAV:   5    -0.343570004988E+02    0.28637E-04   -0.38639E-04  4264   0.826E-02    0.474E-02
DAV:   6    -0.343569895670E+02    0.10932E-04   -0.31036E-04  4230   0.777E-02    0.351E-02
DAV:   7    -0.343569795953E+02    0.99718E-05   -0.56650E-05  4220   0.385E-02    0.801E-03
DAV:   8    -0.343569791296E+02    0.46569E-06   -0.13914E-05  4296   0.168E-02    0.537E-03
DAV:   9    -0.343569790618E+02    0.67836E-07   -0.12334E-06  2414   0.649E-03
  12 F= -.34356979E+02 E0= -.34346489E+02  d E =-.165784E-01
quench:  g(F)=  0.000E+00 g(S)=  0.000E+00 dE (1.order)= 0.000E+00
 bond charge predicted
       N       E                     dE             d eps       ncg     rms          rms(c)
DAV:   1    -0.343681466050E+02   -0.11167E-01   -0.10067E+00  2992   0.524E+00    0.418E-01
DAV:   2    -0.343697641245E+02   -0.16175E-02   -0.20987E-02  4040   0.732E-01    0.149E-01
DAV:   3    -0.343701108891E+02   -0.34676E-03   -0.70194E-03  4544   0.348E-01    0.191E-01
DAV:   4    -0.343696416489E+02    0.46924E-03   -0.48141E-03  4640   0.258E-01    0.972E-02
DAV:   5    -0.343695947844E+02    0.46864E-04   -0.41579E-04  4222   0.894E-02    0.470E-02
DAV:   6    -0.343695900519E+02    0.47325E-05   -0.31498E-04  4320   0.803E-02    0.360E-02
DAV:   7    -0.343695788182E+02    0.11234E-04   -0.77357E-05  4214   0.433E-02    0.933E-03
DAV:   8    -0.343695783454E+02    0.47286E-06   -0.13733E-05  4400   0.172E-02    0.644E-03
DAV:   9    -0.343695782341E+02    0.11122E-06   -0.99416E-07  2402   0.593E-03
  13 F= -.34369578E+02 E0= -.34359243E+02  d E =-.125992E-01
quench:  g(F)=  0.000E+00 g(S)=  0.000E+00 dE (1.order)= 0.000E+00
 bond charge predicted
       N       E                     dE             d eps       ncg     rms          rms(c)
DAV:   1    -0.343763443820E+02   -0.67660E-02   -0.10131E+00  2992   0.525E+00    0.432E-01
DAV:   2    -0.343782767558E+02   -0.19324E-02   -0.25153E-02  4056   0.793E-01    0.176E-01
DAV:   3    -0.343788447788E+02   -0.56802E-03   -0.10817E-02  4584   0.425E-01    0.227E-01
DAV:   4    -0.343781099554E+02    0.73482E-03   -0.75408E-03  4656   0.320E-01    0.108E-01
DAV:   5    -0.343780451540E+02    0.64801E-04   -0.42708E-04  3970   0.952E-02    0.452E-02
DAV:   6    -0.343780444427E+02    0.71128E-06   -0.22929E-04  4392   0.690E-02    0.301E-02
DAV:   7    -0.343780382517E+02    0.61910E-05   -0.73831E-05  4234   0.410E-02    0.108E-02
DAV:   8    -0.343780370023E+02    0.12494E-05   -0.12398E-05  4114   0.166E-02    0.693E-03
DAV:   9    -0.343780370789E+02   -0.76530E-07   -0.10330E-06  2324   0.605E-03
  14 F= -.34378037E+02 E0= -.34367836E+02  d E =-.845884E-02
quench:  g(F)=  0.000E+00 g(S)=  0.000E+00 dE (1.order)= 0.000E+00
 bond charge predicted
       N       E                     dE             d eps       ncg     rms          rms(c)
DAV:   1    -0.343827754979E+02   -0.47385E-02   -0.89421E-01  2992   0.491E+00    0.423E-01
DAV:   2    -0.343849457024E+02   -0.21702E-02   -0.28246E-02  4064   0.826E-01    0.198E-01
DAV:   3    -0.343856765860E+02   -0.73088E-03   -0.14221E-02  4616   0.485E-01    0.249E-01
DAV:   4    -0.343847319108E+02    0.94468E-03   -0.98908E-03  4664   0.367E-01    0.115E-01
DAV:   5    -0.343846546245E+02    0.77286E-04   -0.45665E-04  3670   0.102E-01    0.455E-02
DAV:   6    -0.343846556707E+02   -0.10462E-05   -0.15765E-04  4512   0.526E-02    0.208E-02
DAV:   7    -0.343846551058E+02    0.56485E-06   -0.34841E-05  4208   0.279E-02    0.105E-02
DAV:   8    -0.343846536923E+02    0.14135E-05   -0.15363E-05  4228   0.169E-02    0.756E-03
DAV:   9    -0.343846538331E+02   -0.14075E-06   -0.15728E-06  2396   0.693E-03
  15 F= -.34384654E+02 E0= -.34374567E+02  d E =-.661675E-02
quench:  g(F)=  0.000E+00 g(S)=  0.000E+00 dE (1.order)= 0.000E+00
 bond charge predicted
       N       E                     dE             d eps       ncg     rms          rms(c)
DAV:   1    -0.343904181147E+02   -0.57644E-02   -0.82676E-01  2992   0.470E+00    0.442E-01
DAV:   2    -0.343929075380E+02   -0.24894E-02   -0.32123E-02  4034   0.869E-01    0.213E-01
DAV:   3    -0.343936876834E+02   -0.78015E-03   -0.15608E-02  4544   0.516E-01    0.259E-01
DAV:   4    -0.343926794416E+02    0.10082E-02   -0.10909E-02  4624   0.389E-01    0.121E-01
DAV:   5    -0.343925979098E+02    0.81532E-04   -0.60082E-04  3914   0.116E-01    0.478E-02
DAV:   6    -0.343925958198E+02    0.20901E-05   -0.15799E-04  4392   0.615E-02    0.168E-02
DAV:   7    -0.343925959692E+02   -0.14945E-06   -0.33528E-05  4244   0.303E-02    0.124E-02
DAV:   8    -0.343925951954E+02    0.77386E-06   -0.63572E-06  3480   0.135E-02
  16 F= -.34392595E+02 E0= -.34382619E+02  d E =-.794136E-02
quench:  g(F)=  0.000E+00 g(S)=  0.000E+00 dE (1.order)= 0.000E+00
 bond charge predicted
       N       E                     dE             d eps       ncg     rms          rms(c)
DAV:   1    -0.343996388139E+02   -0.70428E-02   -0.10265E+00  2992   0.526E+00    0.528E-01
DAV:   2    -0.344027468684E+02   -0.31081E-02   -0.39235E-02  4044   0.957E-01    0.213E-01
DAV:   3    -0.344034095913E+02   -0.66272E-03   -0.13327E-02  4464   0.496E-01    0.251E-01
DAV:   4    -0.344025641497E+02    0.84544E-03   -0.97892E-03  4512   0.378E-01    0.130E-01
DAV:   5    -0.344024802118E+02    0.83938E-04   -0.81658E-04  4078   0.134E-01    0.535E-02
DAV:   6    -0.344024693622E+02    0.10850E-04   -0.27785E-04  4298   0.844E-02    0.221E-02
DAV:   7    -0.344024676755E+02    0.16866E-05   -0.49679E-05  4424   0.372E-02    0.132E-02
DAV:   8    -0.344024673340E+02    0.34157E-06   -0.61834E-06  3534   0.139E-02
  17 F= -.34402467E+02 E0= -.34392624E+02  d E =-.987214E-02
quench:  g(F)=  0.000E+00 g(S)=  0.000E+00 dE (1.order)= 0.000E+00
 bond charge predicted
       N       E                     dE             d eps       ncg     rms          rms(c)
DAV:   1    -0.344053416074E+02   -0.28739E-02   -0.15925E+00  2992   0.663E+00    0.638E-01
DAV:   2    -0.344093465643E+02   -0.40050E-02   -0.49597E-02  4222   0.108E+00    0.200E-01
DAV:   3    -0.344095710746E+02   -0.22451E-03   -0.70874E-03  4330   0.395E-01    0.210E-01
DAV:   4    -0.344092344600E+02    0.33661E-03   -0.61269E-03  4408   0.314E-01    0.143E-01
DAV:   5    -0.344091156464E+02    0.11881E-03   -0.13963E-03  4348   0.160E-01    0.604E-02
DAV:   6    -0.344090916825E+02    0.23964E-04   -0.45238E-04  4214   0.107E-01    0.286E-02
DAV:   7    -0.344090888790E+02    0.28035E-05   -0.75961E-05  4300   0.462E-02    0.147E-02
DAV:   8    -0.344090881436E+02    0.73536E-06   -0.98754E-06  4110   0.175E-02
  18 F= -.34409088E+02 E0= -.34399404E+02  d E =-.662081E-02
quench:  g(F)=  0.000E+00 g(S)=  0.000E+00 dE (1.order)= 0.000E+00
 bond charge predicted
       N       E                     dE             d eps       ncg     rms          rms(c)
DAV:   1    -0.343995665627E+02    0.95223E-02   -0.21976E+00  2992   0.783E+00    0.675E-01
DAV:   2    -0.344041708552E+02   -0.46043E-02   -0.56637E-02  4274   0.116E+00    0.181E-01
DAV:   3    -0.344039785498E+02    0.19231E-03   -0.20282E-03  4154   0.248E-01    0.153E-01
DAV:   4    -0.344039395412E+02    0.39009E-04   -0.42487E-04  4344   0.116E-01    0.978E-02
DAV:   5    -0.344040220326E+02   -0.82491E-04   -0.14391E-03  4490   0.158E-01    0.904E-02
DAV:   6    -0.344039026393E+02    0.11939E-03   -0.14383E-03  4528   0.152E-01    0.338E-02
DAV:   7    -0.344038923310E+02    0.10308E-04   -0.11901E-04  4150   0.494E-02    0.147E-02
DAV:   8    -0.344038910371E+02    0.12939E-05   -0.11452E-05  4142   0.173E-02    0.644E-03
DAV:   9    -0.344038913079E+02   -0.27077E-06   -0.14638E-06  2570   0.656E-03
  19 F= -.34403891E+02 E0= -.34394356E+02  d E =0.519684E-02
quench:  g(F)=  0.000E+00 g(S)=  0.000E+00 dE (1.order)= 0.000E+00
 bond charge predicted
       N       E                     dE             d eps       ncg     rms          rms(c)
DAV:   1    -0.344044872204E+02   -0.59618E-03   -0.18285E-03  3004   0.222E-01    0.278E-02
DAV:   2    -0.344044920447E+02   -0.48243E-05   -0.81920E-05  4216   0.463E-02    0.150E-02
DAV:   3    -0.344044940681E+02   -0.20234E-05   -0.56640E-05  4394   0.320E-02    0.150E-02
DAV:   4    -0.344044911847E+02    0.28833E-05   -0.42803E-05  4304   0.253E-02    0.912E-03
DAV:   5    -0.344044905310E+02    0.65377E-06   -0.79881E-06  3302   0.123E-02
  20 F= -.34404491E+02 E0= -.34394957E+02  d E =-.599223E-03
quench:  g(F)=  0.000E+00 g(S)=  0.000E+00 dE (1.order)= 0.000E+00
 bond charge predicted
       N       E                     dE             d eps       ncg     rms          rms(c)
DAV:   1    -0.344055650601E+02   -0.10739E-02   -0.70676E-03  2992   0.435E-01    0.534E-02
DAV:   2    -0.344055850377E+02   -0.19978E-04   -0.31088E-04  4112   0.911E-02    0.301E-02
DAV:   3    -0.344055916186E+02   -0.65809E-05   -0.20073E-04  4464   0.605E-02    0.289E-02
DAV:   4    -0.344055816301E+02    0.99885E-05   -0.15770E-04  4568   0.483E-02    0.186E-02
DAV:   5    -0.344055790815E+02    0.25487E-05   -0.28731E-05  4190   0.228E-02    0.988E-03
DAV:   6    -0.344055776051E+02    0.14764E-05   -0.12189E-05  3822   0.156E-02    0.291E-03
DAV:   7    -0.344055775407E+02    0.64342E-07   -0.76073E-07  1604   0.570E-03
  21 F= -.34405578E+02 E0= -.34396044E+02  d E =-.108701E-02
quench:  g(F)=  0.000E+00 g(S)=  0.000E+00 dE (1.order)= 0.000E+00
 bond charge predicted
       N       E                     dE             d eps       ncg     rms          rms(c)
DAV:   1    -0.344069482508E+02   -0.13706E-02   -0.14810E-02  2992   0.630E-01    0.768E-02
DAV:   2    -0.344069926305E+02   -0.44380E-04   -0.66817E-04  4192   0.132E-01    0.441E-02
DAV:   3    -0.344070080886E+02   -0.15458E-04   -0.47251E-04  4472   0.919E-02    0.437E-02
DAV:   4    -0.344069839058E+02    0.24183E-04   -0.35113E-04  4576   0.719E-02    0.264E-02
DAV:   5    -0.344069797941E+02    0.41117E-05   -0.60990E-05  4286   0.334E-02    0.150E-02
DAV:   6    -0.344069763848E+02    0.34093E-05   -0.26514E-05  4204   0.229E-02    0.443E-03
DAV:   7    -0.344069761773E+02    0.20751E-06   -0.15635E-06  1940   0.811E-03
  22 F= -.34406976E+02 E0= -.34397446E+02  d E =-.139864E-02
quench:  g(F)=  0.000E+00 g(S)=  0.000E+00 dE (1.order)= 0.000E+00
 bond charge predicted
       N       E                     dE             d eps       ncg     rms          rms(c)
DAV:   1    -0.344084220460E+02   -0.14457E-02   -0.23971E-02  2992   0.800E-01    0.977E-02
DAV:   2    -0.344084967999E+02   -0.74754E-04   -0.11066E-03  4200   0.170E-01    0.569E-02
DAV:   3    -0.344085229981E+02   -0.26198E-04   -0.80458E-04  4472   0.119E-01    0.566E-02
DAV:   4    -0.344084816741E+02    0.41324E-04   -0.58407E-04  4576   0.926E-02    0.335E-02
DAV:   5    -0.344084758079E+02    0.58662E-05   -0.97381E-05  4286   0.424E-02    0.193E-02
DAV:   6    -0.344084703728E+02    0.54351E-05   -0.42956E-05  4236   0.292E-02    0.558E-03
DAV:   7    -0.344084700633E+02    0.30948E-06   -0.25646E-06  2338   0.102E-02
  23 F= -.34408470E+02 E0= -.34398945E+02  d E =-.149389E-02
quench:  g(F)=  0.000E+00 g(S)=  0.000E+00 dE (1.order)= 0.000E+00
 bond charge predicted
       N       E                     dE             d eps       ncg     rms          rms(c)
DAV:   1    -0.344097733196E+02   -0.13029E-02   -0.33247E-02  2992   0.941E-01    0.115E-01
DAV:   2    -0.344098811369E+02   -0.10782E-03   -0.15774E-03  4200   0.202E-01    0.681E-02
DAV:   3    -0.344099190298E+02   -0.37893E-04   -0.11801E-03  4480   0.144E-01    0.679E-02
DAV:   4    -0.344098582194E+02    0.60810E-04   -0.83346E-04  4584   0.110E-01    0.393E-02
DAV:   5    -0.344098509029E+02    0.73166E-05   -0.13257E-04  4262   0.497E-02    0.229E-02
DAV:   6    -0.344098434109E+02    0.74920E-05   -0.59335E-05  4224   0.344E-02    0.643E-03
DAV:   7    -0.344098430787E+02    0.33219E-06   -0.38430E-06  2996   0.119E-02
  24 F= -.34409843E+02 E0= -.34400324E+02  d E =-.137302E-02
quench:  g(F)=  0.000E+00 g(S)=  0.000E+00 dE (1.order)= 0.000E+00
 bond charge predicted
       N       E                     dE             d eps       ncg     rms          rms(c)
DAV:   1    -0.344108302231E+02   -0.98681E-03   -0.41581E-02  2992   0.105E+00    0.128E-01
DAV:   2    -0.344109705327E+02   -0.14031E-03   -0.20329E-03  4208   0.229E-01    0.776E-02
DAV:   3    -0.344110198354E+02   -0.49303E-04   -0.15739E-03  4488   0.165E-01    0.775E-02
DAV:   4    -0.344109383084E+02    0.81527E-04   -0.10704E-03  4600   0.125E-01    0.435E-02
DAV:   5    -0.344109303572E+02    0.79512E-05   -0.16072E-04  4248   0.551E-02    0.258E-02
DAV:   6    -0.344109209274E+02    0.94298E-05   -0.73274E-05  4224   0.384E-02    0.697E-03
DAV:   7    -0.344109206184E+02    0.30899E-06   -0.48799E-06  3388   0.131E-02
  25 F= -.34410921E+02 E0= -.34401409E+02  d E =-.107754E-02
quench:  g(F)=  0.000E+00 g(S)=  0.000E+00 dE (1.order)= 0.000E+00
 bond charge predicted
       N       E                     dE             d eps       ncg     rms          rms(c)
DAV:   1    -0.344115162383E+02   -0.59531E-03   -0.59572E-02  2992   0.126E+00    0.152E-01
DAV:   2    -0.344117242155E+02   -0.20798E-03   -0.29730E-03  4208   0.276E-01    0.940E-02
DAV:   3    -0.344117957833E+02   -0.71568E-04   -0.23669E-03  4504   0.202E-01    0.938E-02
DAV:   4    -0.344116730332E+02    0.12275E-03   -0.15440E-03  4616   0.149E-01    0.511E-02
DAV:   5    -0.344116635981E+02    0.94351E-05   -0.21534E-04  4228   0.642E-02    0.308E-02
DAV:   6    -0.344116504433E+02    0.13155E-04   -0.10022E-04  4218   0.450E-02    0.791E-03
DAV:   7    -0.344116501823E+02    0.26096E-06   -0.66571E-06  3730   0.151E-02
  26 F= -.34411650E+02 E0= -.34402147E+02  d E =-.729564E-03
quench:  g(F)=  0.000E+00 g(S)=  0.000E+00 dE (1.order)= 0.000E+00
 bond charge predicted
       N       E                     dE             d eps       ncg     rms          rms(c)
DAV:   1    -0.344116966196E+02   -0.46176E-04   -0.81805E-02  2992   0.147E+00    0.173E-01
DAV:   2    -0.344119862816E+02   -0.28966E-03   -0.40709E-03  4200   0.322E-01    0.110E-01
DAV:   3    -0.344120815445E+02   -0.95263E-04   -0.33218E-03  4520   0.237E-01    0.109E-01
DAV:   4    -0.344119092639E+02    0.17228E-03   -0.20572E-03  4616   0.172E-01    0.572E-02
DAV:   5    -0.344118991254E+02    0.10139E-04   -0.25870E-04  4180   0.710E-02    0.350E-02
DAV:   6    -0.344118823905E+02    0.16735E-04   -0.12227E-04  4196   0.500E-02    0.851E-03
DAV:   7    -0.344118822716E+02    0.11889E-06   -0.80978E-06  3808   0.164E-02
  27 F= -.34411882E+02 E0= -.34402389E+02  d E =-.232089E-03
quench:  g(F)=  0.000E+00 g(S)=  0.000E+00 dE (1.order)= 0.000E+00
 bond charge predicted
       N       E                     dE             d eps       ncg     rms          rms(c)
DAV:   1    -0.344113543493E+02    0.52804E-03   -0.10935E-01  2992   0.171E+00    0.187E-01
DAV:   2    -0.344117288765E+02   -0.37453E-03   -0.51417E-03  4200   0.360E-01    0.121E-01
DAV:   3    -0.344118433279E+02   -0.11445E-03   -0.42497E-03  4512   0.267E-01    0.121E-01
DAV:   4    -0.344116223859E+02    0.22094E-03   -0.24708E-03  4600   0.188E-01    0.600E-02
DAV:   5    -0.344116123383E+02    0.10048E-04   -0.26589E-04  4160   0.731E-02    0.372E-02
DAV:   6    -0.344115941408E+02    0.18198E-04   -0.12655E-04  4202   0.512E-02    0.886E-03
DAV:   7    -0.344115941478E+02   -0.70345E-08   -0.87182E-06  3888   0.167E-02
  28 F= -.34411594E+02 E0= -.34402110E+02  d E =0.288124E-03
quench:  g(F)=  0.000E+00 g(S)=  0.000E+00 dE (1.order)= 0.000E+00
 bond charge predicted
       N       E                     dE             d eps       ncg     rms          rms(c)
DAV:   1    -0.344106436231E+02    0.95052E-03   -0.14226E-01  2992   0.196E+00    0.188E-01
DAV:   2    -0.344110833171E+02   -0.43969E-03   -0.58605E-03  4176   0.381E-01    0.125E-01
DAV:   3    -0.344112016868E+02   -0.11837E-03   -0.47274E-03  4528   0.281E-01    0.124E-01
DAV:   4    -0.344109555512E+02    0.24614E-03   -0.25751E-03  4664   0.191E-01    0.578E-02
DAV:   5    -0.344109442013E+02    0.11350E-04   -0.21918E-04  4166   0.677E-02    0.354E-02
DAV:   6    -0.344109295714E+02    0.14630E-04   -0.10551E-04  4258   0.469E-02    0.873E-03
DAV:   7    -0.344109294627E+02    0.10861E-06   -0.75556E-06  3748   0.155E-02
  29 F= -.34410929E+02 E0= -.34401452E+02  d E =0.664685E-03
quench:  g(F)=  0.000E+00 g(S)=  0.000E+00 dE (1.order)= 0.000E+00
 bond charge predicted
       N       E                     dE             d eps       ncg     rms          rms(c)
DAV:   1    -0.344098538911E+02    0.10757E-02   -0.17345E-01  2992   0.217E+00    0.173E-01
DAV:   2    -0.344103153023E+02   -0.46141E-03   -0.59410E-03  4192   0.382E-01    0.116E-01
DAV:   3    -0.344104266021E+02   -0.11130E-03   -0.45195E-03  4584   0.274E-01    0.120E-01
DAV:   4    -0.344101858895E+02    0.24071E-03   -0.22858E-03  4736   0.180E-01    0.498E-02
DAV:   5    -0.344101737005E+02    0.12189E-04   -0.13093E-04  4056   0.548E-02    0.293E-02
DAV:   6    -0.344101668491E+02    0.68515E-05   -0.70415E-05  4386   0.382E-02    0.836E-03
DAV:   7    -0.344101662232E+02    0.62586E-06   -0.81318E-06  3696   0.153E-02
  30 F= -.34410166E+02 E0= -.34400691E+02  d E =0.763240E-03
quench:  g(F)=  0.000E+00 g(S)=  0.000E+00 dE (1.order)= 0.000E+00
 bond charge predicted
       N       E                     dE             d eps       ncg     rms          rms(c)
DAV:   1    -0.344102219854E+02   -0.55136E-04   -0.80296E-05  3016   0.465E-02    0.648E-03
DAV:   2    -0.344102223749E+02   -0.38953E-06   -0.64176E-06  3504   0.134E-02
  31 F= -.34410222E+02 E0= -.34400749E+02  d E =-.561517E-04
quench:  g(F)=  0.000E+00 g(S)=  0.000E+00 dE (1.order)= 0.000E+00
 bond charge predicted
       N       E                     dE             d eps       ncg     rms          rms(c)
DAV:   1    -0.344103297792E+02   -0.10779E-03   -0.31767E-04  3004   0.924E-02    0.112E-02
DAV:   2    -0.344103310574E+02   -0.12781E-05   -0.13333E-05  3904   0.193E-02    0.673E-03
DAV:   3    -0.344103311836E+02   -0.12621E-06   -0.15409E-06  2300   0.702E-03
  32 F= -.34410331E+02 E0= -.34400860E+02  d E =-.108809E-03
quench:  g(F)=  0.000E+00 g(S)=  0.000E+00 dE (1.order)= 0.000E+00
 bond charge predicted
       N       E                     dE             d eps       ncg     rms          rms(c)
DAV:   1    -0.344104840706E+02   -0.15301E-03   -0.67603E-04  3004   0.135E-01    0.155E-02
DAV:   2    -0.344104865042E+02   -0.24336E-05   -0.23607E-05  4088   0.240E-02    0.829E-03
DAV:   3    -0.344104868311E+02   -0.32689E-06   -0.17674E-06  2606   0.754E-03
  33 F= -.34410487E+02 E0= -.34401018E+02  d E =-.155647E-03
quench:  g(F)=  0.000E+00 g(S)=  0.000E+00 dE (1.order)= 0.000E+00
 bond charge predicted
       N       E                     dE             d eps       ncg     rms          rms(c)
DAV:   1    -0.344106767842E+02   -0.19028E-03   -0.11808E-03  3004   0.178E-01    0.215E-02
DAV:   2    -0.344106853793E+02   -0.85951E-05   -0.10841E-04  4368   0.496E-02    0.217E-02
DAV:   3    -0.344106829915E+02    0.23878E-05   -0.11249E-04  4432   0.418E-02    0.157E-02
DAV:   4    -0.344106799706E+02    0.30209E-05   -0.28959E-05  4220   0.205E-02    0.747E-03
DAV:   5    -0.344106805898E+02   -0.61924E-06   -0.24840E-06  2246   0.853E-03
  34 F= -.34410681E+02 E0= -.34401215E+02  d E =-.193759E-03
quench:  g(F)=  0.000E+00 g(S)=  0.000E+00 dE (1.order)= 0.000E+00
 bond charge predicted
       N       E                     dE             d eps       ncg     rms          rms(c)
DAV:   1    -0.344108939299E+02   -0.21396E-03   -0.17740E-03  3004   0.219E-01    0.253E-02
DAV:   2    -0.344108993475E+02   -0.54176E-05   -0.68876E-05  3976   0.431E-02    0.136E-02
DAV:   3    -0.344109001700E+02   -0.82251E-06   -0.18257E-05  4160   0.197E-02    0.966E-03
DAV:   4    -0.344109006677E+02   -0.49773E-06   -0.24732E-05  3992   0.193E-02    0.107E-02
DAV:   5    -0.344109002608E+02    0.40692E-06   -0.11940E-05  3736   0.138E-02    0.526E-03
DAV:   6    -0.344109001788E+02    0.81936E-07   -0.31016E-06  2398   0.828E-03
  35 F= -.34410900E+02 E0= -.34401441E+02  d E =-.219589E-03
quench:  g(F)=  0.000E+00 g(S)=  0.000E+00 dE (1.order)= 0.000E+00
 bond charge predicted
       N       E                     dE             d eps       ncg     rms          rms(c)
DAV:   1    -0.344111265139E+02   -0.22625E-03   -0.24225E-03  3004   0.256E-01    0.288E-02
DAV:   2    -0.344111339219E+02   -0.74080E-05   -0.98403E-05  4104   0.507E-02    0.164E-02
DAV:   3    -0.344111356425E+02   -0.17206E-05   -0.43419E-05  4354   0.289E-02    0.138E-02
DAV:   4    -0.344111345126E+02    0.11299E-05   -0.39544E-05  4248   0.242E-02    0.112E-02
DAV:   5    -0.344111342514E+02    0.26120E-06   -0.11796E-05  3708   0.140E-02    0.631E-03
DAV:   6    -0.344111342888E+02   -0.37439E-07   -0.41461E-06  2676   0.946E-03
  36 F= -.34411134E+02 E0= -.34401681E+02  d E =-.234110E-03
quench:  g(F)=  0.000E+00 g(S)=  0.000E+00 dE (1.order)= 0.000E+00
 bond charge predicted
       N       E                     dE             d eps       ncg     rms          rms(c)
DAV:   1    -0.344113846443E+02   -0.25039E-03   -0.38653E-03  2992   0.324E-01    0.360E-02
DAV:   2    -0.344113959769E+02   -0.11333E-04   -0.15358E-04  4088   0.634E-02    0.204E-02
DAV:   3    -0.344113985833E+02   -0.26064E-05   -0.68379E-05  4400   0.362E-02    0.172E-02
DAV:   4    -0.344113966387E+02    0.19446E-05   -0.62251E-05  4416   0.302E-02    0.139E-02
DAV:   5    -0.344113961121E+02    0.52664E-06   -0.18234E-05  3958   0.174E-02    0.783E-03
DAV:   6    -0.344113960492E+02    0.62869E-07   -0.67415E-06  3118   0.116E-02
  37 F= -.34411396E+02 E0= -.34401951E+02  d E =-.261760E-03
quench:  g(F)=  0.000E+00 g(S)=  0.000E+00 dE (1.order)= 0.000E+00
 bond charge predicted
       N       E                     dE             d eps       ncg     rms          rms(c)
DAV:   1    -0.344116550764E+02   -0.25896E-03   -0.59674E-03  2992   0.403E-01    0.439E-02
DAV:   2    -0.344116719469E+02   -0.16870E-04   -0.23041E-04  4080   0.775E-02    0.248E-02
DAV:   3    -0.344116755658E+02   -0.36189E-05   -0.10130E-04  4424   0.441E-02    0.209E-02
DAV:   4    -0.344116726423E+02    0.29235E-05   -0.92245E-05  4552   0.367E-02    0.170E-02
DAV:   5    -0.344116717197E+02    0.92263E-06   -0.27074E-05  4188   0.210E-02    0.960E-03
DAV:   6    -0.344116714754E+02    0.24430E-06   -0.10263E-05  3660   0.141E-02    0.233E-03
DAV:   7    -0.344116714560E+02    0.19415E-07   -0.78879E-07  1652   0.562E-03
  38 F= -.34411671E+02 E0= -.34402237E+02  d E =-.275407E-03
quench:  g(F)=  0.000E+00 g(S)=  0.000E+00 dE (1.order)= 0.000E+00
 bond charge predicted
       N       E                     dE             d eps       ncg     rms          rms(c)
DAV:   1    -0.344119168161E+02   -0.24534E-03   -0.89642E-03  2992   0.495E-01    0.522E-02
DAV:   2    -0.344119411577E+02   -0.24342E-04   -0.32612E-04  4064   0.920E-02    0.289E-02
DAV:   3    -0.344119463518E+02   -0.51941E-05   -0.14036E-04  4424   0.518E-02    0.250E-02
DAV:   4    -0.344119416725E+02    0.46793E-05   -0.12638E-04  4536   0.430E-02    0.196E-02
DAV:   5    -0.344119404599E+02    0.12126E-05   -0.34509E-05  4260   0.238E-02    0.108E-02
DAV:   6    -0.344119400434E+02    0.41649E-06   -0.13413E-05  3884   0.162E-02    0.271E-03
DAV:   7    -0.344119399948E+02    0.48604E-07   -0.10081E-06  1736   0.623E-03
  39 F= -.34411940E+02 E0= -.34402520E+02  d E =-.268539E-03
quench:  g(F)=  0.000E+00 g(S)=  0.000E+00 dE (1.order)= 0.000E+00
 bond charge predicted
       N       E                     dE             d eps       ncg     rms          rms(c)
DAV:   1    -0.344121462834E+02   -0.20624E-03   -0.13084E-02  2992   0.600E-01    0.598E-02
DAV:   2    -0.344121793387E+02   -0.33055E-04   -0.43964E-04  4056   0.107E-01    0.330E-02
DAV:   3    -0.344121858422E+02   -0.65035E-05   -0.18021E-04  4456   0.586E-02    0.283E-02
DAV:   4    -0.344121796965E+02    0.61456E-05   -0.16223E-04  4594   0.487E-02    0.223E-02
DAV:   5    -0.344121780099E+02    0.16866E-05   -0.43590E-05  4376   0.267E-02    0.123E-02
DAV:   6    -0.344121773158E+02    0.69417E-06   -0.16818E-05  4032   0.182E-02    0.298E-03
DAV:   7    -0.344121772686E+02    0.47184E-07   -0.12237E-06  1850   0.683E-03
  40 F= -.34412177E+02 E0= -.34402775E+02  d E =-.237274E-03
quench:  g(F)=  0.000E+00 g(S)=  0.000E+00 dE (1.order)= 0.000E+00
 bond charge predicted
       N       E                     dE             d eps       ncg     rms          rms(c)
DAV:   1    -0.344123221426E+02   -0.14483E-03   -0.18467E-02  2992   0.715E-01    0.649E-02
DAV:   2    -0.344123639206E+02   -0.41778E-04   -0.54774E-04  4048   0.119E-01    0.355E-02
DAV:   3    -0.344123709827E+02   -0.70622E-05   -0.20120E-04  4498   0.621E-02    0.301E-02
DAV:   4    -0.344123642806E+02    0.67021E-05   -0.18411E-04  4634   0.518E-02    0.241E-02
DAV:   5    -0.344123620911E+02    0.21895E-05   -0.50352E-05  4408   0.286E-02    0.131E-02
DAV:   6    -0.344123611606E+02    0.93044E-06   -0.18667E-05  4116   0.192E-02    0.304E-03
DAV:   7    -0.344123611367E+02    0.23925E-07   -0.13131E-06  1904   0.707E-03
  41 F= -.34412361E+02 E0= -.34402980E+02  d E =-.183868E-03
quench:  g(F)=  0.000E+00 g(S)=  0.000E+00 dE (1.order)= 0.000E+00
 bond charge predicted
       N       E                     dE             d eps       ncg     rms          rms(c)
DAV:   1    -0.344124359404E+02   -0.74780E-04   -0.24542E-02  2992   0.827E-01    0.647E-02
DAV:   2    -0.344124838191E+02   -0.47879E-04   -0.61303E-04  4072   0.125E-01    0.348E-02
DAV:   3    -0.344124899306E+02   -0.61115E-05   -0.18039E-04  4508   0.591E-02    0.289E-02
DAV:   4    -0.344124844809E+02    0.54497E-05   -0.17308E-04  4644   0.504E-02    0.241E-02
DAV:   5    -0.344124819372E+02    0.25438E-05   -0.51010E-05  4436   0.287E-02    0.128E-02
DAV:   6    -0.344124809423E+02    0.99488E-06   -0.17430E-05  4108   0.187E-02    0.281E-03
DAV:   7    -0.344124809628E+02   -0.20573E-07   -0.11878E-06  1946   0.674E-03
  42 F= -.34412481E+02 E0= -.34403125E+02  d E =-.119826E-03
quench:  g(F)=  0.000E+00 g(S)=  0.000E+00 dE (1.order)= 0.000E+00
 bond charge predicted
       N       E                     dE             d eps       ncg     rms          rms(c)
DAV:   1    -0.344124975325E+02   -0.16590E-04   -0.29645E-02  2992   0.911E-01    0.584E-02
DAV:   2    -0.344125469148E+02   -0.49382E-04   -0.61317E-04  4096   0.125E-01    0.303E-02
DAV:   3    -0.344125503029E+02   -0.33881E-05   -0.11335E-04  4478   0.480E-02    0.241E-02
DAV:   4    -0.344125484576E+02    0.18453E-05   -0.12631E-04  4690   0.433E-02    0.223E-02
DAV:   5    -0.344125455059E+02    0.29517E-05   -0.47716E-05  4472   0.272E-02    0.114E-02
DAV:   6    -0.344125447341E+02    0.77181E-06   -0.13635E-05  4018   0.167E-02    0.255E-03
DAV:   7    -0.344125447608E+02   -0.26645E-07   -0.10136E-06  1886   0.613E-03
  43 F= -.34412545E+02 E0= -.34403215E+02  d E =-.637979E-04
quench:  g(F)=  0.000E+00 g(S)=  0.000E+00 dE (1.order)= 0.000E+00
 bond charge predicted
       N       E                     dE             d eps       ncg     rms          rms(c)
DAV:   1    -0.344125523312E+02   -0.75970E-05   -0.11423E-05  3016   0.173E-02    0.273E-03
DAV:   2    -0.344125523779E+02   -0.46787E-07   -0.54622E-07  1532   0.423E-03
  44 F= -.34412552E+02 E0= -.34403223E+02  d E =-.761717E-05
quench:  g(F)=  0.000E+00 g(S)=  0.000E+00 dE (1.order)= 0.000E+00
 bond charge predicted
       N       E                     dE             d eps       ncg     rms          rms(c)
DAV:   1    -0.344125669839E+02   -0.14653E-04   -0.44297E-05  3004   0.342E-02    0.431E-03
DAV:   2    -0.344125672360E+02   -0.25207E-06   -0.45175E-06  2850   0.108E-02
  45 F= -.34412567E+02 E0= -.34403239E+02  d E =-.148580E-04
quench:  g(F)=  0.000E+00 g(S)=  0.000E+00 dE (1.order)= 0.000E+00
 bond charge predicted
       N       E                     dE             d eps       ncg     rms          rms(c)
DAV:   1    -0.344125877443E+02   -0.20760E-04   -0.10076E-04  3010   0.517E-02    0.638E-03
DAV:   2    -0.344125883591E+02   -0.61488E-06   -0.10832E-05  4024   0.163E-02    0.704E-03
DAV:   3    -0.344125878799E+02    0.47920E-06   -0.94608E-06  3608   0.126E-02
  46 F= -.34412588E+02 E0= -.34403256E+02  d E =-.206440E-04
quench:  g(F)=  0.000E+00 g(S)=  0.000E+00 dE (1.order)= 0.000E+00
 bond charge predicted
       N       E                     dE             d eps       ncg     rms          rms(c)
DAV:   1    -0.344126132707E+02   -0.24912E-04   -0.16414E-04  3004   0.663E-02    0.745E-03
DAV:   2    -0.344126135135E+02   -0.24279E-06   -0.64248E-06  3728   0.127E-02
  47 F= -.34412614E+02 E0= -.34403284E+02  d E =-.256336E-04
quench:  g(F)=  0.000E+00 g(S)=  0.000E+00 dE (1.order)= 0.000E+00
 bond charge predicted
       N       E                     dE             d eps       ncg     rms          rms(c)
DAV:   1    -0.344126426393E+02   -0.29369E-04   -0.25578E-04  3004   0.825E-02    0.100E-02
DAV:   2    -0.344126439203E+02   -0.12810E-05   -0.22712E-05  4368   0.233E-02    0.105E-02
DAV:   3    -0.344126431581E+02    0.76222E-06   -0.21320E-05  3944   0.183E-02    0.690E-03
DAV:   4    -0.344126424567E+02    0.70135E-06   -0.61236E-06  3064   0.968E-03
  48 F= -.34412642E+02 E0= -.34403312E+02  d E =-.289432E-04
quench:  g(F)=  0.000E+00 g(S)=  0.000E+00 dE (1.order)= 0.000E+00
 bond charge predicted
       N       E                     dE             d eps       ncg     rms          rms(c)
DAV:   1    -0.344126730609E+02   -0.29903E-04   -0.34202E-04  2992   0.961E-02    0.102E-02
DAV:   2    -0.344126736796E+02   -0.61869E-06   -0.11252E-05  3772   0.166E-02    0.472E-03
DAV:   3    -0.344126735085E+02    0.17108E-06   -0.59792E-07  1814   0.469E-03
  49 F= -.34412674E+02 E0= -.34403342E+02  d E =-.310518E-04
quench:  g(F)=  0.000E+00 g(S)=  0.000E+00 dE (1.order)= 0.000E+00
 bond charge predicted
       N       E                     dE             d eps       ncg     rms          rms(c)
DAV:   1    -0.344127077695E+02   -0.34090E-04   -0.55980E-04  2992   0.123E-01    0.135E-02
DAV:   2    -0.344127088843E+02   -0.11148E-05   -0.21779E-05  4136   0.237E-02    0.777E-03
DAV:   3    -0.344127087461E+02    0.13819E-06   -0.69653E-06  3378   0.124E-02
  50 F= -.34412709E+02 E0= -.34403379E+02  d E =-.352376E-04
quench:  g(F)=  0.000E+00 g(S)=  0.000E+00 dE (1.order)= 0.000E+00
 bond charge predicted
       N       E                     dE             d eps       ncg     rms          rms(c)
DAV:   1    -0.344127444483E+02   -0.35564E-04   -0.88663E-04  2992   0.154E-01    0.168E-02
DAV:   2    -0.344127474171E+02   -0.29689E-05   -0.49611E-05  4256   0.357E-02    0.142E-02
DAV:   3    -0.344127472967E+02    0.12039E-06   -0.46570E-05  4368   0.274E-02    0.118E-02
DAV:   4    -0.344127452999E+02    0.19968E-05   -0.21005E-05  3888   0.173E-02    0.659E-03
DAV:   5    -0.344127448364E+02    0.46352E-06   -0.24327E-06  2102   0.775E-03
  51 F= -.34412745E+02 E0= -.34403414E+02  d E =-.360903E-04
quench:  g(F)=  0.000E+00 g(S)=  0.000E+00 dE (1.order)= 0.000E+00
 bond charge predicted
       N       E                     dE             d eps       ncg     rms          rms(c)
DAV:   1    -0.344127783440E+02   -0.33044E-04   -0.13474E-03  2992   0.191E-01    0.195E-02
DAV:   2    -0.344127812945E+02   -0.29505E-05   -0.45135E-05  3840   0.347E-02    0.101E-02
DAV:   3    -0.344127817110E+02   -0.41649E-06   -0.16280E-05  3930   0.177E-02    0.865E-03
DAV:   4    -0.344127809927E+02    0.71828E-06   -0.16120E-05  3808   0.154E-02    0.693E-03
DAV:   5    -0.344127802509E+02    0.74175E-06   -0.28677E-06  2366   0.764E-03
  52 F= -.34412780E+02 E0= -.34403450E+02  d E =-.354145E-04
quench:  g(F)=  0.000E+00 g(S)=  0.000E+00 dE (1.order)= 0.000E+00
 bond charge predicted
       N       E                     dE             d eps       ncg     rms          rms(c)
DAV:   1    -0.344128085691E+02   -0.27576E-04   -0.20118E-03  2992   0.234E-01    0.225E-02
DAV:   2    -0.344128127405E+02   -0.41714E-05   -0.62962E-05  3858   0.409E-02    0.116E-02
DAV:   3    -0.344128132686E+02   -0.52815E-06   -0.20772E-05  4180   0.201E-02    0.968E-03
DAV:   4    -0.344128124370E+02    0.83165E-06   -0.20391E-05  3864   0.173E-02    0.799E-03
DAV:   5    -0.344128116084E+02    0.82859E-06   -0.44942E-06  2844   0.921E-03
  53 F= -.34412812E+02 E0= -.34403483E+02  d E =-.313574E-04
quench:  g(F)=  0.000E+00 g(S)=  0.000E+00 dE (1.order)= 0.000E+00
 bond charge predicted
       N       E                     dE             d eps       ncg     rms          rms(c)
DAV:   1    -0.344128314664E+02   -0.19029E-04   -0.29491E-03  2992   0.284E-01    0.249E-02
DAV:   2    -0.344128370598E+02   -0.55934E-05   -0.81265E-05  3868   0.464E-02    0.126E-02
DAV:   3    -0.344128375324E+02   -0.47259E-06   -0.20150E-05  4204   0.202E-02    0.991E-03
DAV:   4    -0.344128369511E+02    0.58129E-06   -0.22142E-05  3928   0.181E-02    0.910E-03
DAV:   5    -0.344128359255E+02    0.10256E-05   -0.61250E-06  3210   0.104E-02    0.392E-03
DAV:   6    -0.344128355938E+02    0.33168E-06   -0.15354E-06  1688   0.683E-03
  54 F= -.34412836E+02 E0= -.34403511E+02  d E =-.239854E-04
quench:  g(F)=  0.000E+00 g(S)=  0.000E+00 dE (1.order)= 0.000E+00
 bond charge predicted
       N       E                     dE             d eps       ncg     rms          rms(c)
DAV:   1    -0.344128474107E+02   -0.11485E-04   -0.42248E-03  2992   0.341E-01    0.262E-02
DAV:   2    -0.344128543823E+02   -0.69717E-05   -0.97333E-05  3930   0.506E-02    0.126E-02
DAV:   3    -0.344128545204E+02   -0.13813E-06   -0.14258E-05  4212   0.178E-02    0.901E-03
DAV:   4    -0.344128546019E+02   -0.81433E-07   -0.19841E-05  3904   0.174E-02    0.994E-03
DAV:   5    -0.344128534268E+02    0.11750E-05   -0.91222E-06  3584   0.122E-02    0.427E-03
DAV:   6    -0.344128530439E+02    0.38299E-06   -0.19876E-06  1916   0.729E-03
  55 F= -.34412853E+02 E0= -.34403535E+02  d E =-.174500E-04
quench:  g(F)=  0.000E+00 g(S)=  0.000E+00 dE (1.order)= 0.000E+00
 bond charge predicted
       N       E                     dE             d eps       ncg     rms          rms(c)
DAV:   1    -0.344128608105E+02   -0.73837E-05   -0.59200E-03  2992   0.405E-01    0.262E-02
DAV:   2    -0.344128691438E+02   -0.83333E-05   -0.11102E-04  4008   0.542E-02    0.120E-02
DAV:   3    -0.344128688204E+02    0.32340E-06   -0.55091E-06  3730   0.128E-02
  56 F= -.34412869E+02 E0= -.34403561E+02  d E =-.157766E-04
quench:  g(F)=  0.000E+00 g(S)=  0.000E+00 dE (1.order)= 0.000E+00
 bond charge predicted
       N       E                     dE             d eps       ncg     rms          rms(c)
DAV:   1    -0.344128805179E+02   -0.11374E-04   -0.81643E-03  2992   0.477E-01    0.246E-02
DAV:   2    -0.344128916619E+02   -0.11144E-04   -0.14283E-04  4280   0.597E-02    0.154E-02
DAV:   3    -0.344128936908E+02   -0.20289E-05   -0.71657E-05  4552   0.347E-02    0.189E-02
DAV:   4    -0.344128892773E+02    0.44136E-05   -0.32557E-05  4278   0.220E-02    0.895E-03
DAV:   5    -0.344128886728E+02    0.60446E-06   -0.22041E-06  2370   0.835E-03
  57 F= -.34412889E+02 E0= -.34403597E+02  d E =-.198524E-04
quench:  g(F)=  0.000E+00 g(S)=  0.000E+00 dE (1.order)= 0.000E+00
 bond charge predicted
       N       E                     dE             d eps       ncg     rms          rms(c)
DAV:   1    -0.344129116937E+02   -0.22416E-04   -0.11061E-02  2992   0.555E-01    0.241E-02
DAV:   2    -0.344129242400E+02   -0.12546E-04   -0.15287E-04  4184   0.637E-02    0.125E-02
DAV:   3    -0.344129257388E+02   -0.14987E-05   -0.42181E-05  4394   0.276E-02    0.144E-02
DAV:   4    -0.344129231426E+02    0.25961E-05   -0.26404E-05  4130   0.201E-02    0.763E-03
DAV:   5    -0.344129225904E+02    0.55220E-06   -0.19796E-06  2258   0.731E-03
  58 F= -.34412923E+02 E0= -.34403653E+02  d E =-.339176E-04
quench:  g(F)=  0.000E+00 g(S)=  0.000E+00 dE (1.order)= 0.000E+00
 bond charge predicted
       N       E                     dE             d eps       ncg     rms          rms(c)
DAV:   1    -0.344129604336E+02   -0.37291E-04   -0.14702E-02  2992   0.640E-01    0.253E-02
DAV:   2    -0.344129775573E+02   -0.17124E-04   -0.20791E-04  4200   0.740E-02    0.171E-02
DAV:   3    -0.344129802801E+02   -0.27228E-05   -0.10464E-04  4546   0.422E-02    0.194E-02
DAV:   4    -0.344129744302E+02    0.58499E-05   -0.49653E-05  4506   0.270E-02    0.797E-03
DAV:   5    -0.344129740938E+02    0.33632E-06   -0.26936E-06  2520   0.877E-03
  59 F= -.34412974E+02 E0= -.34403734E+02  d E =-.515034E-04
quench:  g(F)=  0.000E+00 g(S)=  0.000E+00 dE (1.order)= 0.000E+00
 bond charge predicted
       N       E                     dE             d eps       ncg     rms          rms(c)
DAV:   1    -0.344130196240E+02   -0.45194E-04   -0.18953E-02  2992   0.727E-01    0.304E-02
DAV:   2    -0.344130427403E+02   -0.23116E-04   -0.27790E-04  4192   0.855E-02    0.212E-02
DAV:   3    -0.344130468256E+02   -0.40853E-05   -0.16211E-04  4576   0.521E-02    0.235E-02
DAV:   4    -0.344130379687E+02    0.88569E-05   -0.76875E-05  4626   0.334E-02    0.935E-03
DAV:   5    -0.344130376610E+02    0.30771E-06   -0.38207E-06  3010   0.101E-02
  60 F= -.34413038E+02 E0= -.34403834E+02  d E =-.635671E-04
quench:  g(F)=  0.000E+00 g(S)=  0.000E+00 dE (1.order)= 0.000E+00
 bond charge predicted
       N       E                     dE             d eps       ncg     rms          rms(c)
DAV:   1    -0.344130745519E+02   -0.36583E-04   -0.23095E-02  2992   0.803E-01    0.378E-02
DAV:   2    -0.344131042707E+02   -0.29719E-04   -0.35503E-04  4128   0.967E-02    0.240E-02
DAV:   3    -0.344131114939E+02   -0.72232E-05   -0.21585E-04  4568   0.603E-02    0.281E-02
DAV:   4    -0.344130988956E+02    0.12598E-04   -0.11278E-04  4650   0.404E-02    0.112E-02
DAV:   5    -0.344130985136E+02    0.38198E-06   -0.51549E-06  3184   0.115E-02
  61 F= -.34413099E+02 E0= -.34403938E+02  d E =-.608527E-04
quench:  g(F)=  0.000E+00 g(S)=  0.000E+00 dE (1.order)= 0.000E+00
 bond charge predicted
       N       E                     dE             d eps       ncg     rms          rms(c)
DAV:   1    -0.344131126041E+02   -0.13709E-04   -0.25682E-02  2992   0.847E-01    0.426E-02
DAV:   2    -0.344131459101E+02   -0.33306E-04   -0.39416E-04  4072   0.102E-01    0.220E-02
DAV:   3    -0.344131537553E+02   -0.78452E-05   -0.17062E-04  4576   0.547E-02    0.272E-02
DAV:   4    -0.344131428684E+02    0.10887E-04   -0.10522E-04  4640   0.393E-02    0.122E-02
DAV:   5    -0.344131423723E+02    0.49613E-06   -0.63731E-06  3180   0.121E-02
  62 F= -.34413142E+02 E0= -.34404031E+02  d E =-.438586E-04
quench:  g(F)=  0.000E+00 g(S)=  0.000E+00 dE (1.order)= 0.000E+00
 bond charge predicted
       N       E                     dE             d eps       ncg     rms          rms(c)
DAV:   1    -0.344131369303E+02    0.59381E-05   -0.26456E-02  2992   0.860E-01    0.443E-02
DAV:   2    -0.344131715092E+02   -0.34579E-04   -0.40911E-04  4112   0.104E-01    0.171E-02
DAV:   3    -0.344131727396E+02   -0.12304E-05   -0.39128E-05  4394   0.299E-02    0.162E-02
DAV:   4    -0.344131719165E+02    0.82309E-06   -0.37315E-05  4356   0.249E-02    0.128E-02
DAV:   5    -0.344131709148E+02    0.10017E-05   -0.16835E-05  3824   0.162E-02    0.689E-03
DAV:   6    -0.344131707520E+02    0.16279E-06   -0.66984E-06  3068   0.117E-02
  63 F= -.34413171E+02 E0= -.34404108E+02  d E =-.283797E-04
quench:  g(F)=  0.000E+00 g(S)=  0.000E+00 dE (1.order)= 0.000E+00
 bond charge predicted
       N       E                     dE             d eps       ncg     rms          rms(c)
DAV:   1    -0.344131569178E+02    0.13997E-04   -0.27127E-02  2992   0.871E-01    0.478E-02
DAV:   2    -0.344131970805E+02   -0.40163E-04   -0.48623E-04  4178   0.112E-01    0.193E-02
DAV:   3    -0.344131994801E+02   -0.23996E-05   -0.79036E-05  4346   0.409E-02    0.193E-02
DAV:   4    -0.344131962120E+02    0.32681E-05   -0.58690E-05  4392   0.303E-02    0.137E-02
DAV:   5    -0.344131951174E+02    0.10946E-05   -0.14797E-05  3816   0.160E-02    0.806E-03
DAV:   6    -0.344131945792E+02    0.53810E-06   -0.61769E-06  3080   0.119E-02
  64 F= -.34413195E+02 E0= -.34404178E+02  d E =-.238273E-04
quench:  g(F)=  0.000E+00 g(S)=  0.000E+00 dE (1.order)= 0.000E+00
 bond charge predicted
       N       E                     dE             d eps       ncg     rms          rms(c)
DAV:   1    -0.344131680791E+02    0.27038E-04   -0.29388E-02  2992   0.905E-01    0.546E-02
DAV:   2    -0.344132223667E+02   -0.54288E-04   -0.69409E-04  4272   0.132E-01    0.328E-02
DAV:   3    -0.344132321026E+02   -0.97359E-05   -0.35104E-04  4468   0.788E-02    0.344E-02
DAV:   4    -0.344132137089E+02    0.18394E-04   -0.19146E-04  4584   0.527E-02    0.171E-02
DAV:   5    -0.344132122765E+02    0.14324E-05   -0.18542E-05  4080   0.194E-02    0.113E-02
DAV:   6    -0.344132111175E+02    0.11589E-05   -0.92106E-06  3512   0.146E-02    0.331E-03
DAV:   7    -0.344132110857E+02    0.31849E-07   -0.80698E-07  1670   0.574E-03
  65 F= -.34413211E+02 E0= -.34404234E+02  d E =-.165064E-04
quench:  g(F)=  0.000E+00 g(S)=  0.000E+00 dE (1.order)= 0.000E+00
 bond charge predicted
       N       E                     dE             d eps       ncg     rms          rms(c)
DAV:   1    -0.344131538132E+02    0.57304E-04   -0.31962E-02  2992   0.940E-01    0.611E-02
DAV:   2    -0.344132258567E+02   -0.72044E-04   -0.92102E-04  4288   0.151E-01    0.422E-02
DAV:   3    -0.344132367967E+02   -0.10940E-04   -0.55385E-04  4522   0.976E-02    0.413E-02
DAV:   4    -0.344132095698E+02    0.27227E-04   -0.27110E-04  4632   0.622E-02    0.199E-02
DAV:   5    -0.344132079219E+02    0.16479E-05   -0.24622E-05  4136   0.228E-02    0.135E-02
DAV:   6    -0.344132061327E+02    0.17892E-05   -0.13667E-05  3974   0.174E-02    0.339E-03
DAV:   7    -0.344132060410E+02    0.91684E-07   -0.11106E-06  1838   0.658E-03
  66 F= -.34413206E+02 E0= -.34404265E+02  d E =0.504467E-05
quench:  g(F)=  0.000E+00 g(S)=  0.000E+00 dE (1.order)= 0.000E+00
 bond charge predicted
       N       E                     dE             d eps       ncg     rms          rms(c)
DAV:   1    -0.344131366824E+02    0.69450E-04   -0.32627E-02  2992   0.945E-01    0.561E-02
DAV:   2    -0.344132183462E+02   -0.81664E-04   -0.99669E-04  4236   0.154E-01    0.404E-02
DAV:   3    -0.344132260980E+02   -0.77518E-05   -0.48869E-04  4492   0.928E-02    0.385E-02
DAV:   4    -0.344132030293E+02    0.23069E-04   -0.22619E-04  4664   0.572E-02    0.186E-02
DAV:   5    -0.344132016204E+02    0.14089E-05   -0.21432E-05  4160   0.214E-02    0.129E-02
DAV:   6    -0.344131999105E+02    0.17099E-05   -0.12390E-05  3864   0.168E-02    0.322E-03
DAV:   7    -0.344131998449E+02    0.65621E-07   -0.10838E-06  1832   0.641E-03
  67 F= -.34413200E+02 E0= -.34404294E+02  d E =0.619611E-05
quench:  g(F)=  0.000E+00 g(S)=  0.000E+00 dE (1.order)= 0.000E+00
 bond charge predicted
       N       E                     dE             d eps       ncg     rms          rms(c)
DAV:   1    -0.344131657300E+02    0.34180E-04   -0.32398E-02  2992   0.934E-01    0.467E-02
DAV:   2    -0.344132593795E+02   -0.93650E-04   -0.10479E-03  4066   0.155E-01    0.314E-02
DAV:   3    -0.344132665222E+02   -0.71426E-05   -0.33762E-04  4436   0.793E-02    0.330E-02
DAV:   4    -0.344132495148E+02    0.17007E-04   -0.14943E-04  4560   0.474E-02    0.143E-02
DAV:   5    -0.344132483757E+02    0.11390E-05   -0.96336E-06  3850   0.156E-02    0.908E-03
DAV:   6    -0.344132477740E+02    0.60177E-06   -0.60998E-06  3182   0.125E-02
  68 F= -.34413248E+02 E0= -.34404376E+02  d E =-.479291E-04
quench:  g(F)=  0.000E+00 g(S)=  0.000E+00 dE (1.order)= 0.000E+00
 bond charge predicted
       N       E                     dE             d eps       ncg     rms          rms(c)
DAV:   1    -0.344132335140E+02    0.14862E-04   -0.34394E-02  2992   0.954E-01    0.543E-02
DAV:   2    -0.344133580744E+02   -0.12456E-03   -0.13576E-03  4128   0.174E-01    0.322E-02
DAV:   3    -0.344133718153E+02   -0.13741E-04   -0.41635E-04  4588   0.881E-02    0.396E-02
DAV:   4    -0.344133479148E+02    0.23901E-04   -0.19179E-04  4608   0.536E-02    0.154E-02
DAV:   5    -0.344133470272E+02    0.88757E-06   -0.75334E-06  3658   0.150E-02
  69 F= -.34413347E+02 E0= -.34404498E+02  d E =-.992532E-04
quench:  g(F)=  0.000E+00 g(S)=  0.000E+00 dE (1.order)= 0.000E+00
 bond charge predicted
       N       E                     dE             d eps       ncg     rms          rms(c)
DAV:   1    -0.344132772289E+02    0.70686E-04   -0.40644E-02  2992   0.104E+00    0.624E-02
DAV:   2    -0.344134349484E+02   -0.15772E-03   -0.17701E-03  4212   0.200E-01    0.463E-02
DAV:   3    -0.344134475698E+02   -0.12621E-04   -0.76907E-04  4466   0.118E-01    0.484E-02
DAV:   4    -0.344134100646E+02    0.37505E-04   -0.30599E-04  4552   0.672E-02    0.180E-02
DAV:   5    -0.344134093482E+02    0.71642E-06   -0.15469E-05  3924   0.200E-02    0.114E-02
DAV:   6    -0.344134089556E+02    0.39256E-06   -0.86678E-06  3592   0.146E-02
  70 F= -.34413409E+02 E0= -.34404554E+02  d E =-.619284E-04
quench:  g(F)=  0.000E+00 g(S)=  0.000E+00 dE (1.order)= 0.000E+00
 bond charge predicted
       N       E                     dE             d eps       ncg     rms          rms(c)
DAV:   1    -0.344134107101E+02   -0.13619E-05   -0.22290E-04  3004   0.767E-02    0.769E-03
DAV:   2    -0.344134115631E+02   -0.85307E-06   -0.11585E-05  3816   0.172E-02    0.497E-03
DAV:   3    -0.344134117294E+02   -0.16631E-06   -0.85517E-06  3558   0.127E-02
  71 F= -.34413412E+02 E0= -.34404549E+02  d E =-.277382E-05
quench:  g(F)=  0.000E+00 g(S)=  0.000E+00 dE (1.order)= 0.000E+00
 bond charge predicted
       N       E                     dE             d eps       ncg     rms          rms(c)
DAV:   1    -0.344134112043E+02    0.35883E-06   -0.80692E-04  2998   0.146E-01    0.123E-02
DAV:   2    -0.344134140735E+02   -0.28692E-05   -0.36766E-05  4224   0.292E-02    0.887E-03
DAV:   3    -0.344134143627E+02   -0.28915E-06   -0.19015E-05  3906   0.183E-02    0.844E-03
DAV:   4    -0.344134133531E+02    0.10095E-05   -0.11163E-05  3716   0.131E-02    0.473E-03
DAV:   5    -0.344134130199E+02    0.33320E-06   -0.71406E-07  1700   0.457E-03
  72 F= -.34413413E+02 E0= -.34404544E+02  d E =-.129050E-05
quench:  g(F)=  0.000E+00 g(S)=  0.000E+00 dE (1.order)= 0.000E+00
 bond charge predicted
       N       E                     dE             d eps       ncg     rms          rms(c)
DAV:   1    -0.344134089901E+02    0.43630E-05   -0.15055E-03  2992   0.201E-01    0.158E-02
DAV:   2    -0.344134136432E+02   -0.46531E-05   -0.57389E-05  3928   0.377E-02    0.850E-03
DAV:   3    -0.344134139207E+02   -0.27744E-06   -0.12630E-05  3976   0.161E-02    0.754E-03
DAV:   4    -0.344134132962E+02    0.62443E-06   -0.10155E-05  3694   0.127E-02    0.534E-03
DAV:   5    -0.344134128383E+02    0.45796E-06   -0.14175E-06  1814   0.594E-03
  73 F= -.34413413E+02 E0= -.34404531E+02  d E =0.181642E-06
quench:  g(F)=  0.000E+00 g(S)=  0.000E+00 dE (1.order)= 0.000E+00
 bond charge predicted
       N       E                     dE             d eps       ncg     rms          rms(c)
DAV:   1    -0.344134090491E+02    0.42472E-05   -0.21908E-03  2992   0.243E-01    0.166E-02
DAV:   2    -0.344134151477E+02   -0.60986E-05   -0.72247E-05  3906   0.421E-02    0.801E-03
DAV:   3    -0.344134151418E+02    0.59299E-08   -0.63218E-06  3602   0.125E-02
  74 F= -.34413415E+02 E0= -.34404517E+02  d E =-.230350E-05
quench:  g(F)=  0.000E+00 g(S)=  0.000E+00 dE (1.order)= 0.000E+00
 bond charge predicted
       N       E                     dE             d eps       ncg     rms          rms(c)
DAV:   1    -0.344134190065E+02   -0.38588E-05   -0.28373E-03  2992   0.279E-01    0.158E-02
DAV:   2    -0.344134262156E+02   -0.72091E-05   -0.86745E-05  4000   0.466E-02    0.111E-02
DAV:   3    -0.344134266830E+02   -0.46739E-06   -0.30922E-05  4360   0.241E-02    0.115E-02
DAV:   4    -0.344134249911E+02    0.16919E-05   -0.11763E-05  3754   0.136E-02    0.602E-03
DAV:   5    -0.344134245546E+02    0.43652E-06   -0.90500E-07  1898   0.564E-03
  75 F= -.34413425E+02 E0= -.34404515E+02  d E =-.941284E-05
quench:  g(F)=  0.000E+00 g(S)=  0.000E+00 dE (1.order)= 0.000E+00
 bond charge predicted
       N       E                     dE             d eps       ncg     rms          rms(c)
DAV:   1    -0.344134377963E+02   -0.12805E-04   -0.32230E-03  2992   0.298E-01    0.169E-02
DAV:   2    -0.344134449451E+02   -0.71488E-05   -0.80271E-05  3880   0.445E-02    0.677E-03
DAV:   3    -0.344134451879E+02   -0.24279E-06   -0.78859E-06  3972   0.133E-02
  76 F= -.34413445E+02 E0= -.34404527E+02  d E =-.206333E-04
quench:  g(F)=  0.000E+00 g(S)=  0.000E+00 dE (1.order)= 0.000E+00
 bond charge predicted
       N       E                     dE             d eps       ncg     rms          rms(c)
DAV:   1    -0.344134614602E+02   -0.16515E-04   -0.40748E-03  2992   0.335E-01    0.198E-02
DAV:   2    -0.344134701647E+02   -0.87045E-05   -0.98879E-05  3934   0.492E-02    0.987E-03
DAV:   3    -0.344134701647E+02    0.26830E-10   -0.64734E-06  3842   0.128E-02
  77 F= -.34413470E+02 E0= -.34404542E+02  d E =-.249768E-04
quench:  g(F)=  0.000E+00 g(S)=  0.000E+00 dE (1.order)= 0.000E+00
 bond charge predicted
       N       E                     dE             d eps       ncg     rms          rms(c)
DAV:   1    -0.344134755740E+02   -0.54093E-05   -0.45801E-03  2992   0.356E-01    0.227E-02
DAV:   2    -0.344134880014E+02   -0.12427E-04   -0.14146E-04  4258   0.579E-02    0.142E-02
DAV:   3    -0.344134904501E+02   -0.24486E-05   -0.79185E-05  4504   0.367E-02    0.189E-02
DAV:   4    -0.344134857263E+02    0.47237E-05   -0.28802E-05  4248   0.209E-02    0.737E-03
DAV:   5    -0.344134858140E+02   -0.87637E-07   -0.19316E-06  2428   0.804E-03
  78 F= -.34413486E+02 E0= -.34404550E+02  d E =-.156493E-04
quench:  g(F)=  0.000E+00 g(S)=  0.000E+00 dE (1.order)= 0.000E+00
 bond charge predicted
       N       E                     dE             d eps       ncg     rms          rms(c)
DAV:   1    -0.344134725363E+02    0.13190E-04   -0.47643E-03  2992   0.363E-01    0.222E-02
DAV:   2    -0.344134860314E+02   -0.13495E-04   -0.14774E-04  3956   0.597E-02    0.980E-03
DAV:   3    -0.344134867376E+02   -0.70617E-06   -0.17793E-05  4354   0.200E-02    0.966E-03
DAV:   4    -0.344134859144E+02    0.82317E-06   -0.11179E-05  3728   0.137E-02    0.578E-03
DAV:   5    -0.344134858428E+02    0.71641E-07   -0.22055E-06  2114   0.696E-03
  79 F= -.34413486E+02 E0= -.34404543E+02  d E =-.288410E-07
quench:  g(F)=  0.000E+00 g(S)=  0.000E+00 dE (1.order)= 0.000E+00
 bond charge predicted
       N       E                     dE             d eps       ncg     rms          rms(c)
DAV:   1    -0.344134625860E+02    0.23328E-04   -0.69554E-03  2992   0.436E-01    0.212E-02
DAV:   2    -0.344134862354E+02   -0.23649E-04   -0.26912E-04  4288   0.794E-02    0.223E-02
DAV:   3    -0.344134828578E+02    0.33776E-05   -0.12530E-04  4456   0.470E-02    0.153E-02
DAV:   4    -0.344134792819E+02    0.35759E-05   -0.30830E-05  4430   0.216E-02    0.663E-03
DAV:   5    -0.344134790484E+02    0.23348E-06   -0.13442E-06  2306   0.663E-03
  80 F= -.34413479E+02 E0= -.34404529E+02  d E =0.679439E-05
quench:  g(F)=  0.000E+00 g(S)=  0.000E+00 dE (1.order)= 0.000E+00
 bond charge predicted
       N       E                     dE             d eps       ncg     rms          rms(c)
DAV:   1    -0.344134536892E+02    0.25593E-04   -0.12844E-02  2992   0.593E-01    0.284E-02
DAV:   2    -0.344134967647E+02   -0.43076E-04   -0.50695E-04  4304   0.109E-01    0.354E-02
DAV:   3    -0.344134835857E+02    0.13179E-04   -0.24147E-04  4432   0.646E-02    0.177E-02
DAV:   4    -0.344134790212E+02    0.45645E-05   -0.44037E-05  4596   0.260E-02    0.964E-03
DAV:   5    -0.344134782619E+02    0.75932E-06   -0.22224E-06  2552   0.869E-03
  81 F= -.34413478E+02 E0= -.34404517E+02  d E =0.786508E-06
quench:  g(F)=  0.000E+00 g(S)=  0.000E+00 dE (1.order)= 0.000E+00
 bond charge predicted
       N       E                     dE             d eps       ncg     rms          rms(c)
DAV:   1    -0.344134587288E+02    0.20292E-04   -0.19325E-02  2992   0.729E-01    0.369E-02
DAV:   2    -0.344135196437E+02   -0.60915E-04   -0.72277E-04  4288   0.130E-01    0.414E-02
DAV:   3    -0.344135056595E+02    0.13984E-04   -0.38287E-04  4472   0.809E-02    0.246E-02
DAV:   4    -0.344134959730E+02    0.96866E-05   -0.88440E-05  4618   0.362E-02    0.121E-02
DAV:   5    -0.344134948720E+02    0.11010E-05   -0.42838E-06  3244   0.115E-02    0.604E-03
DAV:   6    -0.344134945238E+02    0.34823E-06   -0.21912E-06  2062   0.746E-03
  82 F= -.34413495E+02 E0= -.34404520E+02  d E =-.162619E-04
quench:  g(F)=  0.000E+00 g(S)=  0.000E+00 dE (1.order)= 0.000E+00
 bond charge predicted
       N       E                     dE             d eps       ncg     rms          rms(c)
DAV:   1    -0.344134968025E+02   -0.19304E-05   -0.62580E-05  3016   0.419E-02    0.310E-03
DAV:   2    -0.344134969289E+02   -0.12640E-06   -0.12774E-06  1622   0.629E-03
  83 F= -.34413497E+02 E0= -.34404524E+02  d E =-.240507E-05
quench:  g(F)=  0.000E+00 g(S)=  0.000E+00 dE (1.order)= 0.000E+00
 bond charge predicted
       N       E                     dE             d eps       ncg     rms          rms(c)
DAV:   1    -0.344135002704E+02   -0.34679E-05   -0.22483E-04  3004   0.790E-02    0.566E-03
DAV:   2    -0.344135009507E+02   -0.68038E-06   -0.74272E-06  3824   0.133E-02
  84 F= -.34413501E+02 E0= -.34404530E+02  d E =-.402186E-05
quench:  g(F)=  0.000E+00 g(S)=  0.000E+00 dE (1.order)= 0.000E+00
 bond charge predicted
       N       E                     dE             d eps       ncg     rms          rms(c)
DAV:   1    -0.344135041047E+02   -0.38343E-05   -0.44330E-04  3004   0.111E-01    0.788E-03
DAV:   2    -0.344135062948E+02   -0.21901E-05   -0.27477E-05  4384   0.250E-02    0.103E-02
DAV:   3    -0.344135050676E+02    0.12272E-05   -0.19691E-05  3968   0.178E-02    0.502E-03
DAV:   4    -0.344135047774E+02    0.29017E-06   -0.23498E-06  2286   0.670E-03
  85 F= -.34413505E+02 E0= -.34404538E+02  d E =-.382667E-05
quench:  g(F)=  0.000E+00 g(S)=  0.000E+00 dE (1.order)= 0.000E+00
 bond charge predicted
       N       E                     dE             d eps       ncg     rms          rms(c)
DAV:   1    -0.344135065873E+02   -0.15197E-05   -0.67912E-04  3004   0.138E-01    0.844E-03
DAV:   2    -0.344135078653E+02   -0.12780E-05   -0.14212E-05  4112   0.186E-02    0.380E-03
DAV:   3    -0.344135079065E+02   -0.41237E-07   -0.79239E-07  2384   0.490E-03
  86 F= -.34413508E+02 E0= -.34404547E+02  d E =-.312913E-05
quench:  g(F)=  0.000E+00 g(S)=  0.000E+00 dE (1.order)= 0.000E+00
 bond charge predicted
       N       E                     dE             d eps       ncg     rms          rms(c)
DAV:   1    -0.344135084045E+02   -0.53916E-06   -0.90558E-04  3004   0.159E-01    0.893E-03
DAV:   2    -0.344135100253E+02   -0.16209E-05   -0.19292E-05  4296   0.216E-02    0.547E-03
DAV:   3    -0.344135103598E+02   -0.33446E-06   -0.10013E-05  3744   0.133E-02    0.678E-03
DAV:   4    -0.344135097195E+02    0.64031E-06   -0.35554E-06  2654   0.803E-03
  87 F= -.34413510E+02 E0= -.34404553E+02  d E =-.181294E-05
quench:  g(F)=  0.000E+00 g(S)=  0.000E+00 dE (1.order)= 0.000E+00
 bond charge predicted
       N       E                     dE             d eps       ncg     rms          rms(c)
DAV:   1    -0.344135098380E+02    0.52182E-06   -0.10468E-03  3004   0.172E-01    0.857E-03
DAV:   2    -0.344135114948E+02   -0.16569E-05   -0.20639E-05  4216   0.227E-02    0.558E-03
DAV:   3    -0.344135117520E+02   -0.25720E-06   -0.11216E-05  3744   0.141E-02    0.642E-03
DAV:   4    -0.344135110931E+02    0.65894E-06   -0.44552E-06  2898   0.883E-03
  88 F= -.34413511E+02 E0= -.34404558E+02  d E =-.137361E-05
quench:  g(F)=  0.000E+00 g(S)=  0.000E+00 dE (1.order)= 0.000E+00
 bond charge predicted
       N       E                     dE             d eps       ncg     rms          rms(c)
DAV:   1    -0.344135115116E+02    0.24038E-06   -0.13504E-03  3004   0.194E-01    0.934E-03
DAV:   2    -0.344135131808E+02   -0.16691E-05   -0.21180E-05  4112   0.233E-02    0.479E-03
DAV:   3    -0.344135131461E+02    0.34699E-07   -0.21338E-06  2708   0.755E-03
  89 F= -.34413513E+02 E0= -.34404563E+02  d E =-.205299E-05
quench:  g(F)=  0.000E+00 g(S)=  0.000E+00 dE (1.order)= 0.000E+00
 bond charge predicted
       N       E                     dE             d eps       ncg     rms          rms(c)
DAV:   1    -0.344135146905E+02   -0.15097E-05   -0.17321E-03  3004   0.220E-01    0.112E-02
DAV:   2    -0.344135166298E+02   -0.19393E-05   -0.27343E-05  4090   0.267E-02    0.680E-03
DAV:   3    -0.344135164915E+02    0.13828E-06   -0.27683E-06  2728   0.867E-03
  90 F= -.34413516E+02 E0= -.34404574E+02  d E =-.334546E-05
quench:  g(F)=  0.000E+00 g(S)=  0.000E+00 dE (1.order)= 0.000E+00
 bond charge predicted
       N       E                     dE             d eps       ncg     rms          rms(c)
DAV:   1    -0.344135197901E+02   -0.31603E-05   -0.22666E-03  3004   0.251E-01    0.134E-02
DAV:   2    -0.344135231134E+02   -0.33233E-05   -0.47207E-05  4312   0.348E-02    0.116E-02
DAV:   3    -0.344135230005E+02    0.11285E-06   -0.31385E-05  4362   0.232E-02    0.999E-03
DAV:   4    -0.344135216456E+02    0.13549E-05   -0.11604E-05  3744   0.131E-02    0.561E-03
DAV:   5    -0.344135214328E+02    0.21280E-06   -0.11870E-06  1964   0.590E-03
  91 F= -.34413521E+02 E0= -.34404586E+02  d E =-.494128E-05
quench:  g(F)=  0.000E+00 g(S)=  0.000E+00 dE (1.order)= 0.000E+00
 bond charge predicted
       N       E                     dE             d eps       ncg     rms          rms(c)
DAV:   1    -0.344135253612E+02   -0.37156E-05   -0.28702E-03  3004   0.283E-01    0.146E-02
DAV:   2    -0.344135289384E+02   -0.35772E-05   -0.46536E-05  4062   0.353E-02    0.652E-03
DAV:   3    -0.344135287944E+02    0.14406E-06   -0.26714E-06  2782   0.923E-03
  92 F= -.34413529E+02 E0= -.34404603E+02  d E =-.736155E-05
quench:  g(F)=  0.000E+00 g(S)=  0.000E+00 dE (1.order)= 0.000E+00
 bond charge predicted
       N       E                     dE             d eps       ncg     rms          rms(c)
DAV:   1    -0.344135309403E+02   -0.20018E-05   -0.37130E-03  3004   0.323E-01    0.161E-02
DAV:   2    -0.344135366141E+02   -0.56738E-05   -0.70602E-05  4208   0.421E-02    0.811E-03
DAV:   3    -0.344135369570E+02   -0.34286E-06   -0.12582E-05  4064   0.160E-02    0.865E-03
DAV:   4    -0.344135362407E+02    0.71622E-06   -0.88595E-06  3512   0.122E-02
  93 F= -.34413536E+02 E0= -.34404624E+02  d E =-.744637E-05
quench:  g(F)=  0.000E+00 g(S)=  0.000E+00 dE (1.order)= 0.000E+00
 bond charge predicted
       N       E                     dE             d eps       ncg     rms          rms(c)
DAV:   1    -0.344135303236E+02    0.66334E-05   -0.43839E-03  3004   0.350E-01    0.188E-02
DAV:   2    -0.344135390727E+02   -0.87491E-05   -0.10100E-04  4078   0.496E-02    0.751E-03
DAV:   3    -0.344135389794E+02    0.93363E-07   -0.38140E-06  3290   0.107E-02
  94 F= -.34413539E+02 E0= -.34404643E+02  d E =-.273861E-05
quench:  g(F)=  0.000E+00 g(S)=  0.000E+00 dE (1.order)= 0.000E+00
 bond charge predicted
       N       E                     dE             d eps       ncg     rms          rms(c)
DAV:   1    -0.344135231735E+02    0.15899E-04   -0.51795E-03  3004   0.377E-01    0.196E-02
DAV:   2    -0.344135361461E+02   -0.12973E-04   -0.14761E-04  3984   0.589E-02    0.104E-02
DAV:   3    -0.344135367149E+02   -0.56871E-06   -0.20150E-05  4352   0.209E-02    0.106E-02
DAV:   4    -0.344135356853E+02    0.10296E-05   -0.10868E-05  3656   0.135E-02    0.651E-03
DAV:   5    -0.344135354734E+02    0.21189E-06   -0.22049E-06  2162   0.730E-03
  95 F= -.34413535E+02 E0= -.34404658E+02  d E =0.350597E-05
quench:  g(F)=  0.000E+00 g(S)=  0.000E+00 dE (1.order)= 0.000E+00
 bond charge predicted
       N       E                     dE             d eps       ncg     rms          rms(c)
DAV:   1    -0.344135194046E+02    0.16281E-04   -0.65366E-03  3004   0.419E-01    0.200E-02
DAV:   2    -0.344135391745E+02   -0.19770E-04   -0.22315E-04  4142   0.722E-02    0.166E-02
DAV:   3    -0.344135395731E+02   -0.39856E-06   -0.86045E-05  4450   0.396E-02    0.149E-02
DAV:   4    -0.344135360132E+02    0.35599E-05   -0.31956E-05  4400   0.218E-02    0.642E-03
DAV:   5    -0.344135357753E+02    0.23798E-06   -0.17850E-06  2360   0.715E-03
  96 F= -.34413536E+02 E0= -.34404671E+02  d E =-.301878E-06
quench:  g(F)=  0.000E+00 g(S)=  0.000E+00 dE (1.order)= 0.000E+00
 bond charge predicted
       N       E                     dE             d eps       ncg     rms          rms(c)
DAV:   1    -0.344135300946E+02    0.59186E-05   -0.95897E-03  2992   0.510E-01    0.248E-02
DAV:   2    -0.344135598546E+02   -0.29760E-04   -0.34165E-04  4240   0.893E-02    0.244E-02
DAV:   3    -0.344135573548E+02    0.24998E-05   -0.15490E-04  4416   0.526E-02    0.179E-02
DAV:   4    -0.344135521911E+02    0.51637E-05   -0.45128E-05  4550   0.259E-02    0.829E-03
DAV:   5    -0.344135517210E+02    0.47014E-06   -0.20778E-06  2528   0.815E-03
  97 F= -.34413552E+02 E0= -.34404693E+02  d E =-.159457E-04
quench:  g(F)=  0.000E+00 g(S)=  0.000E+00 dE (1.order)= 0.000E+00
 bond charge predicted
       N       E                     dE             d eps       ncg     rms          rms(c)
DAV:   1    -0.344135522320E+02   -0.40824E-07   -0.38100E-05  3004   0.327E-02    0.269E-03
DAV:   2    -0.344135523347E+02   -0.10272E-06   -0.13408E-06  1604   0.627E-03
  98 F= -.34413552E+02 E0= -.34404691E+02  d E =-.613687E-06
quench:  g(F)=  0.000E+00 g(S)=  0.000E+00 dE (1.order)= 0.000E+00
 bond charge predicted
       N       E                     dE             d eps       ncg     rms          rms(c)
DAV:   1    -0.344135529220E+02   -0.69005E-06   -0.12879E-04  3004   0.599E-02    0.455E-03
DAV:   2    -0.344135534091E+02   -0.48712E-06   -0.58368E-06  3608   0.117E-02
  99 F= -.34413553E+02 E0= -.34404689E+02  d E =-.107444E-05
quench:  g(F)=  0.000E+00 g(S)=  0.000E+00 dE (1.order)= 0.000E+00
 bond charge predicted
       N       E                     dE             d eps       ncg     rms          rms(c)
DAV:   1    -0.344135533607E+02   -0.43874E-06   -0.25065E-04  3004   0.836E-02    0.599E-03
DAV:   2    -0.344135544453E+02   -0.10846E-05   -0.13954E-05  4232   0.180E-02    0.596E-03
DAV:   3    -0.344135542231E+02    0.22223E-06   -0.10572E-05  3736   0.135E-02    0.474E-03
DAV:   4    -0.344135538547E+02    0.36840E-06   -0.17795E-06  2084   0.598E-03
 100 F= -.34413554E+02 E0= -.34404687E+02  d E =-.445575E-06
quench:  g(F)=  0.000E+00 g(S)=  0.000E+00 dE (1.order)= 0.000E+00
 reached required accuracy - stopping structural energy minimisation
