
     Program PWSCF v.6.6 starts on 11May2023 at 21:49:17 

     This program is part of the open-source Quantum ESPRESSO suite
     for quantum simulation of materials; please cite
         "P. Giannozzi et al., J. Phys.:Condens. Matter 21 395502 (2009);
         "P. Giannozzi et al., J. Phys.:Condens. Matter 29 465901 (2017);
          URL http://www.quantum-espresso.org", 
     in publications or presentations arising from this work. More details at
     http://www.quantum-espresso.org/quote

     Parallel version (MPI), running on    24 processors

     MPI processes distributed on     1 nodes
     R & G space division:  proc/nbgrp/npool/nimage =      24
     Fft bands division:     nmany     =       1
     Reading input from 04-nscf.in

     Current dimensions of program PWSCF are:
     Max number of different atomic species (ntypx) = 10
     Max number of k-points (npk) =  40000
     Max angular momentum in pseudopotentials (lmaxx) =  3

     Atomic positions and unit cell read from directory:
     ./wfc-out/bi2se3.save/
     Atomic positions from file used, from input discarded
 

     Subspace diagonalization in iterative solution of the eigenvalue problem:
     a serial algorithm will be used

     Message from routine setup:
     using ibrav=0 with symmetry is DISCOURAGED, use correct ibrav instead
 
     Parallelization info
     --------------------
     sticks:   dense  smooth     PW     G-vecs:    dense   smooth      PW
     Min          84      56     17                 7066     3843     647
     Max          85      57     18                 7075     3854     653
     Sum        2029    1345    421               169655    92305   15597
 


     bravais-lattice index     =            0
     lattice parameter (alat)  =       7.8197  a.u.
     unit-cell volume          =     955.3447 (a.u.)^3
     number of atoms/cell      =            5
     number of atomic types    =            2
     number of electrons       =       118.00
     number of Kohn-Sham states=           71
     kinetic-energy cutoff     =      80.0000  Ry
     charge density cutoff     =     480.0000  Ry
     Exchange-correlation= PBESOL
                           (   1   4  10   8   0   0   0)

     celldm(1)=   7.819688  celldm(2)=   0.000000  celldm(3)=   0.000000
     celldm(4)=   0.000000  celldm(5)=   0.000000  celldm(6)=   0.000000

     crystal axes: (cart. coord. in units of alat)
               a(1) = (  -0.500000  -0.866025   0.000000 )  
               a(2) = (   0.500000  -0.866025   0.000000 )  
               a(3) = (   0.000000   0.577350   2.307072 )  

     reciprocal axes: (cart. coord. in units 2 pi/alat)
               b(1) = ( -1.000000 -0.577350  0.144483 )  
               b(2) = (  1.000000 -0.577350  0.144483 )  
               b(3) = (  0.000000  0.000000  0.433450 )  


     PseudoPot. # 1 for Bi read from file:
     ./Bi.NC.SR.PBEsol.stringent.UPF
     MD5 check sum: 050e5b1909e7018b381bcf2e2e2a9a73
     Pseudo is Norm-conserving + core correction, Zval = 23.0
     Generated using ONCVPSP code by D. R. Hamann
     Using radial grid of 1472 points,  6 beta functions with: 
                l(1) =   0
                l(2) =   0
                l(3) =   1
                l(4) =   1
                l(5) =   2
                l(6) =   2

     PseudoPot. # 2 for Se read from file:
     ./Se.NC.SR.PBEsol.stringent.UPF
     MD5 check sum: 46ad0b39796781f83ed9f18e8cb8a6a4
     Pseudo is Norm-conserving + core correction, Zval = 24.0
     Generated using ONCVPSP code by D. R. Hamann
     Using radial grid of 1198 points,  6 beta functions with: 
                l(1) =   0
                l(2) =   0
                l(3) =   1
                l(4) =   1
                l(5) =   2
                l(6) =   2

     atomic species   valence    mass     pseudopotential
        Bi            23.00   208.98040     Bi( 1.00)
        Se            24.00    78.96000     Se( 1.00)

     12 Sym. Ops., with inversion, found ( 8 have fractional translation)


                                    s                        frac. trans.

      isym =  1     identity                                     

 cryst.   s( 1) = (     1          0          0      )
                  (     0          1          0      )
                  (     0          0          1      )

 cart.    s( 1) = (  1.0000000  0.0000000  0.0000000 )
                  (  0.0000000  1.0000000 -0.0000000 )
                  (  0.0000000  0.0000000  1.0000000 )


      isym =  2     180 deg rotation - cart. axis [1,0,0]        

 cryst.   s( 2) = (     0         -1          0      )
                  (    -1          0          0      )
                  (     0          0         -1      )

 cart.    s( 2) = (  1.0000000  0.0000000  0.0000000 )
                  (  0.0000000 -1.0000000  0.0000000 )
                  (  0.0000000  0.0000000 -1.0000000 )


      isym =  3     120 deg rotation - cryst. axis [0,0,1]       

 cryst.   s( 3) = (    -1          1          0      )    f =(  0.5000000 )
                  (    -1          0          0      )       (  0.0000000 )
                  (     1          0          1      )       (  0.0000000 )

 cart.    s( 3) = ( -0.5000000 -0.8660252 -0.0000001 )    f =( -0.2500000 )
                  (  0.8660256 -0.5000000 -0.0000002 )       ( -0.4330127 )
                  (  0.0000000  0.0000000  1.0000000 )       (  0.0000000 )


      isym =  4     120 deg rotation - cryst. axis [0,0,-1]      

 cryst.   s( 4) = (     0         -1          0      )    f =(  0.0000000 )
                  (     1         -1          0      )       (  0.5000000 )
                  (     0          1          1      )       (  0.0000000 )

 cart.    s( 4) = ( -0.5000000  0.8660252  0.0000001 )    f =(  0.2500000 )
                  ( -0.8660256 -0.5000000 -0.0000002 )       ( -0.4330127 )
                  (  0.0000000  0.0000000  1.0000000 )       (  0.0000000 )


      isym =  5     180 deg rotation - cryst. axis [0,1,0]       

 cryst.   s( 5) = (    -1          1          0      )    f =(  0.0000000 )
                  (     0          1          0      )       (  0.5000000 )
                  (     0         -1         -1      )       (  0.0000000 )

 cart.    s( 5) = ( -0.5000000 -0.8660252 -0.0000001 )    f =(  0.2500000 )
                  ( -0.8660256  0.5000000  0.0000002 )       ( -0.4330127 )
                  (  0.0000000  0.0000000 -1.0000000 )       (  0.0000000 )


      isym =  6     180 deg rotation - cryst. axis [1,1,0]       

 cryst.   s( 6) = (     1          0          0      )    f =(  0.5000000 )
                  (     1         -1          0      )       (  0.0000000 )
                  (    -1          0         -1      )       (  0.0000000 )

 cart.    s( 6) = ( -0.5000000  0.8660252  0.0000001 )    f =( -0.2500000 )
                  (  0.8660256  0.5000000  0.0000002 )       ( -0.4330127 )
                  (  0.0000000  0.0000000 -1.0000000 )       (  0.0000000 )


      isym =  7     inversion                                    

 cryst.   s( 7) = (    -1          0          0      )
                  (     0         -1          0      )
                  (     0          0         -1      )

 cart.    s( 7) = ( -1.0000000  0.0000000  0.0000000 )
                  (  0.0000000 -1.0000000  0.0000000 )
                  (  0.0000000  0.0000000 -1.0000000 )


      isym =  8     inv. 180 deg rotation - cart. axis [1,0,0]   

 cryst.   s( 8) = (     0          1          0      )
                  (     1          0          0      )
                  (     0          0          1      )

 cart.    s( 8) = ( -1.0000000  0.0000000  0.0000000 )
                  (  0.0000000  1.0000000 -0.0000000 )
                  (  0.0000000  0.0000000  1.0000000 )


      isym =  9     inv. 120 deg rotation - cryst. axis [0,0,1]  

 cryst.   s( 9) = (     1         -1          0      )    f =(  0.5000000 )
                  (     1          0          0      )       (  0.0000000 )
                  (    -1          0         -1      )       (  0.0000000 )

 cart.    s( 9) = (  0.5000000  0.8660252  0.0000001 )    f =( -0.2500000 )
                  ( -0.8660256  0.5000000  0.0000002 )       ( -0.4330127 )
                  (  0.0000000  0.0000000 -1.0000000 )       (  0.0000000 )


      isym = 10     inv. 120 deg rotation - cryst. axis [0,0,-1] 

 cryst.   s(10) = (     0          1          0      )    f =(  0.0000000 )
                  (    -1          1          0      )       (  0.5000000 )
                  (     0         -1         -1      )       (  0.0000000 )

 cart.    s(10) = (  0.5000000 -0.8660252 -0.0000001 )    f =(  0.2500000 )
                  (  0.8660256  0.5000000  0.0000002 )       ( -0.4330127 )
                  (  0.0000000  0.0000000 -1.0000000 )       (  0.0000000 )


      isym = 11     inv. 180 deg rotation - cryst. axis [0,1,0]  

 cryst.   s(11) = (     1         -1          0      )    f =(  0.0000000 )
                  (     0         -1          0      )       (  0.5000000 )
                  (     0          1          1      )       (  0.0000000 )

 cart.    s(11) = (  0.5000000  0.8660252  0.0000001 )    f =(  0.2500000 )
                  (  0.8660256 -0.5000000 -0.0000002 )       ( -0.4330127 )
                  (  0.0000000  0.0000000  1.0000000 )       (  0.0000000 )


      isym = 12     inv. 180 deg rotation - cryst. axis [1,1,0]  

 cryst.   s(12) = (    -1          0          0      )    f =(  0.5000000 )
                  (    -1          1          0      )       (  0.0000000 )
                  (     1          0          1      )       (  0.0000000 )

 cart.    s(12) = (  0.5000000 -0.8660252 -0.0000001 )    f =( -0.2500000 )
                  ( -0.8660256 -0.5000000 -0.0000002 )       ( -0.4330127 )
                  (  0.0000000  0.0000000  1.0000000 )       (  0.0000000 )


   Cartesian axes

     site n.     atom                  positions (alat units)
         1           Bi  tau(   1) = (   0.0000000  -0.2886753   1.6080294  )
         2           Bi  tau(   2) = (   0.0000000  -0.8660255   0.6990429  )
         3           Se  tau(   3) = (   0.0000000   0.2886750   1.1535362  )
         4           Se  tau(   4) = (   0.0000000  -0.2886752   0.2722345  )
         5           Se  tau(   5) = (   0.0000000  -0.8660257   2.0348378  )

   Crystallographic axes

     site n.     atom                  positions (cryst. coord.)
         1           Bi  tau(   1) = (  0.3990000  0.3990000  0.6970000  )
         2           Bi  tau(   2) = (  0.6010000  0.6010000  0.3030000  )
         3           Se  tau(   3) = ( -0.0000000 -0.0000000  0.5000000  )
         4           Se  tau(   4) = (  0.2060000  0.2060000  0.1180000  )
         5           Se  tau(   5) = (  0.7940000  0.7940000  0.8820000  )

     number of k points=   288  Marzari-Vanderbilt smearing, width (Ry)=  0.0073
                       cart. coord. in units 2pi/alat
        k(    1) = (   0.0000000   0.0000000   0.0000000), wk =   0.0069444
        k(    2) = (   0.0000000   0.0000000   0.2167249), wk =   0.0069444
        k(    3) = (   0.0833333  -0.0481125   0.0120403), wk =   0.0069444
        k(    4) = (   0.0833333  -0.0481125   0.2287652), wk =   0.0069444
        k(    5) = (   0.1666667  -0.0962250   0.0240805), wk =   0.0069444
        k(    6) = (   0.1666667  -0.0962250   0.2408054), wk =   0.0069444
        k(    7) = (   0.2500000  -0.1443376   0.0361208), wk =   0.0069444
        k(    8) = (   0.2500000  -0.1443376   0.2528457), wk =   0.0069444
        k(    9) = (   0.3333334  -0.1924501   0.0481611), wk =   0.0069444
        k(   10) = (   0.3333334  -0.1924501   0.2648860), wk =   0.0069444
        k(   11) = (   0.4166667  -0.2405626   0.0602013), wk =   0.0069444
        k(   12) = (   0.4166667  -0.2405626   0.2769262), wk =   0.0069444
        k(   13) = (   0.5000001  -0.2886751   0.0722416), wk =   0.0069444
        k(   14) = (   0.5000001  -0.2886751   0.2889665), wk =   0.0069444
        k(   15) = (   0.5833334  -0.3367876   0.0842819), wk =   0.0069444
        k(   16) = (   0.5833334  -0.3367876   0.3010068), wk =   0.0069444
        k(   17) = (   0.6666668  -0.3849002   0.0963221), wk =   0.0069444
        k(   18) = (   0.6666668  -0.3849002   0.3130470), wk =   0.0069444
        k(   19) = (   0.7500001  -0.4330127   0.1083624), wk =   0.0069444
        k(   20) = (   0.7500001  -0.4330127   0.3250873), wk =   0.0069444
        k(   21) = (   0.8333335  -0.4811252   0.1204027), wk =   0.0069444
        k(   22) = (   0.8333335  -0.4811252   0.3371276), wk =   0.0069444
        k(   23) = (   0.9166668  -0.5292377   0.1324429), wk =   0.0069444
        k(   24) = (   0.9166668  -0.5292377   0.3491678), wk =   0.0069444
        k(   25) = (  -0.0833333  -0.0481125   0.0120403), wk =   0.0069444
        k(   26) = (  -0.0833333  -0.0481125   0.2287652), wk =   0.0069444
        k(   27) = (   0.0000000  -0.0962250   0.0240805), wk =   0.0069444
        k(   28) = (   0.0000000  -0.0962250   0.2408054), wk =   0.0069444
        k(   29) = (   0.0833334  -0.1443376   0.0361208), wk =   0.0069444
        k(   30) = (   0.0833334  -0.1443376   0.2528457), wk =   0.0069444
        k(   31) = (   0.1666667  -0.1924501   0.0481611), wk =   0.0069444
        k(   32) = (   0.1666667  -0.1924501   0.2648860), wk =   0.0069444
        k(   33) = (   0.2500000  -0.2405626   0.0602013), wk =   0.0069444
        k(   34) = (   0.2500000  -0.2405626   0.2769262), wk =   0.0069444
        k(   35) = (   0.3333334  -0.2886751   0.0722416), wk =   0.0069444
        k(   36) = (   0.3333334  -0.2886751   0.2889665), wk =   0.0069444
        k(   37) = (   0.4166667  -0.3367876   0.0842819), wk =   0.0069444
        k(   38) = (   0.4166667  -0.3367876   0.3010068), wk =   0.0069444
        k(   39) = (   0.5000001  -0.3849002   0.0963221), wk =   0.0069444
        k(   40) = (   0.5000001  -0.3849002   0.3130470), wk =   0.0069444
        k(   41) = (   0.5833334  -0.4330127   0.1083624), wk =   0.0069444
        k(   42) = (   0.5833334  -0.4330127   0.3250873), wk =   0.0069444
        k(   43) = (   0.6666668  -0.4811252   0.1204027), wk =   0.0069444
        k(   44) = (   0.6666668  -0.4811252   0.3371276), wk =   0.0069444
        k(   45) = (   0.7500001  -0.5292377   0.1324429), wk =   0.0069444
        k(   46) = (   0.7500001  -0.5292377   0.3491678), wk =   0.0069444
        k(   47) = (   0.8333335  -0.5773502   0.1444832), wk =   0.0069444
        k(   48) = (   0.8333335  -0.5773502   0.3612081), wk =   0.0069444
        k(   49) = (  -0.1666667  -0.0962250   0.0240805), wk =   0.0069444
        k(   50) = (  -0.1666667  -0.0962250   0.2408054), wk =   0.0069444
        k(   51) = (  -0.0833334  -0.1443376   0.0361208), wk =   0.0069444
        k(   52) = (  -0.0833334  -0.1443376   0.2528457), wk =   0.0069444
        k(   53) = (   0.0000000  -0.1924501   0.0481611), wk =   0.0069444
        k(   54) = (   0.0000000  -0.1924501   0.2648860), wk =   0.0069444
        k(   55) = (   0.0833333  -0.2405626   0.0602013), wk =   0.0069444
        k(   56) = (   0.0833333  -0.2405626   0.2769262), wk =   0.0069444
        k(   57) = (   0.1666667  -0.2886751   0.0722416), wk =   0.0069444
        k(   58) = (   0.1666667  -0.2886751   0.2889665), wk =   0.0069444
        k(   59) = (   0.2500000  -0.3367876   0.0842819), wk =   0.0069444
        k(   60) = (   0.2500000  -0.3367876   0.3010068), wk =   0.0069444
        k(   61) = (   0.3333334  -0.3849002   0.0963221), wk =   0.0069444
        k(   62) = (   0.3333334  -0.3849002   0.3130470), wk =   0.0069444
        k(   63) = (   0.4166667  -0.4330127   0.1083624), wk =   0.0069444
        k(   64) = (   0.4166667  -0.4330127   0.3250873), wk =   0.0069444
        k(   65) = (   0.5000001  -0.4811252   0.1204027), wk =   0.0069444
        k(   66) = (   0.5000001  -0.4811252   0.3371276), wk =   0.0069444
        k(   67) = (   0.5833334  -0.5292377   0.1324429), wk =   0.0069444
        k(   68) = (   0.5833334  -0.5292377   0.3491678), wk =   0.0069444
        k(   69) = (   0.6666668  -0.5773502   0.1444832), wk =   0.0069444
        k(   70) = (   0.6666668  -0.5773502   0.3612081), wk =   0.0069444
        k(   71) = (   0.7500001  -0.6254628   0.1565235), wk =   0.0069444
        k(   72) = (   0.7500001  -0.6254628   0.3732484), wk =   0.0069444
        k(   73) = (  -0.2500000  -0.1443376   0.0361208), wk =   0.0069444
        k(   74) = (  -0.2500000  -0.1443376   0.2528457), wk =   0.0069444
        k(   75) = (  -0.1666667  -0.1924501   0.0481611), wk =   0.0069444
        k(   76) = (  -0.1666667  -0.1924501   0.2648860), wk =   0.0069444
        k(   77) = (  -0.0833333  -0.2405626   0.0602013), wk =   0.0069444
        k(   78) = (  -0.0833333  -0.2405626   0.2769262), wk =   0.0069444
        k(   79) = (   0.0000000  -0.2886751   0.0722416), wk =   0.0069444
        k(   80) = (   0.0000000  -0.2886751   0.2889665), wk =   0.0069444
        k(   81) = (   0.0833333  -0.3367876   0.0842819), wk =   0.0069444
        k(   82) = (   0.0833333  -0.3367876   0.3010068), wk =   0.0069444
        k(   83) = (   0.1666667  -0.3849002   0.0963221), wk =   0.0069444
        k(   84) = (   0.1666667  -0.3849002   0.3130470), wk =   0.0069444
        k(   85) = (   0.2500000  -0.4330127   0.1083624), wk =   0.0069444
        k(   86) = (   0.2500000  -0.4330127   0.3250873), wk =   0.0069444
        k(   87) = (   0.3333334  -0.4811252   0.1204027), wk =   0.0069444
        k(   88) = (   0.3333334  -0.4811252   0.3371276), wk =   0.0069444
        k(   89) = (   0.4166667  -0.5292377   0.1324429), wk =   0.0069444
        k(   90) = (   0.4166667  -0.5292377   0.3491678), wk =   0.0069444
        k(   91) = (   0.5000001  -0.5773502   0.1444832), wk =   0.0069444
        k(   92) = (   0.5000001  -0.5773502   0.3612081), wk =   0.0069444
        k(   93) = (   0.5833334  -0.6254628   0.1565235), wk =   0.0069444
        k(   94) = (   0.5833334  -0.6254628   0.3732484), wk =   0.0069444
        k(   95) = (   0.6666668  -0.6735753   0.1685637), wk =   0.0069444
        k(   96) = (   0.6666668  -0.6735753   0.3852886), wk =   0.0069444
        k(   97) = (  -0.3333334  -0.1924501   0.0481611), wk =   0.0069444
        k(   98) = (  -0.3333334  -0.1924501   0.2648860), wk =   0.0069444
        k(   99) = (  -0.2500000  -0.2405626   0.0602013), wk =   0.0069444
        k(  100) = (  -0.2500000  -0.2405626   0.2769262), wk =   0.0069444
        k(  101) = (  -0.1666667  -0.2886751   0.0722416), wk =   0.0069444
        k(  102) = (  -0.1666667  -0.2886751   0.2889665), wk =   0.0069444
        k(  103) = (  -0.0833333  -0.3367876   0.0842819), wk =   0.0069444
        k(  104) = (  -0.0833333  -0.3367876   0.3010068), wk =   0.0069444
        k(  105) = (   0.0000000  -0.3849002   0.0963221), wk =   0.0069444
        k(  106) = (   0.0000000  -0.3849002   0.3130470), wk =   0.0069444
        k(  107) = (   0.0833334  -0.4330127   0.1083624), wk =   0.0069444
        k(  108) = (   0.0833334  -0.4330127   0.3250873), wk =   0.0069444
        k(  109) = (   0.1666667  -0.4811252   0.1204027), wk =   0.0069444
        k(  110) = (   0.1666667  -0.4811252   0.3371276), wk =   0.0069444
        k(  111) = (   0.2500000  -0.5292377   0.1324429), wk =   0.0069444
        k(  112) = (   0.2500000  -0.5292377   0.3491678), wk =   0.0069444
        k(  113) = (   0.3333334  -0.5773502   0.1444832), wk =   0.0069444
        k(  114) = (   0.3333334  -0.5773502   0.3612081), wk =   0.0069444
        k(  115) = (   0.4166667  -0.6254628   0.1565235), wk =   0.0069444
        k(  116) = (   0.4166667  -0.6254628   0.3732484), wk =   0.0069444
        k(  117) = (   0.5000001  -0.6735753   0.1685637), wk =   0.0069444
        k(  118) = (   0.5000001  -0.6735753   0.3852886), wk =   0.0069444
        k(  119) = (   0.5833334  -0.7216878   0.1806040), wk =   0.0069444
        k(  120) = (   0.5833334  -0.7216878   0.3973289), wk =   0.0069444
        k(  121) = (  -0.4166667  -0.2405626   0.0602013), wk =   0.0069444
        k(  122) = (  -0.4166667  -0.2405626   0.2769262), wk =   0.0069444
        k(  123) = (  -0.3333334  -0.2886751   0.0722416), wk =   0.0069444
        k(  124) = (  -0.3333334  -0.2886751   0.2889665), wk =   0.0069444
        k(  125) = (  -0.2500000  -0.3367876   0.0842819), wk =   0.0069444
        k(  126) = (  -0.2500000  -0.3367876   0.3010068), wk =   0.0069444
        k(  127) = (  -0.1666667  -0.3849002   0.0963221), wk =   0.0069444
        k(  128) = (  -0.1666667  -0.3849002   0.3130470), wk =   0.0069444
        k(  129) = (  -0.0833334  -0.4330127   0.1083624), wk =   0.0069444
        k(  130) = (  -0.0833334  -0.4330127   0.3250873), wk =   0.0069444
        k(  131) = (   0.0000000  -0.4811252   0.1204027), wk =   0.0069444
        k(  132) = (   0.0000000  -0.4811252   0.3371276), wk =   0.0069444
        k(  133) = (   0.0833333  -0.5292377   0.1324429), wk =   0.0069444
        k(  134) = (   0.0833333  -0.5292377   0.3491678), wk =   0.0069444
        k(  135) = (   0.1666667  -0.5773502   0.1444832), wk =   0.0069444
        k(  136) = (   0.1666667  -0.5773502   0.3612081), wk =   0.0069444
        k(  137) = (   0.2500000  -0.6254628   0.1565235), wk =   0.0069444
        k(  138) = (   0.2500000  -0.6254628   0.3732484), wk =   0.0069444
        k(  139) = (   0.3333334  -0.6735753   0.1685637), wk =   0.0069444
        k(  140) = (   0.3333334  -0.6735753   0.3852886), wk =   0.0069444
        k(  141) = (   0.4166667  -0.7216878   0.1806040), wk =   0.0069444
        k(  142) = (   0.4166667  -0.7216878   0.3973289), wk =   0.0069444
        k(  143) = (   0.5000001  -0.7698003   0.1926443), wk =   0.0069444
        k(  144) = (   0.5000001  -0.7698003   0.4093692), wk =   0.0069444
        k(  145) = (  -0.5000001  -0.2886751   0.0722416), wk =   0.0069444
        k(  146) = (  -0.5000001  -0.2886751   0.2889665), wk =   0.0069444
        k(  147) = (  -0.4166667  -0.3367876   0.0842819), wk =   0.0069444
        k(  148) = (  -0.4166667  -0.3367876   0.3010068), wk =   0.0069444
        k(  149) = (  -0.3333334  -0.3849002   0.0963221), wk =   0.0069444
        k(  150) = (  -0.3333334  -0.3849002   0.3130470), wk =   0.0069444
        k(  151) = (  -0.2500000  -0.4330127   0.1083624), wk =   0.0069444
        k(  152) = (  -0.2500000  -0.4330127   0.3250873), wk =   0.0069444
        k(  153) = (  -0.1666667  -0.4811252   0.1204027), wk =   0.0069444
        k(  154) = (  -0.1666667  -0.4811252   0.3371276), wk =   0.0069444
        k(  155) = (  -0.0833333  -0.5292377   0.1324429), wk =   0.0069444
        k(  156) = (  -0.0833333  -0.5292377   0.3491678), wk =   0.0069444
        k(  157) = (   0.0000000  -0.5773502   0.1444832), wk =   0.0069444
        k(  158) = (   0.0000000  -0.5773502   0.3612081), wk =   0.0069444
        k(  159) = (   0.0833333  -0.6254628   0.1565235), wk =   0.0069444
        k(  160) = (   0.0833333  -0.6254628   0.3732484), wk =   0.0069444
        k(  161) = (   0.1666667  -0.6735753   0.1685637), wk =   0.0069444
        k(  162) = (   0.1666667  -0.6735753   0.3852886), wk =   0.0069444
        k(  163) = (   0.2500000  -0.7216878   0.1806040), wk =   0.0069444
        k(  164) = (   0.2500000  -0.7216878   0.3973289), wk =   0.0069444
        k(  165) = (   0.3333334  -0.7698003   0.1926443), wk =   0.0069444
        k(  166) = (   0.3333334  -0.7698003   0.4093692), wk =   0.0069444
        k(  167) = (   0.4166667  -0.8179128   0.2046845), wk =   0.0069444
        k(  168) = (   0.4166667  -0.8179128   0.4214094), wk =   0.0069444
        k(  169) = (  -0.5833334  -0.3367876   0.0842819), wk =   0.0069444
        k(  170) = (  -0.5833334  -0.3367876   0.3010068), wk =   0.0069444
        k(  171) = (  -0.5000001  -0.3849002   0.0963221), wk =   0.0069444
        k(  172) = (  -0.5000001  -0.3849002   0.3130470), wk =   0.0069444
        k(  173) = (  -0.4166667  -0.4330127   0.1083624), wk =   0.0069444
        k(  174) = (  -0.4166667  -0.4330127   0.3250873), wk =   0.0069444
        k(  175) = (  -0.3333334  -0.4811252   0.1204027), wk =   0.0069444
        k(  176) = (  -0.3333334  -0.4811252   0.3371276), wk =   0.0069444
        k(  177) = (  -0.2500000  -0.5292377   0.1324429), wk =   0.0069444
        k(  178) = (  -0.2500000  -0.5292377   0.3491678), wk =   0.0069444
        k(  179) = (  -0.1666667  -0.5773502   0.1444832), wk =   0.0069444
        k(  180) = (  -0.1666667  -0.5773502   0.3612081), wk =   0.0069444
        k(  181) = (  -0.0833333  -0.6254628   0.1565235), wk =   0.0069444
        k(  182) = (  -0.0833333  -0.6254628   0.3732484), wk =   0.0069444
        k(  183) = (   0.0000000  -0.6735753   0.1685637), wk =   0.0069444
        k(  184) = (   0.0000000  -0.6735753   0.3852886), wk =   0.0069444
        k(  185) = (   0.0833334  -0.7216878   0.1806040), wk =   0.0069444
        k(  186) = (   0.0833334  -0.7216878   0.3973289), wk =   0.0069444
        k(  187) = (   0.1666667  -0.7698003   0.1926443), wk =   0.0069444
        k(  188) = (   0.1666667  -0.7698003   0.4093692), wk =   0.0069444
        k(  189) = (   0.2500000  -0.8179128   0.2046845), wk =   0.0069444
        k(  190) = (   0.2500000  -0.8179128   0.4214094), wk =   0.0069444
        k(  191) = (   0.3333334  -0.8660254   0.2167248), wk =   0.0069444
        k(  192) = (   0.3333334  -0.8660254   0.4334497), wk =   0.0069444
        k(  193) = (  -0.6666668  -0.3849002   0.0963221), wk =   0.0069444
        k(  194) = (  -0.6666668  -0.3849002   0.3130470), wk =   0.0069444
        k(  195) = (  -0.5833334  -0.4330127   0.1083624), wk =   0.0069444
        k(  196) = (  -0.5833334  -0.4330127   0.3250873), wk =   0.0069444
        k(  197) = (  -0.5000001  -0.4811252   0.1204027), wk =   0.0069444
        k(  198) = (  -0.5000001  -0.4811252   0.3371276), wk =   0.0069444
        k(  199) = (  -0.4166667  -0.5292377   0.1324429), wk =   0.0069444
        k(  200) = (  -0.4166667  -0.5292377   0.3491678), wk =   0.0069444
        k(  201) = (  -0.3333334  -0.5773502   0.1444832), wk =   0.0069444
        k(  202) = (  -0.3333334  -0.5773502   0.3612081), wk =   0.0069444
        k(  203) = (  -0.2500000  -0.6254628   0.1565235), wk =   0.0069444
        k(  204) = (  -0.2500000  -0.6254628   0.3732484), wk =   0.0069444
        k(  205) = (  -0.1666667  -0.6735753   0.1685637), wk =   0.0069444
        k(  206) = (  -0.1666667  -0.6735753   0.3852886), wk =   0.0069444
        k(  207) = (  -0.0833334  -0.7216878   0.1806040), wk =   0.0069444
        k(  208) = (  -0.0833334  -0.7216878   0.3973289), wk =   0.0069444
        k(  209) = (   0.0000000  -0.7698003   0.1926443), wk =   0.0069444
        k(  210) = (   0.0000000  -0.7698003   0.4093692), wk =   0.0069444
        k(  211) = (   0.0833333  -0.8179128   0.2046845), wk =   0.0069444
        k(  212) = (   0.0833333  -0.8179128   0.4214094), wk =   0.0069444
        k(  213) = (   0.1666667  -0.8660254   0.2167248), wk =   0.0069444
        k(  214) = (   0.1666667  -0.8660254   0.4334497), wk =   0.0069444
        k(  215) = (   0.2500000  -0.9141379   0.2287651), wk =   0.0069444
        k(  216) = (   0.2500000  -0.9141379   0.4454900), wk =   0.0069444
        k(  217) = (  -0.7500001  -0.4330127   0.1083624), wk =   0.0069444
        k(  218) = (  -0.7500001  -0.4330127   0.3250873), wk =   0.0069444
        k(  219) = (  -0.6666668  -0.4811252   0.1204027), wk =   0.0069444
        k(  220) = (  -0.6666668  -0.4811252   0.3371276), wk =   0.0069444
        k(  221) = (  -0.5833334  -0.5292377   0.1324429), wk =   0.0069444
        k(  222) = (  -0.5833334  -0.5292377   0.3491678), wk =   0.0069444
        k(  223) = (  -0.5000001  -0.5773502   0.1444832), wk =   0.0069444
        k(  224) = (  -0.5000001  -0.5773502   0.3612081), wk =   0.0069444
        k(  225) = (  -0.4166667  -0.6254628   0.1565235), wk =   0.0069444
        k(  226) = (  -0.4166667  -0.6254628   0.3732484), wk =   0.0069444
        k(  227) = (  -0.3333334  -0.6735753   0.1685637), wk =   0.0069444
        k(  228) = (  -0.3333334  -0.6735753   0.3852886), wk =   0.0069444
        k(  229) = (  -0.2500000  -0.7216878   0.1806040), wk =   0.0069444
        k(  230) = (  -0.2500000  -0.7216878   0.3973289), wk =   0.0069444
        k(  231) = (  -0.1666667  -0.7698003   0.1926443), wk =   0.0069444
        k(  232) = (  -0.1666667  -0.7698003   0.4093692), wk =   0.0069444
        k(  233) = (  -0.0833333  -0.8179128   0.2046845), wk =   0.0069444
        k(  234) = (  -0.0833333  -0.8179128   0.4214094), wk =   0.0069444
        k(  235) = (   0.0000000  -0.8660254   0.2167248), wk =   0.0069444
        k(  236) = (   0.0000000  -0.8660254   0.4334497), wk =   0.0069444
        k(  237) = (   0.0833333  -0.9141379   0.2287651), wk =   0.0069444
        k(  238) = (   0.0833333  -0.9141379   0.4454900), wk =   0.0069444
        k(  239) = (   0.1666667  -0.9622504   0.2408053), wk =   0.0069444
        k(  240) = (   0.1666667  -0.9622504   0.4575302), wk =   0.0069444
        k(  241) = (  -0.8333335  -0.4811252   0.1204027), wk =   0.0069444
        k(  242) = (  -0.8333335  -0.4811252   0.3371276), wk =   0.0069444
        k(  243) = (  -0.7500001  -0.5292377   0.1324429), wk =   0.0069444
        k(  244) = (  -0.7500001  -0.5292377   0.3491678), wk =   0.0069444
        k(  245) = (  -0.6666668  -0.5773502   0.1444832), wk =   0.0069444
        k(  246) = (  -0.6666668  -0.5773502   0.3612081), wk =   0.0069444
        k(  247) = (  -0.5833334  -0.6254628   0.1565235), wk =   0.0069444
        k(  248) = (  -0.5833334  -0.6254628   0.3732484), wk =   0.0069444
        k(  249) = (  -0.5000001  -0.6735753   0.1685637), wk =   0.0069444
        k(  250) = (  -0.5000001  -0.6735753   0.3852886), wk =   0.0069444
        k(  251) = (  -0.4166667  -0.7216878   0.1806040), wk =   0.0069444
        k(  252) = (  -0.4166667  -0.7216878   0.3973289), wk =   0.0069444
        k(  253) = (  -0.3333334  -0.7698003   0.1926443), wk =   0.0069444
        k(  254) = (  -0.3333334  -0.7698003   0.4093692), wk =   0.0069444
        k(  255) = (  -0.2500000  -0.8179128   0.2046845), wk =   0.0069444
        k(  256) = (  -0.2500000  -0.8179128   0.4214094), wk =   0.0069444
        k(  257) = (  -0.1666667  -0.8660254   0.2167248), wk =   0.0069444
        k(  258) = (  -0.1666667  -0.8660254   0.4334497), wk =   0.0069444
        k(  259) = (  -0.0833333  -0.9141379   0.2287651), wk =   0.0069444
        k(  260) = (  -0.0833333  -0.9141379   0.4454900), wk =   0.0069444
        k(  261) = (   0.0000000  -0.9622504   0.2408053), wk =   0.0069444
        k(  262) = (   0.0000000  -0.9622504   0.4575302), wk =   0.0069444
        k(  263) = (   0.0833334  -1.0103629   0.2528456), wk =   0.0069444
        k(  264) = (   0.0833334  -1.0103629   0.4695705), wk =   0.0069444
        k(  265) = (  -0.9166668  -0.5292377   0.1324429), wk =   0.0069444
        k(  266) = (  -0.9166668  -0.5292377   0.3491678), wk =   0.0069444
        k(  267) = (  -0.8333335  -0.5773502   0.1444832), wk =   0.0069444
        k(  268) = (  -0.8333335  -0.5773502   0.3612081), wk =   0.0069444
        k(  269) = (  -0.7500001  -0.6254628   0.1565235), wk =   0.0069444
        k(  270) = (  -0.7500001  -0.6254628   0.3732484), wk =   0.0069444
        k(  271) = (  -0.6666668  -0.6735753   0.1685637), wk =   0.0069444
        k(  272) = (  -0.6666668  -0.6735753   0.3852886), wk =   0.0069444
        k(  273) = (  -0.5833334  -0.7216878   0.1806040), wk =   0.0069444
        k(  274) = (  -0.5833334  -0.7216878   0.3973289), wk =   0.0069444
        k(  275) = (  -0.5000001  -0.7698003   0.1926443), wk =   0.0069444
        k(  276) = (  -0.5000001  -0.7698003   0.4093692), wk =   0.0069444
        k(  277) = (  -0.4166667  -0.8179128   0.2046845), wk =   0.0069444
        k(  278) = (  -0.4166667  -0.8179128   0.4214094), wk =   0.0069444
        k(  279) = (  -0.3333334  -0.8660254   0.2167248), wk =   0.0069444
        k(  280) = (  -0.3333334  -0.8660254   0.4334497), wk =   0.0069444
        k(  281) = (  -0.2500000  -0.9141379   0.2287651), wk =   0.0069444
        k(  282) = (  -0.2500000  -0.9141379   0.4454900), wk =   0.0069444
        k(  283) = (  -0.1666667  -0.9622504   0.2408053), wk =   0.0069444
        k(  284) = (  -0.1666667  -0.9622504   0.4575302), wk =   0.0069444
        k(  285) = (  -0.0833334  -1.0103629   0.2528456), wk =   0.0069444
        k(  286) = (  -0.0833334  -1.0103629   0.4695705), wk =   0.0069444
        k(  287) = (   0.0000000  -1.0584754   0.2648859), wk =   0.0069444
        k(  288) = (   0.0000000  -1.0584754   0.4816108), wk =   0.0069444

                       cryst. coord.
        k(    1) = (   0.0000000   0.0000000   0.0000000), wk =   0.0069444
        k(    2) = (   0.0000000   0.0000000   0.5000000), wk =   0.0069444
        k(    3) = (   0.0000000   0.0833333  -0.0000000), wk =   0.0069444
        k(    4) = (   0.0000000   0.0833333   0.5000000), wk =   0.0069444
        k(    5) = (   0.0000000   0.1666667  -0.0000000), wk =   0.0069444
        k(    6) = (   0.0000000   0.1666667   0.5000000), wk =   0.0069444
        k(    7) = (   0.0000000   0.2500000   0.0000000), wk =   0.0069444
        k(    8) = (   0.0000000   0.2500000   0.5000000), wk =   0.0069444
        k(    9) = (   0.0000000   0.3333333  -0.0000000), wk =   0.0069444
        k(   10) = (   0.0000000   0.3333333   0.5000000), wk =   0.0069444
        k(   11) = (   0.0000000   0.4166667   0.0000000), wk =   0.0069444
        k(   12) = (   0.0000000   0.4166667   0.5000000), wk =   0.0069444
        k(   13) = (   0.0000000   0.5000000   0.0000000), wk =   0.0069444
        k(   14) = (   0.0000000   0.5000000   0.5000000), wk =   0.0069444
        k(   15) = (   0.0000000   0.5833333  -0.0000000), wk =   0.0069444
        k(   16) = (   0.0000000   0.5833333   0.5000000), wk =   0.0069444
        k(   17) = (   0.0000000   0.6666667  -0.0000000), wk =   0.0069444
        k(   18) = (   0.0000000   0.6666667   0.5000000), wk =   0.0069444
        k(   19) = (   0.0000000   0.7500000  -0.0000000), wk =   0.0069444
        k(   20) = (   0.0000000   0.7500000   0.5000000), wk =   0.0069444
        k(   21) = (   0.0000000   0.8333333   0.0000000), wk =   0.0069444
        k(   22) = (   0.0000000   0.8333333   0.5000000), wk =   0.0069444
        k(   23) = (   0.0000000   0.9166667   0.0000000), wk =   0.0069444
        k(   24) = (   0.0000000   0.9166667   0.5000000), wk =   0.0069444
        k(   25) = (   0.0833333   0.0000000  -0.0000000), wk =   0.0069444
        k(   26) = (   0.0833333   0.0000000   0.5000000), wk =   0.0069444
        k(   27) = (   0.0833333   0.0833333  -0.0000000), wk =   0.0069444
        k(   28) = (   0.0833333   0.0833333   0.5000000), wk =   0.0069444
        k(   29) = (   0.0833333   0.1666667   0.0000000), wk =   0.0069444
        k(   30) = (   0.0833333   0.1666667   0.5000000), wk =   0.0069444
        k(   31) = (   0.0833333   0.2500000  -0.0000000), wk =   0.0069444
        k(   32) = (   0.0833333   0.2500000   0.5000000), wk =   0.0069444
        k(   33) = (   0.0833333   0.3333333  -0.0000000), wk =   0.0069444
        k(   34) = (   0.0833333   0.3333333   0.5000000), wk =   0.0069444
        k(   35) = (   0.0833333   0.4166667   0.0000000), wk =   0.0069444
        k(   36) = (   0.0833333   0.4166667   0.5000000), wk =   0.0069444
        k(   37) = (   0.0833333   0.5000000  -0.0000000), wk =   0.0069444
        k(   38) = (   0.0833333   0.5000000   0.5000000), wk =   0.0069444
        k(   39) = (   0.0833333   0.5833333   0.0000000), wk =   0.0069444
        k(   40) = (   0.0833333   0.5833333   0.5000000), wk =   0.0069444
        k(   41) = (   0.0833333   0.6666667  -0.0000000), wk =   0.0069444
        k(   42) = (   0.0833333   0.6666667   0.5000000), wk =   0.0069444
        k(   43) = (   0.0833333   0.7500000   0.0000000), wk =   0.0069444
        k(   44) = (   0.0833333   0.7500000   0.5000000), wk =   0.0069444
        k(   45) = (   0.0833333   0.8333333  -0.0000000), wk =   0.0069444
        k(   46) = (   0.0833333   0.8333333   0.5000000), wk =   0.0069444
        k(   47) = (   0.0833333   0.9166667   0.0000000), wk =   0.0069444
        k(   48) = (   0.0833333   0.9166667   0.5000000), wk =   0.0069444
        k(   49) = (   0.1666667   0.0000000  -0.0000000), wk =   0.0069444
        k(   50) = (   0.1666667   0.0000000   0.5000000), wk =   0.0069444
        k(   51) = (   0.1666667   0.0833333   0.0000000), wk =   0.0069444
        k(   52) = (   0.1666667   0.0833333   0.5000000), wk =   0.0069444
        k(   53) = (   0.1666667   0.1666667  -0.0000000), wk =   0.0069444
        k(   54) = (   0.1666667   0.1666667   0.5000000), wk =   0.0069444
        k(   55) = (   0.1666667   0.2500000  -0.0000000), wk =   0.0069444
        k(   56) = (   0.1666667   0.2500000   0.5000000), wk =   0.0069444
        k(   57) = (   0.1666667   0.3333333   0.0000000), wk =   0.0069444
        k(   58) = (   0.1666667   0.3333333   0.5000000), wk =   0.0069444
        k(   59) = (   0.1666667   0.4166667  -0.0000000), wk =   0.0069444
        k(   60) = (   0.1666667   0.4166667   0.5000000), wk =   0.0069444
        k(   61) = (   0.1666667   0.5000000  -0.0000000), wk =   0.0069444
        k(   62) = (   0.1666667   0.5000000   0.5000000), wk =   0.0069444
        k(   63) = (   0.1666667   0.5833333  -0.0000000), wk =   0.0069444
        k(   64) = (   0.1666667   0.5833333   0.5000000), wk =   0.0069444
        k(   65) = (   0.1666667   0.6666667  -0.0000000), wk =   0.0069444
        k(   66) = (   0.1666667   0.6666667   0.5000000), wk =   0.0069444
        k(   67) = (   0.1666667   0.7500000   0.0000000), wk =   0.0069444
        k(   68) = (   0.1666667   0.7500000   0.5000000), wk =   0.0069444
        k(   69) = (   0.1666667   0.8333333   0.0000000), wk =   0.0069444
        k(   70) = (   0.1666667   0.8333333   0.5000000), wk =   0.0069444
        k(   71) = (   0.1666667   0.9166667   0.0000000), wk =   0.0069444
        k(   72) = (   0.1666667   0.9166667   0.5000000), wk =   0.0069444
        k(   73) = (   0.2500000   0.0000000   0.0000000), wk =   0.0069444
        k(   74) = (   0.2500000   0.0000000   0.5000000), wk =   0.0069444
        k(   75) = (   0.2500000   0.0833333  -0.0000000), wk =   0.0069444
        k(   76) = (   0.2500000   0.0833333   0.5000000), wk =   0.0069444
        k(   77) = (   0.2500000   0.1666667  -0.0000000), wk =   0.0069444
        k(   78) = (   0.2500000   0.1666667   0.5000000), wk =   0.0069444
        k(   79) = (   0.2500000   0.2500000   0.0000000), wk =   0.0069444
        k(   80) = (   0.2500000   0.2500000   0.5000000), wk =   0.0069444
        k(   81) = (   0.2500000   0.3333333  -0.0000000), wk =   0.0069444
        k(   82) = (   0.2500000   0.3333333   0.5000000), wk =   0.0069444
        k(   83) = (   0.2500000   0.4166667  -0.0000000), wk =   0.0069444
        k(   84) = (   0.2500000   0.4166667   0.5000000), wk =   0.0069444
        k(   85) = (   0.2500000   0.5000000  -0.0000000), wk =   0.0069444
        k(   86) = (   0.2500000   0.5000000   0.5000000), wk =   0.0069444
        k(   87) = (   0.2500000   0.5833333   0.0000000), wk =   0.0069444
        k(   88) = (   0.2500000   0.5833333   0.5000000), wk =   0.0069444
        k(   89) = (   0.2500000   0.6666667   0.0000000), wk =   0.0069444
        k(   90) = (   0.2500000   0.6666667   0.5000000), wk =   0.0069444
        k(   91) = (   0.2500000   0.7500000   0.0000000), wk =   0.0069444
        k(   92) = (   0.2500000   0.7500000   0.5000000), wk =   0.0069444
        k(   93) = (   0.2500000   0.8333333  -0.0000000), wk =   0.0069444
        k(   94) = (   0.2500000   0.8333333   0.5000000), wk =   0.0069444
        k(   95) = (   0.2500000   0.9166667  -0.0000000), wk =   0.0069444
        k(   96) = (   0.2500000   0.9166667   0.5000000), wk =   0.0069444
        k(   97) = (   0.3333333   0.0000000  -0.0000000), wk =   0.0069444
        k(   98) = (   0.3333333   0.0000000   0.5000000), wk =   0.0069444
        k(   99) = (   0.3333333   0.0833333  -0.0000000), wk =   0.0069444
        k(  100) = (   0.3333333   0.0833333   0.5000000), wk =   0.0069444
        k(  101) = (   0.3333333   0.1666667   0.0000000), wk =   0.0069444
        k(  102) = (   0.3333333   0.1666667   0.5000000), wk =   0.0069444
        k(  103) = (   0.3333333   0.2500000  -0.0000000), wk =   0.0069444
        k(  104) = (   0.3333333   0.2500000   0.5000000), wk =   0.0069444
        k(  105) = (   0.3333333   0.3333333  -0.0000000), wk =   0.0069444
        k(  106) = (   0.3333333   0.3333333   0.5000000), wk =   0.0069444
        k(  107) = (   0.3333333   0.4166667  -0.0000000), wk =   0.0069444
        k(  108) = (   0.3333333   0.4166667   0.5000000), wk =   0.0069444
        k(  109) = (   0.3333333   0.5000000   0.0000000), wk =   0.0069444
        k(  110) = (   0.3333333   0.5000000   0.5000000), wk =   0.0069444
        k(  111) = (   0.3333333   0.5833333  -0.0000000), wk =   0.0069444
        k(  112) = (   0.3333333   0.5833333   0.5000000), wk =   0.0069444
        k(  113) = (   0.3333333   0.6666667   0.0000000), wk =   0.0069444
        k(  114) = (   0.3333333   0.6666667   0.5000000), wk =   0.0069444
        k(  115) = (   0.3333333   0.7500000  -0.0000000), wk =   0.0069444
        k(  116) = (   0.3333333   0.7500000   0.5000000), wk =   0.0069444
        k(  117) = (   0.3333333   0.8333333  -0.0000000), wk =   0.0069444
        k(  118) = (   0.3333333   0.8333333   0.5000000), wk =   0.0069444
        k(  119) = (   0.3333333   0.9166667   0.0000000), wk =   0.0069444
        k(  120) = (   0.3333333   0.9166667   0.5000000), wk =   0.0069444
        k(  121) = (   0.4166667   0.0000000   0.0000000), wk =   0.0069444
        k(  122) = (   0.4166667   0.0000000   0.5000000), wk =   0.0069444
        k(  123) = (   0.4166667   0.0833333   0.0000000), wk =   0.0069444
        k(  124) = (   0.4166667   0.0833333   0.5000000), wk =   0.0069444
        k(  125) = (   0.4166667   0.1666667  -0.0000000), wk =   0.0069444
        k(  126) = (   0.4166667   0.1666667   0.5000000), wk =   0.0069444
        k(  127) = (   0.4166667   0.2500000  -0.0000000), wk =   0.0069444
        k(  128) = (   0.4166667   0.2500000   0.5000000), wk =   0.0069444
        k(  129) = (   0.4166667   0.3333333  -0.0000000), wk =   0.0069444
        k(  130) = (   0.4166667   0.3333333   0.5000000), wk =   0.0069444
        k(  131) = (   0.4166667   0.4166667   0.0000000), wk =   0.0069444
        k(  132) = (   0.4166667   0.4166667   0.5000000), wk =   0.0069444
        k(  133) = (   0.4166667   0.5000000   0.0000000), wk =   0.0069444
        k(  134) = (   0.4166667   0.5000000   0.5000000), wk =   0.0069444
        k(  135) = (   0.4166667   0.5833333   0.0000000), wk =   0.0069444
        k(  136) = (   0.4166667   0.5833333   0.5000000), wk =   0.0069444
        k(  137) = (   0.4166667   0.6666667  -0.0000000), wk =   0.0069444
        k(  138) = (   0.4166667   0.6666667   0.5000000), wk =   0.0069444
        k(  139) = (   0.4166667   0.7500000  -0.0000000), wk =   0.0069444
        k(  140) = (   0.4166667   0.7500000   0.5000000), wk =   0.0069444
        k(  141) = (   0.4166667   0.8333333   0.0000000), wk =   0.0069444
        k(  142) = (   0.4166667   0.8333333   0.5000000), wk =   0.0069444
        k(  143) = (   0.4166667   0.9166667   0.0000000), wk =   0.0069444
        k(  144) = (   0.4166667   0.9166667   0.5000000), wk =   0.0069444
        k(  145) = (   0.5000000   0.0000000   0.0000000), wk =   0.0069444
        k(  146) = (   0.5000000   0.0000000   0.5000000), wk =   0.0069444
        k(  147) = (   0.5000000   0.0833333  -0.0000000), wk =   0.0069444
        k(  148) = (   0.5000000   0.0833333   0.5000000), wk =   0.0069444
        k(  149) = (   0.5000000   0.1666667  -0.0000000), wk =   0.0069444
        k(  150) = (   0.5000000   0.1666667   0.5000000), wk =   0.0069444
        k(  151) = (   0.5000000   0.2500000  -0.0000000), wk =   0.0069444
        k(  152) = (   0.5000000   0.2500000   0.5000000), wk =   0.0069444
        k(  153) = (   0.5000000   0.3333333   0.0000000), wk =   0.0069444
        k(  154) = (   0.5000000   0.3333333   0.5000000), wk =   0.0069444
        k(  155) = (   0.5000000   0.4166667   0.0000000), wk =   0.0069444
        k(  156) = (   0.5000000   0.4166667   0.5000000), wk =   0.0069444
        k(  157) = (   0.5000000   0.5000000   0.0000000), wk =   0.0069444
        k(  158) = (   0.5000000   0.5000000   0.5000000), wk =   0.0069444
        k(  159) = (   0.5000000   0.5833333  -0.0000000), wk =   0.0069444
        k(  160) = (   0.5000000   0.5833333   0.5000000), wk =   0.0069444
        k(  161) = (   0.5000000   0.6666667  -0.0000000), wk =   0.0069444
        k(  162) = (   0.5000000   0.6666667   0.5000000), wk =   0.0069444
        k(  163) = (   0.5000000   0.7500000  -0.0000000), wk =   0.0069444
        k(  164) = (   0.5000000   0.7500000   0.5000000), wk =   0.0069444
        k(  165) = (   0.5000000   0.8333333  -0.0000000), wk =   0.0069444
        k(  166) = (   0.5000000   0.8333333   0.5000000), wk =   0.0069444
        k(  167) = (   0.5000000   0.9166667   0.0000000), wk =   0.0069444
        k(  168) = (   0.5000000   0.9166667   0.5000000), wk =   0.0069444
        k(  169) = (   0.5833333   0.0000000  -0.0000000), wk =   0.0069444
        k(  170) = (   0.5833333   0.0000000   0.5000000), wk =   0.0069444
        k(  171) = (   0.5833333   0.0833333   0.0000000), wk =   0.0069444
        k(  172) = (   0.5833333   0.0833333   0.5000000), wk =   0.0069444
        k(  173) = (   0.5833333   0.1666667  -0.0000000), wk =   0.0069444
        k(  174) = (   0.5833333   0.1666667   0.5000000), wk =   0.0069444
        k(  175) = (   0.5833333   0.2500000   0.0000000), wk =   0.0069444
        k(  176) = (   0.5833333   0.2500000   0.5000000), wk =   0.0069444
        k(  177) = (   0.5833333   0.3333333  -0.0000000), wk =   0.0069444
        k(  178) = (   0.5833333   0.3333333   0.5000000), wk =   0.0069444
        k(  179) = (   0.5833333   0.4166667   0.0000000), wk =   0.0069444
        k(  180) = (   0.5833333   0.4166667   0.5000000), wk =   0.0069444
        k(  181) = (   0.5833333   0.5000000  -0.0000000), wk =   0.0069444
        k(  182) = (   0.5833333   0.5000000   0.5000000), wk =   0.0069444
        k(  183) = (   0.5833333   0.5833333  -0.0000000), wk =   0.0069444
        k(  184) = (   0.5833333   0.5833333   0.5000000), wk =   0.0069444
        k(  185) = (   0.5833333   0.6666667  -0.0000000), wk =   0.0069444
        k(  186) = (   0.5833333   0.6666667   0.5000000), wk =   0.0069444
        k(  187) = (   0.5833333   0.7500000  -0.0000000), wk =   0.0069444
        k(  188) = (   0.5833333   0.7500000   0.5000000), wk =   0.0069444
        k(  189) = (   0.5833333   0.8333333   0.0000000), wk =   0.0069444
        k(  190) = (   0.5833333   0.8333333   0.5000000), wk =   0.0069444
        k(  191) = (   0.5833333   0.9166667   0.0000000), wk =   0.0069444
        k(  192) = (   0.5833333   0.9166667   0.5000000), wk =   0.0069444
        k(  193) = (   0.6666667   0.0000000  -0.0000000), wk =   0.0069444
        k(  194) = (   0.6666667   0.0000000   0.5000000), wk =   0.0069444
        k(  195) = (   0.6666667   0.0833333  -0.0000000), wk =   0.0069444
        k(  196) = (   0.6666667   0.0833333   0.5000000), wk =   0.0069444
        k(  197) = (   0.6666667   0.1666667  -0.0000000), wk =   0.0069444
        k(  198) = (   0.6666667   0.1666667   0.5000000), wk =   0.0069444
        k(  199) = (   0.6666667   0.2500000   0.0000000), wk =   0.0069444
        k(  200) = (   0.6666667   0.2500000   0.5000000), wk =   0.0069444
        k(  201) = (   0.6666667   0.3333333   0.0000000), wk =   0.0069444
        k(  202) = (   0.6666667   0.3333333   0.5000000), wk =   0.0069444
        k(  203) = (   0.6666667   0.4166667  -0.0000000), wk =   0.0069444
        k(  204) = (   0.6666667   0.4166667   0.5000000), wk =   0.0069444
        k(  205) = (   0.6666667   0.5000000  -0.0000000), wk =   0.0069444
        k(  206) = (   0.6666667   0.5000000   0.5000000), wk =   0.0069444
        k(  207) = (   0.6666667   0.5833333  -0.0000000), wk =   0.0069444
        k(  208) = (   0.6666667   0.5833333   0.5000000), wk =   0.0069444
        k(  209) = (   0.6666667   0.6666667  -0.0000000), wk =   0.0069444
        k(  210) = (   0.6666667   0.6666667   0.5000000), wk =   0.0069444
        k(  211) = (   0.6666667   0.7500000  -0.0000000), wk =   0.0069444
        k(  212) = (   0.6666667   0.7500000   0.5000000), wk =   0.0069444
        k(  213) = (   0.6666667   0.8333333  -0.0000000), wk =   0.0069444
        k(  214) = (   0.6666667   0.8333333   0.5000000), wk =   0.0069444
        k(  215) = (   0.6666667   0.9166667  -0.0000000), wk =   0.0069444
        k(  216) = (   0.6666667   0.9166667   0.5000000), wk =   0.0069444
        k(  217) = (   0.7500000   0.0000000  -0.0000000), wk =   0.0069444
        k(  218) = (   0.7500000   0.0000000   0.5000000), wk =   0.0069444
        k(  219) = (   0.7500000   0.0833333   0.0000000), wk =   0.0069444
        k(  220) = (   0.7500000   0.0833333   0.5000000), wk =   0.0069444
        k(  221) = (   0.7500000   0.1666667   0.0000000), wk =   0.0069444
        k(  222) = (   0.7500000   0.1666667   0.5000000), wk =   0.0069444
        k(  223) = (   0.7500000   0.2500000   0.0000000), wk =   0.0069444
        k(  224) = (   0.7500000   0.2500000   0.5000000), wk =   0.0069444
        k(  225) = (   0.7500000   0.3333333  -0.0000000), wk =   0.0069444
        k(  226) = (   0.7500000   0.3333333   0.5000000), wk =   0.0069444
        k(  227) = (   0.7500000   0.4166667  -0.0000000), wk =   0.0069444
        k(  228) = (   0.7500000   0.4166667   0.5000000), wk =   0.0069444
        k(  229) = (   0.7500000   0.5000000  -0.0000000), wk =   0.0069444
        k(  230) = (   0.7500000   0.5000000   0.5000000), wk =   0.0069444
        k(  231) = (   0.7500000   0.5833333  -0.0000000), wk =   0.0069444
        k(  232) = (   0.7500000   0.5833333   0.5000000), wk =   0.0069444
        k(  233) = (   0.7500000   0.6666667  -0.0000000), wk =   0.0069444
        k(  234) = (   0.7500000   0.6666667   0.5000000), wk =   0.0069444
        k(  235) = (   0.7500000   0.7500000  -0.0000000), wk =   0.0069444
        k(  236) = (   0.7500000   0.7500000   0.5000000), wk =   0.0069444
        k(  237) = (   0.7500000   0.8333333  -0.0000000), wk =   0.0069444
        k(  238) = (   0.7500000   0.8333333   0.5000000), wk =   0.0069444
        k(  239) = (   0.7500000   0.9166667   0.0000000), wk =   0.0069444
        k(  240) = (   0.7500000   0.9166667   0.5000000), wk =   0.0069444
        k(  241) = (   0.8333333   0.0000000   0.0000000), wk =   0.0069444
        k(  242) = (   0.8333333   0.0000000   0.5000000), wk =   0.0069444
        k(  243) = (   0.8333333   0.0833333  -0.0000000), wk =   0.0069444
        k(  244) = (   0.8333333   0.0833333   0.5000000), wk =   0.0069444
        k(  245) = (   0.8333333   0.1666667   0.0000000), wk =   0.0069444
        k(  246) = (   0.8333333   0.1666667   0.5000000), wk =   0.0069444
        k(  247) = (   0.8333333   0.2500000  -0.0000000), wk =   0.0069444
        k(  248) = (   0.8333333   0.2500000   0.5000000), wk =   0.0069444
        k(  249) = (   0.8333333   0.3333333  -0.0000000), wk =   0.0069444
        k(  250) = (   0.8333333   0.3333333   0.5000000), wk =   0.0069444
        k(  251) = (   0.8333333   0.4166667   0.0000000), wk =   0.0069444
        k(  252) = (   0.8333333   0.4166667   0.5000000), wk =   0.0069444
        k(  253) = (   0.8333333   0.5000000  -0.0000000), wk =   0.0069444
        k(  254) = (   0.8333333   0.5000000   0.5000000), wk =   0.0069444
        k(  255) = (   0.8333333   0.5833333   0.0000000), wk =   0.0069444
        k(  256) = (   0.8333333   0.5833333   0.5000000), wk =   0.0069444
        k(  257) = (   0.8333333   0.6666667  -0.0000000), wk =   0.0069444
        k(  258) = (   0.8333333   0.6666667   0.5000000), wk =   0.0069444
        k(  259) = (   0.8333333   0.7500000  -0.0000000), wk =   0.0069444
        k(  260) = (   0.8333333   0.7500000   0.5000000), wk =   0.0069444
        k(  261) = (   0.8333333   0.8333333   0.0000000), wk =   0.0069444
        k(  262) = (   0.8333333   0.8333333   0.5000000), wk =   0.0069444
        k(  263) = (   0.8333333   0.9166667   0.0000000), wk =   0.0069444
        k(  264) = (   0.8333333   0.9166667   0.5000000), wk =   0.0069444
        k(  265) = (   0.9166667   0.0000000   0.0000000), wk =   0.0069444
        k(  266) = (   0.9166667   0.0000000   0.5000000), wk =   0.0069444
        k(  267) = (   0.9166667   0.0833333   0.0000000), wk =   0.0069444
        k(  268) = (   0.9166667   0.0833333   0.5000000), wk =   0.0069444
        k(  269) = (   0.9166667   0.1666667   0.0000000), wk =   0.0069444
        k(  270) = (   0.9166667   0.1666667   0.5000000), wk =   0.0069444
        k(  271) = (   0.9166667   0.2500000  -0.0000000), wk =   0.0069444
        k(  272) = (   0.9166667   0.2500000   0.5000000), wk =   0.0069444
        k(  273) = (   0.9166667   0.3333333   0.0000000), wk =   0.0069444
        k(  274) = (   0.9166667   0.3333333   0.5000000), wk =   0.0069444
        k(  275) = (   0.9166667   0.4166667   0.0000000), wk =   0.0069444
        k(  276) = (   0.9166667   0.4166667   0.5000000), wk =   0.0069444
        k(  277) = (   0.9166667   0.5000000   0.0000000), wk =   0.0069444
        k(  278) = (   0.9166667   0.5000000   0.5000000), wk =   0.0069444
        k(  279) = (   0.9166667   0.5833333   0.0000000), wk =   0.0069444
        k(  280) = (   0.9166667   0.5833333   0.5000000), wk =   0.0069444
        k(  281) = (   0.9166667   0.6666667  -0.0000000), wk =   0.0069444
        k(  282) = (   0.9166667   0.6666667   0.5000000), wk =   0.0069444
        k(  283) = (   0.9166667   0.7500000   0.0000000), wk =   0.0069444
        k(  284) = (   0.9166667   0.7500000   0.5000000), wk =   0.0069444
        k(  285) = (   0.9166667   0.8333333   0.0000000), wk =   0.0069444
        k(  286) = (   0.9166667   0.8333333   0.5000000), wk =   0.0069444
        k(  287) = (   0.9166667   0.9166667   0.0000000), wk =   0.0069444
        k(  288) = (   0.9166667   0.9166667   0.5000000), wk =   0.0069444

     Dense  grid:   169655 G-vectors     FFT dimensions: (  60,  60, 135)

     Smooth grid:    92305 G-vectors     FFT dimensions: (  48,  48, 108)

     Dynamical RAM for                 wfc:       0.52 MB

     Dynamical RAM for     wfc (w. buffer):       0.52 MB

     Dynamical RAM for           str. fact:       0.22 MB

     Dynamical RAM for           local pot:       0.00 MB

     Dynamical RAM for          nlocal pot:       0.66 MB

     Dynamical RAM for                qrad:       3.52 MB

     Dynamical RAM for          rho,v,vnew:       0.82 MB

     Dynamical RAM for           G-vectors:       0.43 MB

     Dynamical RAM for          h,s,v(r/c):       0.92 MB

     Dynamical RAM for          <psi|beta>:       0.10 MB

     Dynamical RAM for                 psi:       1.04 MB

     Dynamical RAM for                hpsi:       1.04 MB

     Dynamical RAM for      wfcinit/wfcrot:       1.16 MB

     Estimated static dynamical RAM per process >       7.31 MB

     Estimated max dynamical RAM per process >      10.42 MB

     Estimated total dynamical RAM >     250.02 MB

     Check: negative core charge=   -0.000002

     The potential is recalculated from file :
     ./wfc-out/bi2se3.save/charge-density

     Starting wfcs are   65 randomized atomic wfcs +    6 random wfcs

     Band Structure Calculation
     Davidson diagonalization with overlap

     Computing kpt #:     1  of   288
     total cpu time spent up to now is        2.0 secs

     Computing kpt #:     2  of   288
     total cpu time spent up to now is        2.8 secs

     Computing kpt #:     3  of   288
     total cpu time spent up to now is        3.6 secs

     Computing kpt #:     4  of   288
     total cpu time spent up to now is        4.4 secs

     Computing kpt #:     5  of   288
     total cpu time spent up to now is        5.0 secs

     Computing kpt #:     6  of   288
     total cpu time spent up to now is        5.7 secs

     Computing kpt #:     7  of   288
     total cpu time spent up to now is        6.3 secs

     Computing kpt #:     8  of   288
     total cpu time spent up to now is        7.0 secs

     Computing kpt #:     9  of   288
     total cpu time spent up to now is        7.7 secs

     Computing kpt #:    10  of   288
     total cpu time spent up to now is        8.4 secs

     Computing kpt #:    11  of   288
     total cpu time spent up to now is        9.2 secs

     Computing kpt #:    12  of   288
     total cpu time spent up to now is        9.8 secs

     Computing kpt #:    13  of   288
     total cpu time spent up to now is       10.4 secs

     Computing kpt #:    14  of   288
     total cpu time spent up to now is       11.1 secs

     Computing kpt #:    15  of   288
     total cpu time spent up to now is       11.9 secs

     Computing kpt #:    16  of   288
     total cpu time spent up to now is       12.6 secs

     Computing kpt #:    17  of   288
     total cpu time spent up to now is       13.2 secs

     Computing kpt #:    18  of   288
     total cpu time spent up to now is       14.0 secs

     Computing kpt #:    19  of   288
     total cpu time spent up to now is       14.6 secs

     Computing kpt #:    20  of   288
     total cpu time spent up to now is       15.2 secs

     Computing kpt #:    21  of   288
     total cpu time spent up to now is       15.8 secs

     Computing kpt #:    22  of   288
     total cpu time spent up to now is       16.5 secs

     Computing kpt #:    23  of   288
     total cpu time spent up to now is       17.3 secs

     Computing kpt #:    24  of   288
     total cpu time spent up to now is       18.0 secs

     Computing kpt #:    25  of   288
     total cpu time spent up to now is       18.8 secs

     Computing kpt #:    26  of   288
     total cpu time spent up to now is       19.5 secs

     Computing kpt #:    27  of   288
     total cpu time spent up to now is       20.2 secs

     Computing kpt #:    28  of   288
     total cpu time spent up to now is       21.0 secs

     Computing kpt #:    29  of   288
     total cpu time spent up to now is       21.7 secs

     Computing kpt #:    30  of   288
     total cpu time spent up to now is       22.4 secs

     Computing kpt #:    31  of   288
     total cpu time spent up to now is       23.1 secs

     Computing kpt #:    32  of   288
     total cpu time spent up to now is       23.8 secs

     Computing kpt #:    33  of   288
     total cpu time spent up to now is       24.5 secs

     Computing kpt #:    34  of   288
     total cpu time spent up to now is       25.1 secs

     Computing kpt #:    35  of   288
     total cpu time spent up to now is       25.8 secs

     Computing kpt #:    36  of   288
     total cpu time spent up to now is       26.4 secs

     Computing kpt #:    37  of   288
     total cpu time spent up to now is       27.2 secs

     Computing kpt #:    38  of   288
     total cpu time spent up to now is       27.9 secs

     Computing kpt #:    39  of   288
     total cpu time spent up to now is       28.6 secs

     Computing kpt #:    40  of   288
     total cpu time spent up to now is       29.2 secs

     Computing kpt #:    41  of   288
     total cpu time spent up to now is       29.8 secs

     Computing kpt #:    42  of   288
     total cpu time spent up to now is       30.4 secs

     Computing kpt #:    43  of   288
     total cpu time spent up to now is       31.1 secs

     Computing kpt #:    44  of   288
     total cpu time spent up to now is       31.8 secs

     Computing kpt #:    45  of   288
     total cpu time spent up to now is       32.5 secs

     Computing kpt #:    46  of   288
     total cpu time spent up to now is       33.1 secs

     Computing kpt #:    47  of   288
     total cpu time spent up to now is       33.9 secs

     Computing kpt #:    48  of   288
     total cpu time spent up to now is       34.6 secs

     Computing kpt #:    49  of   288
     total cpu time spent up to now is       35.2 secs

     Computing kpt #:    50  of   288
     total cpu time spent up to now is       35.9 secs

     Computing kpt #:    51  of   288
     total cpu time spent up to now is       36.6 secs

     Computing kpt #:    52  of   288
     total cpu time spent up to now is       37.3 secs

     Computing kpt #:    53  of   288
     total cpu time spent up to now is       38.1 secs

     Computing kpt #:    54  of   288
     total cpu time spent up to now is       38.8 secs

     Computing kpt #:    55  of   288
     total cpu time spent up to now is       39.6 secs

     Computing kpt #:    56  of   288
     total cpu time spent up to now is       40.3 secs

     Computing kpt #:    57  of   288
     total cpu time spent up to now is       40.9 secs

     Computing kpt #:    58  of   288
     total cpu time spent up to now is       41.6 secs

     Computing kpt #:    59  of   288
     total cpu time spent up to now is       42.3 secs

     Computing kpt #:    60  of   288
     total cpu time spent up to now is       42.9 secs

     Computing kpt #:    61  of   288
     total cpu time spent up to now is       43.5 secs

     Computing kpt #:    62  of   288
     total cpu time spent up to now is       44.2 secs

     Computing kpt #:    63  of   288
     total cpu time spent up to now is       44.9 secs

     Computing kpt #:    64  of   288
     total cpu time spent up to now is       45.6 secs

     Computing kpt #:    65  of   288
     total cpu time spent up to now is       46.2 secs

     Computing kpt #:    66  of   288
     total cpu time spent up to now is       46.8 secs

     Computing kpt #:    67  of   288
     total cpu time spent up to now is       47.5 secs

     Computing kpt #:    68  of   288
     total cpu time spent up to now is       48.2 secs

     Computing kpt #:    69  of   288
     total cpu time spent up to now is       48.9 secs

     Computing kpt #:    70  of   288
     total cpu time spent up to now is       49.6 secs

     Computing kpt #:    71  of   288
     total cpu time spent up to now is       50.2 secs

     Computing kpt #:    72  of   288
     total cpu time spent up to now is       50.9 secs

     Computing kpt #:    73  of   288
     total cpu time spent up to now is       51.5 secs

     Computing kpt #:    74  of   288
     total cpu time spent up to now is       52.2 secs

     Computing kpt #:    75  of   288
     total cpu time spent up to now is       52.9 secs

     Computing kpt #:    76  of   288
     total cpu time spent up to now is       53.5 secs

     Computing kpt #:    77  of   288
     total cpu time spent up to now is       54.3 secs

     Computing kpt #:    78  of   288
     total cpu time spent up to now is       55.0 secs

     Computing kpt #:    79  of   288
     total cpu time spent up to now is       55.7 secs

     Computing kpt #:    80  of   288
     total cpu time spent up to now is       56.5 secs

     Computing kpt #:    81  of   288
     total cpu time spent up to now is       57.1 secs

     Computing kpt #:    82  of   288
     total cpu time spent up to now is       57.8 secs

     Computing kpt #:    83  of   288
     total cpu time spent up to now is       58.4 secs

     Computing kpt #:    84  of   288
     total cpu time spent up to now is       59.0 secs

     Computing kpt #:    85  of   288
     total cpu time spent up to now is       59.6 secs

     Computing kpt #:    86  of   288
     total cpu time spent up to now is       60.3 secs

     Computing kpt #:    87  of   288
     total cpu time spent up to now is       60.9 secs

     Computing kpt #:    88  of   288
     total cpu time spent up to now is       61.5 secs

     Computing kpt #:    89  of   288
     total cpu time spent up to now is       62.2 secs

     Computing kpt #:    90  of   288
     total cpu time spent up to now is       62.8 secs

     Computing kpt #:    91  of   288
     total cpu time spent up to now is       63.5 secs

     Computing kpt #:    92  of   288
     total cpu time spent up to now is       64.1 secs

     Computing kpt #:    93  of   288
     total cpu time spent up to now is       64.7 secs

     Computing kpt #:    94  of   288
     total cpu time spent up to now is       65.3 secs

     Computing kpt #:    95  of   288
     total cpu time spent up to now is       65.9 secs

     Computing kpt #:    96  of   288
     total cpu time spent up to now is       66.6 secs

     Computing kpt #:    97  of   288
     total cpu time spent up to now is       67.3 secs

     Computing kpt #:    98  of   288
     total cpu time spent up to now is       68.0 secs

     Computing kpt #:    99  of   288
     total cpu time spent up to now is       68.8 secs

     Computing kpt #:   100  of   288
     total cpu time spent up to now is       69.4 secs

     Computing kpt #:   101  of   288
     total cpu time spent up to now is       70.0 secs

     Computing kpt #:   102  of   288
     total cpu time spent up to now is       70.7 secs

     Computing kpt #:   103  of   288
     total cpu time spent up to now is       71.3 secs

     Computing kpt #:   104  of   288
     total cpu time spent up to now is       72.0 secs

     Computing kpt #:   105  of   288
     total cpu time spent up to now is       72.7 secs

     Computing kpt #:   106  of   288
     total cpu time spent up to now is       73.4 secs

     Computing kpt #:   107  of   288
     total cpu time spent up to now is       74.0 secs

     Computing kpt #:   108  of   288
     total cpu time spent up to now is       74.7 secs

     Computing kpt #:   109  of   288
     total cpu time spent up to now is       75.3 secs

     Computing kpt #:   110  of   288
     total cpu time spent up to now is       75.9 secs

     Computing kpt #:   111  of   288
     total cpu time spent up to now is       76.5 secs

     Computing kpt #:   112  of   288
     total cpu time spent up to now is       77.2 secs

     Computing kpt #:   113  of   288
     total cpu time spent up to now is       78.0 secs

     Computing kpt #:   114  of   288
     total cpu time spent up to now is       78.6 secs

     Computing kpt #:   115  of   288
     total cpu time spent up to now is       79.3 secs

     Computing kpt #:   116  of   288
     total cpu time spent up to now is       79.9 secs

     Computing kpt #:   117  of   288
     total cpu time spent up to now is       80.6 secs

     Computing kpt #:   118  of   288
     total cpu time spent up to now is       81.2 secs

     Computing kpt #:   119  of   288
     total cpu time spent up to now is       81.8 secs

     Computing kpt #:   120  of   288
     total cpu time spent up to now is       82.4 secs

     Computing kpt #:   121  of   288
     total cpu time spent up to now is       83.2 secs

     Computing kpt #:   122  of   288
     total cpu time spent up to now is       83.8 secs

     Computing kpt #:   123  of   288
     total cpu time spent up to now is       84.6 secs

     Computing kpt #:   124  of   288
     total cpu time spent up to now is       85.1 secs

     Computing kpt #:   125  of   288
     total cpu time spent up to now is       85.8 secs

     Computing kpt #:   126  of   288
     total cpu time spent up to now is       86.4 secs

     Computing kpt #:   127  of   288
     total cpu time spent up to now is       87.0 secs

     Computing kpt #:   128  of   288
     total cpu time spent up to now is       87.6 secs

     Computing kpt #:   129  of   288
     total cpu time spent up to now is       88.3 secs

     Computing kpt #:   130  of   288
     total cpu time spent up to now is       89.0 secs

     Computing kpt #:   131  of   288
     total cpu time spent up to now is       89.7 secs

     Computing kpt #:   132  of   288
     total cpu time spent up to now is       90.4 secs

     Computing kpt #:   133  of   288
     total cpu time spent up to now is       91.0 secs

     Computing kpt #:   134  of   288
     total cpu time spent up to now is       91.7 secs

     Computing kpt #:   135  of   288
     total cpu time spent up to now is       92.4 secs

     Computing kpt #:   136  of   288
     total cpu time spent up to now is       93.0 secs

     Computing kpt #:   137  of   288
     total cpu time spent up to now is       93.6 secs

     Computing kpt #:   138  of   288
     total cpu time spent up to now is       94.3 secs

     Computing kpt #:   139  of   288
     total cpu time spent up to now is       95.0 secs

     Computing kpt #:   140  of   288
     total cpu time spent up to now is       95.6 secs

     Computing kpt #:   141  of   288
     total cpu time spent up to now is       96.3 secs

     Computing kpt #:   142  of   288
     total cpu time spent up to now is       97.0 secs

     Computing kpt #:   143  of   288
     total cpu time spent up to now is       97.7 secs

     Computing kpt #:   144  of   288
     total cpu time spent up to now is       98.3 secs

     Computing kpt #:   145  of   288
     total cpu time spent up to now is       99.0 secs

     Computing kpt #:   146  of   288
     total cpu time spent up to now is       99.7 secs

     Computing kpt #:   147  of   288
     total cpu time spent up to now is      100.4 secs

     Computing kpt #:   148  of   288
     total cpu time spent up to now is      101.0 secs

     Computing kpt #:   149  of   288
     total cpu time spent up to now is      101.7 secs

     Computing kpt #:   150  of   288
     total cpu time spent up to now is      102.3 secs

     Computing kpt #:   151  of   288
     total cpu time spent up to now is      102.9 secs

     Computing kpt #:   152  of   288
     total cpu time spent up to now is      104.8 secs

     Computing kpt #:   153  of   288
     total cpu time spent up to now is      108.1 secs

     Computing kpt #:   154  of   288
     total cpu time spent up to now is      108.8 secs

     Computing kpt #:   155  of   288
     total cpu time spent up to now is      109.5 secs

     Computing kpt #:   156  of   288
     total cpu time spent up to now is      110.3 secs

     Computing kpt #:   157  of   288
     total cpu time spent up to now is      111.0 secs

     Computing kpt #:   158  of   288
     total cpu time spent up to now is      111.7 secs

     Computing kpt #:   159  of   288
     total cpu time spent up to now is      112.4 secs

     Computing kpt #:   160  of   288
     total cpu time spent up to now is      113.1 secs

     Computing kpt #:   161  of   288
     total cpu time spent up to now is      113.8 secs

     Computing kpt #:   162  of   288
     total cpu time spent up to now is      114.4 secs

     Computing kpt #:   163  of   288
     total cpu time spent up to now is      115.0 secs

     Computing kpt #:   164  of   288
     total cpu time spent up to now is      115.6 secs

     Computing kpt #:   165  of   288
     total cpu time spent up to now is      116.3 secs

     Computing kpt #:   166  of   288
     total cpu time spent up to now is      116.9 secs

     Computing kpt #:   167  of   288
     total cpu time spent up to now is      117.6 secs

     Computing kpt #:   168  of   288
     total cpu time spent up to now is      118.2 secs

     Computing kpt #:   169  of   288
     total cpu time spent up to now is      119.0 secs

     Computing kpt #:   170  of   288
     total cpu time spent up to now is      119.6 secs

     Computing kpt #:   171  of   288
     total cpu time spent up to now is      120.4 secs

     Computing kpt #:   172  of   288
     total cpu time spent up to now is      120.9 secs

     Computing kpt #:   173  of   288
     total cpu time spent up to now is      121.7 secs

     Computing kpt #:   174  of   288
     total cpu time spent up to now is      122.3 secs

     Computing kpt #:   175  of   288
     total cpu time spent up to now is      123.0 secs

     Computing kpt #:   176  of   288
     total cpu time spent up to now is      123.6 secs

     Computing kpt #:   177  of   288
     total cpu time spent up to now is      124.2 secs

     Computing kpt #:   178  of   288
     total cpu time spent up to now is      124.9 secs

     Computing kpt #:   179  of   288
     total cpu time spent up to now is      125.6 secs

     Computing kpt #:   180  of   288
     total cpu time spent up to now is      126.2 secs

     Computing kpt #:   181  of   288
     total cpu time spent up to now is      126.8 secs

     Computing kpt #:   182  of   288
     total cpu time spent up to now is      127.6 secs

     Computing kpt #:   183  of   288
     total cpu time spent up to now is      128.2 secs

     Computing kpt #:   184  of   288
     total cpu time spent up to now is      129.0 secs

     Computing kpt #:   185  of   288
     total cpu time spent up to now is      129.6 secs

     Computing kpt #:   186  of   288
     total cpu time spent up to now is      130.3 secs

     Computing kpt #:   187  of   288
     total cpu time spent up to now is      130.9 secs

     Computing kpt #:   188  of   288
     total cpu time spent up to now is      131.5 secs

     Computing kpt #:   189  of   288
     total cpu time spent up to now is      132.2 secs

     Computing kpt #:   190  of   288
     total cpu time spent up to now is      132.8 secs

     Computing kpt #:   191  of   288
     total cpu time spent up to now is      133.5 secs

     Computing kpt #:   192  of   288
     total cpu time spent up to now is      134.1 secs

     Computing kpt #:   193  of   288
     total cpu time spent up to now is      134.7 secs

     Computing kpt #:   194  of   288
     total cpu time spent up to now is      135.4 secs

     Computing kpt #:   195  of   288
     total cpu time spent up to now is      136.1 secs

     Computing kpt #:   196  of   288
     total cpu time spent up to now is      136.6 secs

     Computing kpt #:   197  of   288
     total cpu time spent up to now is      137.3 secs

     Computing kpt #:   198  of   288
     total cpu time spent up to now is      137.9 secs

     Computing kpt #:   199  of   288
     total cpu time spent up to now is      138.6 secs

     Computing kpt #:   200  of   288
     total cpu time spent up to now is      139.2 secs

     Computing kpt #:   201  of   288
     total cpu time spent up to now is      139.8 secs

     Computing kpt #:   202  of   288
     total cpu time spent up to now is      140.4 secs

     Computing kpt #:   203  of   288
     total cpu time spent up to now is      141.0 secs

     Computing kpt #:   204  of   288
     total cpu time spent up to now is      141.7 secs

     Computing kpt #:   205  of   288
     total cpu time spent up to now is      142.4 secs

     Computing kpt #:   206  of   288
     total cpu time spent up to now is      143.0 secs

     Computing kpt #:   207  of   288
     total cpu time spent up to now is      143.6 secs

     Computing kpt #:   208  of   288
     total cpu time spent up to now is      144.3 secs

     Computing kpt #:   209  of   288
     total cpu time spent up to now is      145.0 secs

     Computing kpt #:   210  of   288
     total cpu time spent up to now is      145.7 secs

     Computing kpt #:   211  of   288
     total cpu time spent up to now is      146.3 secs

     Computing kpt #:   212  of   288
     total cpu time spent up to now is      147.0 secs

     Computing kpt #:   213  of   288
     total cpu time spent up to now is      147.6 secs

     Computing kpt #:   214  of   288
     total cpu time spent up to now is      148.3 secs

     Computing kpt #:   215  of   288
     total cpu time spent up to now is      149.1 secs

     Computing kpt #:   216  of   288
     total cpu time spent up to now is      149.7 secs

     Computing kpt #:   217  of   288
     total cpu time spent up to now is      150.3 secs

     Computing kpt #:   218  of   288
     total cpu time spent up to now is      151.0 secs

     Computing kpt #:   219  of   288
     total cpu time spent up to now is      151.6 secs

     Computing kpt #:   220  of   288
     total cpu time spent up to now is      152.3 secs

     Computing kpt #:   221  of   288
     total cpu time spent up to now is      152.9 secs

     Computing kpt #:   222  of   288
     total cpu time spent up to now is      153.5 secs

     Computing kpt #:   223  of   288
     total cpu time spent up to now is      154.1 secs

     Computing kpt #:   224  of   288
     total cpu time spent up to now is      154.7 secs

     Computing kpt #:   225  of   288
     total cpu time spent up to now is      155.4 secs

     Computing kpt #:   226  of   288
     total cpu time spent up to now is      156.0 secs

     Computing kpt #:   227  of   288
     total cpu time spent up to now is      156.6 secs

     Computing kpt #:   228  of   288
     total cpu time spent up to now is      157.3 secs

     Computing kpt #:   229  of   288
     total cpu time spent up to now is      157.9 secs

     Computing kpt #:   230  of   288
     total cpu time spent up to now is      158.5 secs

     Computing kpt #:   231  of   288
     total cpu time spent up to now is      159.1 secs

     Computing kpt #:   232  of   288
     total cpu time spent up to now is      159.7 secs

     Computing kpt #:   233  of   288
     total cpu time spent up to now is      160.4 secs

     Computing kpt #:   234  of   288
     total cpu time spent up to now is      161.1 secs

     Computing kpt #:   235  of   288
     total cpu time spent up to now is      161.8 secs

     Computing kpt #:   236  of   288
     total cpu time spent up to now is      162.5 secs

     Computing kpt #:   237  of   288
     total cpu time spent up to now is      163.2 secs

     Computing kpt #:   238  of   288
     total cpu time spent up to now is      164.0 secs

     Computing kpt #:   239  of   288
     total cpu time spent up to now is      164.6 secs

     Computing kpt #:   240  of   288
     total cpu time spent up to now is      165.2 secs

     Computing kpt #:   241  of   288
     total cpu time spent up to now is      165.9 secs

     Computing kpt #:   242  of   288
     total cpu time spent up to now is      166.5 secs

     Computing kpt #:   243  of   288
     total cpu time spent up to now is      167.2 secs

     Computing kpt #:   244  of   288
     total cpu time spent up to now is      167.8 secs

     Computing kpt #:   245  of   288
     total cpu time spent up to now is      168.5 secs

     Computing kpt #:   246  of   288
     total cpu time spent up to now is      169.2 secs

     Computing kpt #:   247  of   288
     total cpu time spent up to now is      169.8 secs

     Computing kpt #:   248  of   288
     total cpu time spent up to now is      170.4 secs

     Computing kpt #:   249  of   288
     total cpu time spent up to now is      171.1 secs

     Computing kpt #:   250  of   288
     total cpu time spent up to now is      171.7 secs

     Computing kpt #:   251  of   288
     total cpu time spent up to now is      172.5 secs

     Computing kpt #:   252  of   288
     total cpu time spent up to now is      173.2 secs

     Computing kpt #:   253  of   288
     total cpu time spent up to now is      173.8 secs

     Computing kpt #:   254  of   288
[...]
     1.0000   1.0000   1.0000   1.0000   1.0000   1.0000   1.0000   1.0000
     1.0000   1.0000   1.0000   0.0000   0.0000   0.0000   0.0000   0.0000
     0.0000   0.0000   0.0000   0.0000   0.0000   0.0000   0.0000

          k =-0.4167-0.8179 0.2047 ( 11549 PWs)   bands (ev):

  -197.5334-197.3581-197.3581-143.1873-143.1873-137.0149-136.9897-136.9860
  -136.8390-136.8380-136.8073-136.8057-136.8031-136.8023 -81.2147 -81.2147
   -81.2147 -81.2147 -81.2092 -81.2092 -37.1904 -37.1831 -37.1809 -37.1598
   -37.1527 -37.0012 -36.9998 -36.9913 -36.9890 -36.9880 -36.9858 -36.9634
   -36.9609 -36.9568 -36.9531 -12.5054 -12.4993 -12.4862 -12.4801 -12.4779
   -12.4717 -12.4661 -12.4646 -12.4628 -12.4598  -2.3932  -1.9621  -1.6725
    -0.1614   0.2241   5.1275   6.6657   6.7917   7.2445   7.9503   8.0974
     8.3355   9.1125   9.6871  11.7669  12.4046  13.1100  13.8023  14.0507
    14.6177  14.8102  15.8790  18.9321  20.2268  20.3057  20.8048

     occupation numbers 
     1.0000   1.0000   1.0000   1.0000   1.0000   1.0000   1.0000   1.0000
     1.0000   1.0000   1.0000   1.0000   1.0000   1.0000   1.0000   1.0000
     1.0000   1.0000   1.0000   1.0000   1.0000   1.0000   1.0000   1.0000
     1.0000   1.0000   1.0000   1.0000   1.0000   1.0000   1.0000   1.0000
     1.0000   1.0000   1.0000   1.0000   1.0000   1.0000   1.0000   1.0000
     1.0000   1.0000   1.0000   1.0000   1.0000   1.0000   1.0000   1.0000
     1.0000   1.0000   1.0000   1.0000   1.0000   1.0000   1.0000   1.0000
     1.0000   1.0000   1.0000   0.0000   0.0000   0.0000   0.0000   0.0000
     0.0000   0.0000   0.0000   0.0000   0.0000   0.0000   0.0000

          k =-0.4167-0.8179 0.4214 ( 11555 PWs)   bands (ev):

  -197.5334-197.3581-197.3581-143.1873-143.1873-137.0148-136.9895-136.9870
  -136.8387-136.8381-136.8068-136.8058-136.8036-136.8036 -81.2147 -81.2147
   -81.2147 -81.2147 -81.2092 -81.2092 -37.1893 -37.1836 -37.1822 -37.1607
   -37.1530 -36.9999 -36.9990 -36.9912 -36.9905 -36.9884 -36.9881 -36.9640
   -36.9620 -36.9566 -36.9538 -12.5053 -12.4994 -12.4861 -12.4802 -12.4779
   -12.4716 -12.4661 -12.4646 -12.4627 -12.4599  -2.3947  -1.9492  -1.6770
    -0.2444   0.3061   5.3939   6.3577   6.5589   7.0835   7.7143   7.9823
     9.3052   9.4505   9.7127  11.5448  12.2113  12.4167  13.9771  14.0191
    14.2207  15.3327  17.2387  17.7719  19.5117  19.8365  20.3708

     occupation numbers 
     1.0000   1.0000   1.0000   1.0000   1.0000   1.0000   1.0000   1.0000
     1.0000   1.0000   1.0000   1.0000   1.0000   1.0000   1.0000   1.0000
     1.0000   1.0000   1.0000   1.0000   1.0000   1.0000   1.0000   1.0000
     1.0000   1.0000   1.0000   1.0000   1.0000   1.0000   1.0000   1.0000
     1.0000   1.0000   1.0000   1.0000   1.0000   1.0000   1.0000   1.0000
     1.0000   1.0000   1.0000   1.0000   1.0000   1.0000   1.0000   1.0000
     1.0000   1.0000   1.0000   1.0000   1.0000   1.0000   1.0000   1.0000
     1.0000   1.0000   1.0000   0.0000   0.0000   0.0000   0.0000   0.0000
     0.0000   0.0000   0.0000   0.0000   0.0000   0.0000   0.0000

          k =-0.3333-0.8660 0.2167 ( 11546 PWs)   bands (ev):

  -197.5334-197.3581-197.3581-143.1873-143.1873-137.0146-136.9894-136.9862
  -136.8386-136.8378-136.8068-136.8054-136.8031-136.8027 -81.2147 -81.2147
   -81.2147 -81.2147 -81.2092 -81.2092 -37.1894 -37.1824 -37.1816 -37.1585
   -37.1536 -36.9999 -36.9993 -36.9909 -36.9898 -36.9869 -36.9865 -36.9624
   -36.9595 -36.9562 -36.9552 -12.5032 -12.4978 -12.4847 -12.4792 -12.4772
   -12.4729 -12.4696 -12.4670 -12.4643 -12.4614  -2.7149  -2.1225  -1.6660
    -0.0401   0.4849   5.5138   6.7320   6.9227   7.0396   7.8336   8.5080
     8.8770   9.2060   9.7698  11.7236  12.4217  12.6909  13.6514  14.1423
    14.7534  14.8190  16.2369  17.8701  19.6768  19.9656  20.0805

     occupation numbers 
     1.0000   1.0000   1.0000   1.0000   1.0000   1.0000   1.0000   1.0000
     1.0000   1.0000   1.0000   1.0000   1.0000   1.0000   1.0000   1.0000
     1.0000   1.0000   1.0000   1.0000   1.0000   1.0000   1.0000   1.0000
     1.0000   1.0000   1.0000   1.0000   1.0000   1.0000   1.0000   1.0000
     1.0000   1.0000   1.0000   1.0000   1.0000   1.0000   1.0000   1.0000
     1.0000   1.0000   1.0000   1.0000   1.0000   1.0000   1.0000   1.0000
     1.0000   1.0000   1.0000   1.0000   1.0000   1.0000   1.0000   1.0000
     1.0000   1.0000   1.0000   0.0000   0.0000   0.0000   0.0000   0.0000
     0.0000   0.0000   0.0000   0.0000   0.0000   0.0000   0.0000

          k =-0.3333-0.8660 0.4334 ( 11543 PWs)   bands (ev):

  -197.5334-197.3581-197.3581-143.1873-143.1873-137.0142-136.9891-136.9865
  -136.8380-136.8376-136.8068-136.8049-136.8034-136.8029 -81.2147 -81.2147
   -81.2147 -81.2147 -81.2092 -81.2092 -37.1890 -37.1822 -37.1809 -37.1586
   -37.1537 -36.9999 -36.9985 -36.9898 -36.9886 -36.9876 -36.9860 -36.9628
   -36.9594 -36.9563 -36.9556 -12.5031 -12.4978 -12.4846 -12.4794 -12.4773
   -12.4729 -12.4696 -12.4670 -12.4642 -12.4615  -2.6980  -2.1429  -1.6874
     0.0820   0.3899   5.4953   6.5860   6.9293   7.3286   7.8386   8.1071
     9.0396   9.2977   9.8620  11.7841  12.3103  12.6660  13.8110  14.0014
    14.4730  14.8461  16.8454  18.2651  18.6395  18.7917  19.8340

     occupation numbers 
     1.0000   1.0000   1.0000   1.0000   1.0000   1.0000   1.0000   1.0000
     1.0000   1.0000   1.0000   1.0000   1.0000   1.0000   1.0000   1.0000
     1.0000   1.0000   1.0000   1.0000   1.0000   1.0000   1.0000   1.0000
     1.0000   1.0000   1.0000   1.0000   1.0000   1.0000   1.0000   1.0000
     1.0000   1.0000   1.0000   1.0000   1.0000   1.0000   1.0000   1.0000
     1.0000   1.0000   1.0000   1.0000   1.0000   1.0000   1.0000   1.0000
     1.0000   1.0000   1.0000   1.0000   1.0000   1.0000   1.0000   1.0000
     1.0000   1.0000   1.0000   0.0000   0.0000   0.0000   0.0000   0.0000
     0.0000   0.0000   0.0000   0.0000   0.0000   0.0000   0.0000

          k =-0.2500-0.9141 0.2288 ( 11536 PWs)   bands (ev):

  -197.5334-197.3581-197.3581-143.1873-143.1873-137.0147-136.9883-136.9858
  -136.8390-136.8376-136.8068-136.8034-136.8030-136.8020 -81.2147 -81.2147
   -81.2147 -81.2147 -81.2092 -81.2092 -37.1899 -37.1814 -37.1807 -37.1563
   -37.1533 -37.0016 -36.9985 -36.9903 -36.9891 -36.9859 -36.9850 -36.9609
   -36.9570 -36.9563 -36.9539 -12.4998 -12.4954 -12.4817 -12.4791 -12.4772
   -12.4765 -12.4725 -12.4685 -12.4675 -12.4649  -3.1034  -2.3002  -1.8461
     0.2171   0.8062   6.1836   6.8425   7.0466   7.3102   7.8703   8.9016
     9.1309   9.6498   9.9821  11.5772  12.2274  12.6050  13.3051  14.1516
    14.6382  14.9053  16.7587  17.0994  18.8401  19.3686  19.5206

     occupation numbers 
     1.0000   1.0000   1.0000   1.0000   1.0000   1.0000   1.0000   1.0000
     1.0000   1.0000   1.0000   1.0000   1.0000   1.0000   1.0000   1.0000
     1.0000   1.0000   1.0000   1.0000   1.0000   1.0000   1.0000   1.0000
     1.0000   1.0000   1.0000   1.0000   1.0000   1.0000   1.0000   1.0000
     1.0000   1.0000   1.0000   1.0000   1.0000   1.0000   1.0000   1.0000
     1.0000   1.0000   1.0000   1.0000   1.0000   1.0000   1.0000   1.0000
     1.0000   1.0000   1.0000   1.0000   1.0000   1.0000   1.0000   1.0000
     1.0000   1.0000   1.0000   0.0000   0.0000   0.0000   0.0000   0.0000
     0.0000   0.0000   0.0000   0.0000   0.0000   0.0000   0.0000

          k =-0.2500-0.9141 0.4455 ( 11540 PWs)   bands (ev):

  -197.5334-197.3581-197.3581-143.1873-143.1873-137.0143-136.9887-136.9864
  -136.8384-136.8375-136.8067-136.8043-136.8036-136.8024 -81.2147 -81.2147
   -81.2147 -81.2147 -81.2092 -81.2092 -37.1886 -37.1823 -37.1812 -37.1567
   -37.1546 -36.9998 -36.9974 -36.9897 -36.9893 -36.9879 -36.9870 -36.9605
   -36.9581 -36.9573 -36.9558 -12.4997 -12.4954 -12.4817 -12.4791 -12.4773
   -12.4765 -12.4725 -12.4685 -12.4674 -12.4650  -3.0496  -2.4845  -1.6896
     0.2385   0.7507   5.9123   6.7579   7.6131   7.6571   8.1639   8.4205
     8.7770   9.1371  10.0698  11.7251  12.6184  13.0955  13.5119  13.8206
    14.0862  15.0257  16.5534  17.5348  17.8270  19.2194  19.4064

     occupation numbers 
     1.0000   1.0000   1.0000   1.0000   1.0000   1.0000   1.0000   1.0000
     1.0000   1.0000   1.0000   1.0000   1.0000   1.0000   1.0000   1.0000
     1.0000   1.0000   1.0000   1.0000   1.0000   1.0000   1.0000   1.0000
     1.0000   1.0000   1.0000   1.0000   1.0000   1.0000   1.0000   1.0000
     1.0000   1.0000   1.0000   1.0000   1.0000   1.0000   1.0000   1.0000
     1.0000   1.0000   1.0000   1.0000   1.0000   1.0000   1.0000   1.0000
     1.0000   1.0000   1.0000   1.0000   1.0000   1.0000   1.0000   1.0000
     1.0000   1.0000   1.0000   0.0000   0.0000   0.0000   0.0000   0.0000
     0.0000   0.0000   0.0000   0.0000   0.0000   0.0000   0.0000

          k =-0.1667-0.9623 0.2408 ( 11532 PWs)   bands (ev):

  -197.5334-197.3581-197.3581-143.1873-143.1873-137.0149-136.9869-136.9863
  -136.8392-136.8378-136.8043-136.8036-136.8030-136.8023 -81.2147 -81.2147
   -81.2147 -81.2147 -81.2092 -81.2092 -37.1882 -37.1822 -37.1815 -37.1555
   -37.1518 -36.9997 -36.9972 -36.9908 -36.9895 -36.9869 -36.9866 -36.9583
   -36.9572 -36.9550 -36.9530 -12.4964 -12.4932 -12.4838 -12.4823 -12.4778
   -12.4757 -12.4723 -12.4711 -12.4699 -12.4673  -3.4367  -2.4675  -2.0809
     0.4516   1.0969   6.9003   7.2323   7.2931   7.8046   8.1310   8.8760
     9.6196   9.8529  10.1477  11.6206  12.1189  12.2669  13.2799  13.7945
    14.1232  15.2880  16.2404  17.8383  18.1953  18.6234  18.9104

     occupation numbers 
     1.0000   1.0000   1.0000   1.0000   1.0000   1.0000   1.0000   1.0000
     1.0000   1.0000   1.0000   1.0000   1.0000   1.0000   1.0000   1.0000
     1.0000   1.0000   1.0000   1.0000   1.0000   1.0000   1.0000   1.0000
     1.0000   1.0000   1.0000   1.0000   1.0000   1.0000   1.0000   1.0000
     1.0000   1.0000   1.0000   1.0000   1.0000   1.0000   1.0000   1.0000
     1.0000   1.0000   1.0000   1.0000   1.0000   1.0000   1.0000   1.0000
     1.0000   1.0000   1.0000   1.0000   1.0000   1.0000   1.0000   1.0000
     1.0000   1.0000   1.0000   0.0000   0.0000   0.0000   0.0000   0.0000
     0.0000   0.0000   0.0000   0.0000   0.0000   0.0000   0.0000

          k =-0.1667-0.9623 0.4575 ( 11522 PWs)   bands (ev):

  -197.5334-197.3581-197.3581-143.1873-143.1873-137.0139-136.9867-136.9864
  -136.8381-136.8370-136.8040-136.8039-136.8026-136.8024 -81.2147 -81.2147
   -81.2147 -81.2147 -81.2092 -81.2092 -37.1857 -37.1820 -37.1813 -37.1553
   -37.1518 -36.9969 -36.9949 -36.9893 -36.9890 -36.9879 -36.9869 -36.9584
   -36.9566 -36.9545 -36.9535 -12.4964 -12.4932 -12.4838 -12.4823 -12.4778
   -12.4757 -12.4723 -12.4710 -12.4700 -12.4673  -3.3541  -2.7953  -1.7351
     0.2180   1.2236   6.6424   7.0698   7.7158   8.2433   8.5983   8.8946
     8.9343   9.1554  10.0414  11.7589  12.6288  12.7805  13.3906  13.4480
    13.7841  15.7159  16.4364  16.8876  17.5295  18.5382  18.9645

     occupation numbers 
     1.0000   1.0000   1.0000   1.0000   1.0000   1.0000   1.0000   1.0000
     1.0000   1.0000   1.0000   1.0000   1.0000   1.0000   1.0000   1.0000
     1.0000   1.0000   1.0000   1.0000   1.0000   1.0000   1.0000   1.0000
     1.0000   1.0000   1.0000   1.0000   1.0000   1.0000   1.0000   1.0000
     1.0000   1.0000   1.0000   1.0000   1.0000   1.0000   1.0000   1.0000
     1.0000   1.0000   1.0000   1.0000   1.0000   1.0000   1.0000   1.0000
     1.0000   1.0000   1.0000   1.0000   1.0000   1.0000   1.0000   1.0000
     1.0000   1.0000   1.0000   0.0000   0.0000   0.0000   0.0000   0.0000
     0.0000   0.0000   0.0000   0.0000   0.0000   0.0000   0.0000

          k =-0.0833-1.0104 0.2528 ( 11527 PWs)   bands (ev):

  -197.5334-197.3581-197.3581-143.1873-143.1873-137.0148-136.9865-136.9856
  -136.8390-136.8380-136.8042-136.8030-136.8023-136.8016 -81.2147 -81.2147
   -81.2147 -81.2147 -81.2092 -81.2092 -37.1875 -37.1828 -37.1807 -37.1538
   -37.1511 -36.9983 -36.9969 -36.9900 -36.9893 -36.9888 -36.9855 -36.9567
   -36.9562 -36.9551 -36.9507 -12.4944 -12.4919 -12.4883 -12.4866 -12.4778
   -12.4757 -12.4724 -12.4719 -12.4693 -12.4672  -3.6733  -2.5873  -2.2812
     0.5971   1.3076   7.4358   7.5634   7.9859   8.3239   8.7173   8.8178
     9.5915   9.9422  10.0700  11.5201  12.0546  12.5372  12.9830  13.3441
    13.5147  15.8612  16.0705  17.6826  18.0409  18.2842  18.5303

     occupation numbers 
     1.0000   1.0000   1.0000   1.0000   1.0000   1.0000   1.0000   1.0000
     1.0000   1.0000   1.0000   1.0000   1.0000   1.0000   1.0000   1.0000
     1.0000   1.0000   1.0000   1.0000   1.0000   1.0000   1.0000   1.0000
     1.0000   1.0000   1.0000   1.0000   1.0000   1.0000   1.0000   1.0000
     1.0000   1.0000   1.0000   1.0000   1.0000   1.0000   1.0000   1.0000
     1.0000   1.0000   1.0000   1.0000   1.0000   1.0000   1.0000   1.0000
     1.0000   1.0000   1.0000   1.0000   1.0000   1.0000   1.0000   1.0000
     1.0000   1.0000   1.0000   0.0000   0.0000   0.0000   0.0000   0.0000
     0.0000   0.0000   0.0000   0.0000   0.0000   0.0000   0.0000

          k =-0.0833-1.0104 0.4696 ( 11513 PWs)   bands (ev):

  -197.5334-197.3581-197.3581-143.1873-143.1873-137.0135-136.9865-136.9852
  -136.8382-136.8362-136.8043-136.8034-136.8020-136.8004 -81.2147 -81.2147
   -81.2147 -81.2147 -81.2092 -81.2092 -37.1841 -37.1822 -37.1802 -37.1528
   -37.1514 -36.9968 -36.9920 -36.9898 -36.9883 -36.9877 -36.9851 -36.9569
   -36.9565 -36.9531 -36.9507 -12.4944 -12.4919 -12.4883 -12.4866 -12.4777
   -12.4759 -12.4725 -12.4719 -12.4693 -12.4672  -3.5711  -3.0219  -1.7900
     0.1663   1.5969   7.4895   7.6145   7.6854   8.4689   8.8538   9.0478
     9.3364   9.8112  10.0000  11.7620  11.9164  12.3678  12.9831  13.4314
    13.6887  16.1190  16.4111  17.0355  17.5542  17.8439  18.6410

     occupation numbers 
     1.0000   1.0000   1.0000   1.0000   1.0000   1.0000   1.0000   1.0000
     1.0000   1.0000   1.0000   1.0000   1.0000   1.0000   1.0000   1.0000
     1.0000   1.0000   1.0000   1.0000   1.0000   1.0000   1.0000   1.0000
     1.0000   1.0000   1.0000   1.0000   1.0000   1.0000   1.0000   1.0000
     1.0000   1.0000   1.0000   1.0000   1.0000   1.0000   1.0000   1.0000
     1.0000   1.0000   1.0000   1.0000   1.0000   1.0000   1.0000   1.0000
     1.0000   1.0000   1.0000   1.0000   1.0000   1.0000   1.0000   1.0000
     1.0000   1.0000   1.0000   0.0000   0.0000   0.0000   0.0000   0.0000
     0.0000   0.0000   0.0000   0.0000   0.0000   0.0000   0.0000

          k = 0.0000-1.0585 0.2649 ( 11544 PWs)   bands (ev):

  -197.5334-197.3581-197.3581-143.1873-143.1873-137.0155-136.9867-136.9863
  -136.8394-136.8389-136.8044-136.8044-136.8025-136.8015 -81.2147 -81.2147
   -81.2147 -81.2147 -81.2092 -81.2092 -37.1888 -37.1834 -37.1821 -37.1533
   -37.1530 -37.0000 -36.9979 -36.9915 -36.9903 -36.9885 -36.9868 -36.9580
   -36.9570 -36.9536 -36.9529 -12.4935 -12.4914 -12.4912 -12.4893 -12.4797
   -12.4769 -12.4713 -12.4707 -12.4681 -12.4670  -3.7959  -2.6318  -2.4111
     0.6674   1.4100   7.7754   8.0086   8.3868   8.5640   9.0225   9.0694
     9.5925   9.6251  10.1638  11.3057  11.9378  12.3644  12.9302  13.1413
    13.3220  16.1941  16.3252  17.4123  17.7919  17.9505  18.1410

     occupation numbers 
     1.0000   1.0000   1.0000   1.0000   1.0000   1.0000   1.0000   1.0000
     1.0000   1.0000   1.0000   1.0000   1.0000   1.0000   1.0000   1.0000
     1.0000   1.0000   1.0000   1.0000   1.0000   1.0000   1.0000   1.0000
     1.0000   1.0000   1.0000   1.0000   1.0000   1.0000   1.0000   1.0000
     1.0000   1.0000   1.0000   1.0000   1.0000   1.0000   1.0000   1.0000
     1.0000   1.0000   1.0000   1.0000   1.0000   1.0000   1.0000   1.0000
     1.0000   1.0000   1.0000   1.0000   1.0000   1.0000   1.0000   1.0000
     1.0000   1.0000   1.0000   0.0000   0.0000   0.0000   0.0000   0.0000
     0.0000   0.0000   0.0000   0.0000   0.0000   0.0000   0.0000

          k = 0.0000-1.0585 0.4816 ( 11518 PWs)   bands (ev):

  -197.5334-197.3581-197.3581-143.1873-143.1873-137.0132-136.9865-136.9852
  -136.8379-136.8359-136.8051-136.8022-136.8017-136.8013 -81.2147 -81.2147
   -81.2147 -81.2147 -81.2092 -81.2092 -37.1840 -37.1814 -37.1801 -37.1528
   -37.1516 -36.9969 -36.9910 -36.9892 -36.9879 -36.9871 -36.9857 -36.9575
   -36.9550 -36.9526 -36.9523 -12.4935 -12.4913 -12.4912 -12.4892 -12.4796
   -12.4771 -12.4714 -12.4707 -12.4680 -12.4670  -3.6815  -3.1438  -1.8208
     0.1255   1.8013   7.6351   8.0259   8.4360   8.5838   8.9140   8.9498
     9.6510   9.9549  10.0817  11.5601  11.7784  12.1330  12.9513  13.0598
    13.4031  16.0450  16.6481  17.3330  17.5015  17.6874  18.7578

     occupation numbers 
     1.0000   1.0000   1.0000   1.0000   1.0000   1.0000   1.0000   1.0000
     1.0000   1.0000   1.0000   1.0000   1.0000   1.0000   1.0000   1.0000
     1.0000   1.0000   1.0000   1.0000   1.0000   1.0000   1.0000   1.0000
     1.0000   1.0000   1.0000   1.0000   1.0000   1.0000   1.0000   1.0000
     1.0000   1.0000   1.0000   1.0000   1.0000   1.0000   1.0000   1.0000
     1.0000   1.0000   1.0000   1.0000   1.0000   1.0000   1.0000   1.0000
     1.0000   1.0000   1.0000   1.0000   1.0000   1.0000   1.0000   1.0000
     1.0000   1.0000   1.0000   0.0000   0.0000   0.0000   0.0000   0.0000
     0.0000   0.0000   0.0000   0.0000   0.0000   0.0000   0.0000

     the Fermi energy is    10.7218 ev
     (compare with:    10.7216 eV, computed in scf)

     Writing output data file ./wfc-out/bi2se3.save/
 
     init_run     :      0.32s CPU      0.64s WALL (       1 calls)
     electrons    :    189.28s CPU    196.53s WALL (       1 calls)

     Called by init_run:
     wfcinit      :      0.00s CPU      0.00s WALL (       1 calls)
     wfcinit:atom :      0.06s CPU      0.07s WALL (     288 calls)
     wfcinit:wfcr :      6.78s CPU      7.14s WALL (     288 calls)
     potinit      :      0.01s CPU      0.03s WALL (       1 calls)
     hinit0       :      0.21s CPU      0.50s WALL (       1 calls)

     Called by electrons:
     c_bands      :    189.26s CPU    196.44s WALL (       1 calls)
     v_of_rho     :      0.01s CPU      0.01s WALL (       1 calls)
     v_h          :      0.00s CPU      0.00s WALL (       1 calls)
     v_xc         :      0.01s CPU      0.01s WALL (       1 calls)

     Called by c_bands:
     init_us_2    :      0.07s CPU      0.09s WALL (     288 calls)
     cegterg      :    180.93s CPU    187.28s WALL (     676 calls)

     Called by sum_band:

     Called by *egterg:
     cdiaghg      :     67.30s CPU     67.85s WALL (   11583 calls)
     cegterg:over :     12.54s CPU     12.77s WALL (   11295 calls)
     cegterg:upda :      4.96s CPU      5.03s WALL (   11295 calls)
     cegterg:last :      7.24s CPU      7.33s WALL (    4490 calls)
     h_psi        :     88.21s CPU     93.94s WALL (   12259 calls)
     g_psi        :      0.47s CPU      0.48s WALL (   11295 calls)

     Called by h_psi:
     h_psi:calbec :      5.78s CPU      6.08s WALL (   12259 calls)
     vloc_psi     :     78.28s CPU     83.62s WALL (   12259 calls)
     add_vuspsi   :      3.43s CPU      3.51s WALL (   12259 calls)

     General routines
     calbec       :      5.71s CPU      6.02s WALL (   12259 calls)
     fft          :      0.05s CPU      0.35s WALL (      12 calls)
     ffts         :      0.00s CPU      0.00s WALL (       1 calls)
     fftw         :     70.24s CPU     74.98s WALL (  666256 calls)
     interpolate  :      0.00s CPU      0.00s WALL (       1 calls)
     davcio       :      0.14s CPU      0.48s WALL (     576 calls)
 
     Parallel routines
     fft_scatt_xy :      9.79s CPU     10.50s WALL (  666269 calls)
     fft_scatt_yz :     37.07s CPU     39.48s WALL (  666269 calls)
 
     PWSCF        :   3m17.37s CPU   3m54.57s WALL

 
   This run was terminated on:  21:53:12  11May2023            

=------------------------------------------------------------------------------=
   JOB DONE.
=------------------------------------------------------------------------------=
