 vasp.5.4.4.18Apr17-6-g9f103f2a35 (build Sep 16 2021 13:51:27) complex          
  
 executed on             LinuxIFC date 2023.02.26  09:55:27
 running on   24 total cores
 distrk:  each k-point on   24 cores,    1 groups
 distr:  one band on NCORES_PER_BAND=  24 cores,    1 groups


--------------------------------------------------------------------------------------------------------


 INCAR:
 POTCAR:    PAW_PBE Sn 08Apr2002                  
 POTCAR:    PAW_PBE Se 06Sep2000                  

 ----------------------------------------------------------------------------- 
|                                                                             |
|           W    W    AA    RRRRR   N    N  II  N    N   GGGG   !!!           |
|           W    W   A  A   R    R  NN   N  II  NN   N  G    G  !!!           |
|           W    W  A    A  R    R  N N  N  II  N N  N  G       !!!           |
|           W WW W  AAAAAA  RRRRR   N  N N  II  N  N N  G  GGG   !            |
|           WW  WW  A    A  R   R   N   NN  II  N   NN  G    G                |
|           W    W  A    A  R    R  N    N  II  N    N   GGGG   !!!           |
|                                                                             |
|      For optimal performance we recommend to set                            |
|        NCORE= 4 - approx SQRT( number of cores)                             |
|      NCORE specifies how many cores store one orbital (NPAR=cpu/NCORE).     |
|      This setting can  greatly improve the performance of VASP for DFT.     |
|      The default,   NCORE=1            might be grossly inefficient         |
|      on modern multi-core architectures or massively parallel machines.     |
|      Do your own testing !!!!                                               |
|      Unfortunately you need to use the default for GW and RPA calculations. |
|      (for HF NCORE is supported but not extensively tested yet)             |
|                                                                             |
 ----------------------------------------------------------------------------- 

 POTCAR:    PAW_PBE Sn 08Apr2002                  
   VRHFIN =Sn: s2p2                                                             
   LEXCH  = PE                                                                  
   EATOM  =    94.0860 eV,    6.9151 Ry                                         
                                                                                
   TITEL  = PAW_PBE Sn 08Apr2002                                                
   LULTRA =        F    use ultrasoft PP ?                                      
   IUNSCR =        1    unscreen: 0-lin 1-nonlin 2-no                           
   RPACOR =    2.000    partial core radius                                     
   POMASS =  118.710; ZVAL   =    4.000    mass and valenz                      
   RCORE  =    3.000    outmost cutoff radius                                   
   RWIGS  =    2.960; RWIGS  =    1.566    wigner-seitz radius (au A)           
   ENMAX  =  103.236; ENMIN  =   77.427 eV                                      
   ICORE  =        3    local potential                                         
   LCOR   =        T    correct aug charges                                     
   LPAW   =        T    paw PP                                                  
   EAUG   =  263.585                                                            
   DEXC   =    0.000                                                            
   RMAX   =    3.078    core radius for proj-oper                               
   RAUG   =    1.300    factor for augmentation sphere                          
   RDEP   =    3.022    radius for radial grids                                 
   RDEPT  =    2.655    core radius for aug-charge                              
                                                                                
   Atomic configuration                                                         
   13 entries                                                                   
     n  l   j            E        occ.                                          
     1  0  0.50    -29007.2859   2.0000                                         
     2  0  0.50     -4378.8056   2.0000                                         
     2  1  1.50     -3930.4293   6.0000                                         
     3  0  0.50      -845.0264   2.0000                                         
     3  1  1.50      -698.5725   6.0000                                         
     3  2  2.50      -473.2839  10.0000                                         
     4  0  0.50      -133.9036   2.0000                                         
     4  1  1.50       -89.6752   6.0000                                         
     4  2  2.50       -25.8375  10.0000                                         
     5  0  0.50       -10.5484   2.0000                                         
     5  1  0.50        -3.6940   2.0000                                         
     5  2  1.50        -1.3606   0.0000                                         
     4  3  2.50        -4.0817   0.0000                                         
   Description                                                                  
     l       E           TYP  RCUT    TYP  RCUT                                 
     0    -10.5483727     23  3.000                                             
     0     27.2116520     23  3.000                                             
     1     -3.6939829     23  3.000                                             
     1      1.9821976     23  3.000                                             
     2     -1.3605826     23  3.000                                             
     3     -2.7211652     23  3.000                                             
  local pseudopotential read in
  partial core-charges read in
  partial kinetic energy density read in
  atomic valenz-charges read in
  non local Contribution for L=           0  read in
    real space projection operators read in
  non local Contribution for L=           0  read in
    real space projection operators read in
  non local Contribution for L=           1  read in
    real space projection operators read in
  non local Contribution for L=           1  read in
    real space projection operators read in
  non local Contribution for L=           2  read in
    real space projection operators read in
    PAW grid and wavefunctions read in
 
   number of l-projection  operators is LMAX  =           5
   number of lm-projection operators is LMMAX =          13
 
 POTCAR:    PAW_PBE Se 06Sep2000                  
   VRHFIN =Se: s2p4                                                             
   LEXCH  = PE                                                                  
   EATOM  =   257.1286 eV,   18.8984 Ry                                         
                                                                                
   TITEL  = PAW_PBE Se 06Sep2000                                                
   LULTRA =        F    use ultrasoft PP ?                                      
   IUNSCR =        1    unscreen: 0-lin 1-nonlin 2-no                           
   RPACOR =    1.900    partial core radius                                     
   POMASS =   78.960; ZVAL   =    6.000    mass and valenz                      
   RCORE  =    2.100    outmost cutoff radius                                   
   RWIGS  =    2.200; RWIGS  =    1.164    wigner-seitz radius (au A)           
   ENMAX  =  211.555; ENMIN  =  158.666 eV                                      
   ICORE  =        3    local potential                                         
   LCOR   =        T    correct aug charges                                     
   LPAW   =        T    paw PP                                                  
   EAUG   =  446.842                                                            
   DEXC   =    0.000                                                            
   RMAX   =    2.147    core radius for proj-oper                               
   RAUG   =    1.300    factor for augmentation sphere                          
   RDEP   =    2.177    radius for radial grids                                 
   RDEPT  =    1.928    core radius for aug-charge                              
                                                                                
   Atomic configuration                                                         
   10 entries                                                                   
     n  l   j            E        occ.                                          
     1  0  0.50    -12503.4787   2.0000                                         
     2  0  0.50     -1606.9547   2.0000                                         
     2  1  1.50     -1413.3140   6.0000                                         
     3  0  0.50      -213.4885   2.0000                                         
     3  1  1.50      -152.9538   6.0000                                         
     3  2  2.50       -53.1221  10.0000                                         
     4  0  0.50       -17.2865   2.0000                                         
     4  1  0.50        -6.5110   4.0000                                         
     4  2  2.50        -6.8029   0.0000                                         
     4  3  2.50        -6.8029   0.0000                                         
   Description                                                                  
     l       E           TYP  RCUT    TYP  RCUT                                 
     0    -17.2865377     23  2.100                                             
     0    -15.3094411     23  2.100                                             
     1     -6.5110275     23  2.100                                             
     1     -0.0695192     23  2.100                                             
     2     -6.8029130     23  2.100                                             
     3     -1.3605826      7  2.100                                             
  local pseudopotential read in
  partial core-charges read in
  partial kinetic energy density read in
  atomic valenz-charges read in
  non local Contribution for L=           0  read in
    real space projection operators read in
  non local Contribution for L=           0  read in
    real space projection operators read in
  non local Contribution for L=           1  read in
    real space projection operators read in
  non local Contribution for L=           1  read in
    real space projection operators read in
  non local Contribution for L=           2  read in
    real space projection operators read in
    PAW grid and wavefunctions read in
 
   number of l-projection  operators is LMAX  =           5
   number of lm-projection operators is LMMAX =          13
 
 WARNING: PSMAXN for non-local potential too small
          PSMAXN should be >   12.5490833729506       NTYP=           1
  PAW_PBE Sn 08Apr2002                  :
 energy of atom  1       EATOM=  -94.0860
 kinetic energy error for atom=    0.0000 (will be added to EATOM!!)
  PAW_PBE Se 06Sep2000                  :
 energy of atom  2       EATOM= -257.1286
 kinetic energy error for atom=    0.0006 (will be added to EATOM!!)
 
 
 POSCAR:  SnSe-Monolayer                         
  positions in direct lattice
  velocities in cartesian coordinates
 exchange correlation table for  LEXCH =        8
   RHO(1)=    0.500       N(1)  =     2000
   RHO(2)=  100.500       N(2)  =     4000
 


--------------------------------------------------------------------------------------------------------


 ion  position               nearest neighbor table
   1  0.581  0.750  0.569-   4 2.72   3 2.93   3 2.93   3 3.23   3 3.23
   2  0.081  0.250  0.431-   3 2.72   4 2.93   4 2.93   4 3.23   4 3.23
   3  0.033  0.250  0.567-   2 2.72   1 2.93   1 2.93   1 3.23   1 3.23
   4  0.533  0.750  0.433-   1 2.72   2 2.93   2 2.93   2 3.23   2 3.23
 
  LATTYP: Found a simple orthorhombic cell.
 ALAT       =     4.2924778572
 B/A-ratio  =     1.0270643326
 C/A-ratio  =     4.6593134934
  
  Lattice vectors:
  
 A1 = (   0.0000000000,  -4.2924778572,   0.0000000000)
 A2 = (  -4.4086509055,   0.0000000000,   0.0000000000)
 A3 = (   0.0000000000,   0.0000000000, -20.0000000000)


Analysis of symmetry for initial positions (statically):
=====================================================================
 Subroutine PRICEL returns:
 Original cell was already a primitive cell.
 

 Routine SETGRP: Setting up the symmetry group for a 
 simple orthorhombic supercell.


 Subroutine GETGRP returns: Found  4 space group operations
 (whereof  1 operations were pure point group operations)
 out of a pool of  8 trial point group operations.


The static configuration has the point symmetry C_1 .
 The point group associated with its full space group is C_2v.


Analysis of symmetry for dynamics (positions and initial velocities):
=====================================================================
 Subroutine PRICEL returns:
 Original cell was already a primitive cell.
 

 Routine SETGRP: Setting up the symmetry group for a 
 simple orthorhombic supercell.


 Subroutine GETGRP returns: Found  4 space group operations
 (whereof  1 operations were pure point group operations)
 out of a pool of  8 trial point group operations.


The dynamic configuration has the point symmetry C_1 .
 The point group associated with its full space group is C_2v.


 Subroutine INISYM returns: Found  4 space group operations
 (whereof  1 operations are pure point group operations),
 and found     1 'primitive' translations

 
 
 KPOINTS: Automatic                               

Automatic generation of k-mesh.
Space group operators:
 irot       det(A)        alpha          n_x          n_y          n_z        tau_x        tau_y        tau_z
    1     1.000000     0.000001     1.000000     0.000000     0.000000     0.000000     0.000000     0.000000
    2    -1.000000   179.999999     0.000000     0.000000     1.000000    -0.500000    -0.500000    -0.000000
    3     1.000000   180.000000     1.000000     0.000000     0.000000    -0.500000     0.000000    -0.000000
    4    -1.000000   179.999999     0.000000     1.000000     0.000000     0.000000    -0.500000     0.000000
 
 Subroutine IBZKPT returns following result:
 ===========================================
 
 Found     64 irreducible k-points:
 
 Following reciprocal coordinates:
            Coordinates               Weight
  0.000000  0.000000  0.000000      1.000000
  0.066667  0.000000  0.000000      2.000000
  0.133333  0.000000  0.000000      2.000000
  0.200000  0.000000  0.000000      2.000000
  0.266667  0.000000  0.000000      2.000000
  0.333333  0.000000  0.000000      2.000000
  0.400000  0.000000  0.000000      2.000000
  0.466667  0.000000  0.000000      2.000000
  0.000000  0.066667  0.000000      2.000000
  0.066667  0.066667  0.000000      4.000000
  0.133333  0.066667  0.000000      4.000000
  0.200000  0.066667  0.000000      4.000000
  0.266667  0.066667  0.000000      4.000000
  0.333333  0.066667  0.000000      4.000000
  0.400000  0.066667  0.000000      4.000000
  0.466667  0.066667  0.000000      4.000000
  0.000000  0.133333  0.000000      2.000000
  0.066667  0.133333  0.000000      4.000000
  0.133333  0.133333  0.000000      4.000000
  0.200000  0.133333  0.000000      4.000000
  0.266667  0.133333  0.000000      4.000000
  0.333333  0.133333  0.000000      4.000000
  0.400000  0.133333  0.000000      4.000000
  0.466667  0.133333  0.000000      4.000000
  0.000000  0.200000  0.000000      2.000000
  0.066667  0.200000  0.000000      4.000000
  0.133333  0.200000  0.000000      4.000000
  0.200000  0.200000  0.000000      4.000000
  0.266667  0.200000  0.000000      4.000000
  0.333333  0.200000  0.000000      4.000000
  0.400000  0.200000  0.000000      4.000000
  0.466667  0.200000  0.000000      4.000000
  0.000000  0.266667  0.000000      2.000000
  0.066667  0.266667  0.000000      4.000000
  0.133333  0.266667  0.000000      4.000000
  0.200000  0.266667  0.000000      4.000000
  0.266667  0.266667  0.000000      4.000000
  0.333333  0.266667  0.000000      4.000000
  0.400000  0.266667  0.000000      4.000000
  0.466667  0.266667  0.000000      4.000000
  0.000000  0.333333  0.000000      2.000000
  0.066667  0.333333  0.000000      4.000000
  0.133333  0.333333  0.000000      4.000000
  0.200000  0.333333  0.000000      4.000000
  0.266667  0.333333  0.000000      4.000000
  0.333333  0.333333  0.000000      4.000000
  0.400000  0.333333  0.000000      4.000000
  0.466667  0.333333  0.000000      4.000000
  0.000000  0.400000  0.000000      2.000000
  0.066667  0.400000  0.000000      4.000000
  0.133333  0.400000  0.000000      4.000000
  0.200000  0.400000  0.000000      4.000000
  0.266667  0.400000  0.000000      4.000000
  0.333333  0.400000  0.000000      4.000000
  0.400000  0.400000  0.000000      4.000000
  0.466667  0.400000  0.000000      4.000000
  0.000000  0.466667  0.000000      2.000000
  0.066667  0.466667  0.000000      4.000000
  0.133333  0.466667  0.000000      4.000000
  0.200000  0.466667  0.000000      4.000000
  0.266667  0.466667  0.000000      4.000000
  0.333333  0.466667  0.000000      4.000000
  0.400000  0.466667  0.000000      4.000000
  0.466667  0.466667  0.000000      4.000000
 
 Following cartesian coordinates:
            Coordinates               Weight
  0.000000  0.000000  0.000000      1.000000
  0.015122  0.000000  0.000000      2.000000
  0.030244  0.000000  0.000000      2.000000
  0.045365  0.000000  0.000000      2.000000
  0.060487  0.000000  0.000000      2.000000
  0.075609  0.000000  0.000000      2.000000
  0.090731  0.000000  0.000000      2.000000
  0.105852  0.000000  0.000000      2.000000
  0.000000  0.015531  0.000000      2.000000
  0.015122  0.015531  0.000000      4.000000
  0.030244  0.015531  0.000000      4.000000
  0.045365  0.015531  0.000000      4.000000
  0.060487  0.015531  0.000000      4.000000
  0.075609  0.015531  0.000000      4.000000
  0.090731  0.015531  0.000000      4.000000
  0.105852  0.015531  0.000000      4.000000
  0.000000  0.031062  0.000000      2.000000
  0.015122  0.031062  0.000000      4.000000
  0.030244  0.031062  0.000000      4.000000
  0.045365  0.031062  0.000000      4.000000
  0.060487  0.031062  0.000000      4.000000
  0.075609  0.031062  0.000000      4.000000
  0.090731  0.031062  0.000000      4.000000
  0.105852  0.031062  0.000000      4.000000
  0.000000  0.046593  0.000000      2.000000
  0.015122  0.046593  0.000000      4.000000
  0.030244  0.046593  0.000000      4.000000
  0.045365  0.046593  0.000000      4.000000
  0.060487  0.046593  0.000000      4.000000
  0.075609  0.046593  0.000000      4.000000
  0.090731  0.046593  0.000000      4.000000
  0.105852  0.046593  0.000000      4.000000
  0.000000  0.062124  0.000000      2.000000
  0.015122  0.062124  0.000000      4.000000
  0.030244  0.062124  0.000000      4.000000
  0.045365  0.062124  0.000000      4.000000
  0.060487  0.062124  0.000000      4.000000
  0.075609  0.062124  0.000000      4.000000
  0.090731  0.062124  0.000000      4.000000
  0.105852  0.062124  0.000000      4.000000
  0.000000  0.077655  0.000000      2.000000
  0.015122  0.077655  0.000000      4.000000
  0.030244  0.077655  0.000000      4.000000
  0.045365  0.077655  0.000000      4.000000
  0.060487  0.077655  0.000000      4.000000
  0.075609  0.077655  0.000000      4.000000
  0.090731  0.077655  0.000000      4.000000
  0.105852  0.077655  0.000000      4.000000
  0.000000  0.093186  0.000000      2.000000
  0.015122  0.093186  0.000000      4.000000
  0.030244  0.093186  0.000000      4.000000
  0.045365  0.093186  0.000000      4.000000
  0.060487  0.093186  0.000000      4.000000
  0.075609  0.093186  0.000000      4.000000
  0.090731  0.093186  0.000000      4.000000
  0.105852  0.093186  0.000000      4.000000
  0.000000  0.108717  0.000000      2.000000
  0.015122  0.108717  0.000000      4.000000
  0.030244  0.108717  0.000000      4.000000
  0.045365  0.108717  0.000000      4.000000
  0.060487  0.108717  0.000000      4.000000
  0.075609  0.108717  0.000000      4.000000
  0.090731  0.108717  0.000000      4.000000
  0.105852  0.108717  0.000000      4.000000
 


--------------------------------------------------------------------------------------------------------




 Dimension of arrays:
   k-points           NKPTS =     64   k-points in BZ     NKDIM =     64   number of bands    NBANDS=     14
   number of dos      NEDOS =    301   number of ions     NIONS =      4
   non local maximal  LDIM  =      5   non local SUM 2l+1 LMDIM =     13
   total plane-waves  NPLWV = 207360
   max r-space proj   IRMAX =      1   max aug-charges    IRDMAX=  52931
   dimension x,y,z NGX =    36 NGY =   36 NGZ =  160
   dimension x,y,z NGXF=    72 NGYF=   72 NGZF=  320
   support grid    NGXF=    72 NGYF=   72 NGZF=  320
   ions per type =               2   2
   NGX,Y,Z   is equivalent  to a cutoff of  13.58, 13.94, 13.30 a.u.
   NGXF,Y,Z  is equivalent  to a cutoff of  27.15, 27.89, 26.60 a.u.

 SYSTEM =  SnSe                                    
 POSCAR =   SnSe-Monolayer                         

 Startparameter for this run:
   NWRITE =      2    write-flag & timer
   PREC   = accura    normal or accurate (medium, high low for compatibility)
   ISTART =      0    job   : 0-new  1-cont  2-samecut
   ICHARG =      2    charge: 1-file 2-atom 10-const
   ISPIN  =      1    spin polarized calculation?
   LNONCOLLINEAR =      F non collinear calculations
   LSORBIT =      F    spin-orbit coupling
   INIWAV =      1    electr: 0-lowe 1-rand  2-diag
   LASPH  =      F    aspherical Exc in radial PAW
   METAGGA=      F    non-selfconsistent MetaGGA calc.

 Electronic Relaxation 1
   ENCUT  =  600.0 eV  44.10 Ry    6.64 a.u.   8.81  8.57 39.94*2*pi/ulx,y,z
   ENINI  =  600.0     initial cutoff
   ENAUG  =  446.8 eV  augmentation charge cutoff
   NELM   =     60;   NELMIN=  2; NELMDL= -5     # of ELM steps 
   EDIFF  = 0.1E-05   stopping-criterion for ELM
   LREAL  =      F    real-space projection
   NLSPLINE    = F    spline interpolate recip. space projectors
   LCOMPAT=      F    compatible to vasp.4.4
   GGA_COMPAT  = T    GGA compatible to vasp.4.4-vasp.4.6
   LMAXPAW     = -100 max onsite density
   LMAXMIX     =    2 max onsite mixed and CHGCAR
   VOSKOWN=      0    Vosko Wilk Nusair interpolation
   ROPT   =    0.00000   0.00000
 Ionic relaxation
   EDIFFG = -.1E-02   stopping-criterion for IOM
   NSW    =    100    number of steps for IOM
   NBLOCK =      1;   KBLOCK =    100    inner block; outer block 
   IBRION =      2    ionic relax: 0-MD 1-quasi-New 2-CG
   NFREE  =      1    steps in history (QN), initial steepest desc. (CG)
   ISIF   =      2    stress and relaxation
   IWAVPR =     11    prediction:  0-non 1-charg 2-wave 3-comb
   ISYM   =      2    0-nonsym 1-usesym 2-fastsym
   LCORR  =      T    Harris-Foulkes like correction to forces

   POTIM  = 0.5000    time-step for ionic-motion
   TEIN   =    0.0    initial temperature
   TEBEG  =    0.0;   TEEND  =   0.0 temperature during run
   SMASS  =  -3.00    Nose mass-parameter (am)
   estimated Nose-frequenzy (Omega)   =  0.10E-29 period in steps =****** mass=  -0.444E-27a.u.
   SCALEE = 1.0000    scale energy and forces
   NPACO  =    256;   APACO  = 16.0  distance and # of slots for P.C.
   PSTRESS=    0.0 pullay stress

  Mass of Ions in am
   POMASS = 118.71 78.96
  Ionic Valenz
   ZVAL   =   4.00  6.00
  Atomic Wigner-Seitz radii
   RWIGS  =  -1.00 -1.00
  virtual crystal weights 
   VCA    =   1.00  1.00
   NELECT =      20.0000    total number of electrons
   NUPDOWN=      -1.0000    fix difference up-down

 DOS related values:
   EMIN   =  10.00;   EMAX   =-10.00  energy-range for DOS
   EFERMI =   0.00
   ISMEAR =     0;   SIGMA  =   0.10  broadening in eV -4-tet -1-fermi 0-gaus

 Electronic relaxation 2 (details)
   IALGO  =     38    algorithm
   LDIAG  =      T    sub-space diagonalisation (order eigenvalues)
   LSUBROT=      F    optimize rotation matrix (better conditioning)
   TURBO    =      0    0=normal 1=particle mesh
   IRESTART =      0    0=no restart 2=restart with 2 vectors
   NREBOOT  =      0    no. of reboots
   NMIN     =      0    reboot dimension
   EREF     =   0.00    reference energy to select bands
   IMIX   =      4    mixing-type and parameters
     AMIX     =   0.40;   BMIX     =  1.00
     AMIX_MAG =   1.60;   BMIX_MAG =  1.00
     AMIN     =   0.10
     WC   =   100.;   INIMIX=   1;  MIXPRE=   1;  MAXMIX= -45

 Intra band minimization:
   WEIMIN = 0.0010     energy-eigenvalue tresh-hold
   EBREAK =  0.18E-07  absolut break condition
   DEPER  =   0.30     relativ break condition  

   TIME   =   0.40     timestep for ELM

  volume/ion in A,a.u.               =      94.62       638.53
  Fermi-wavevector in a.u.,A,eV,Ry     =   0.614333  1.160920  5.134901  0.377405
  Thomas-Fermi vector in A             =   1.671305
 
 Write flags
   LWAVE        =      T    write WAVECAR
   LDOWNSAMPLE  =      F    k-point downsampling of WAVECAR
   LCHARG       =      T    write CHGCAR
   LVTOT        =      F    write LOCPOT, total local potential
   LVHAR        =      F    write LOCPOT, Hartree potential only
   LELF         =      F    write electronic localiz. function (ELF)
   LORBIT       =      0    0 simple, 1 ext, 2 COOP (PROOUT), +10 PAW based schemes


 Dipole corrections
   LMONO  =      F    monopole corrections only (constant potential shift)
   LDIPOL =      F    correct potential (dipole corrections)
   IDIPOL =      0    1-x, 2-y, 3-z, 4-all directions 
   EPSILON=  1.0000000 bulk dielectric constant

 Exchange correlation treatment:
   GGA     =    PE    GGA type
   LEXCH   =     8    internal setting for exchange type
   VOSKOWN=      0    Vosko Wilk Nusair interpolation
   LHFCALC =     F    Hartree Fock is set to
   LHFONE  =     F    Hartree Fock one center treatment
   AEXX    =    0.0000 exact exchange contribution

 Linear response parameters
   LEPSILON=     F    determine dielectric tensor
   LRPA    =     F    only Hartree local field effects (RPA)
   LNABLA  =     F    use nabla operator in PAW spheres
   LVEL    =     F    velocity operator in full k-point grid
   LINTERFAST=   F  fast interpolation
   KINTER  =     0    interpolate to denser k-point grid
   CSHIFT  =0.1000    complex shift for real part using Kramers Kronig
   OMEGAMAX=  -1.0    maximum frequency
   DEG_THRESHOLD= 0.2000000E-02 threshold for treating states as degnerate
   RTIME   =   -0.100 relaxation time in fs
  (WPLASMAI=    0.000 imaginary part of plasma frequency in eV, 0.658/RTIME)
   DFIELD  = 0.0000000 0.0000000 0.0000000 field for delta impulse in time
 
 Orbital magnetization related:
   ORBITALMAG=     F  switch on orbital magnetization
   LCHIMAG   =     F  perturbation theory with respect to B field
   DQ        =  0.001000  dq finite difference perturbation B field
   LLRAUG    =     F  two centre corrections for induced B field



--------------------------------------------------------------------------------------------------------


 conjugate gradient relaxation of ions
 charge density and potential will be updated during run
 non-spin polarized calculation
 Variant of blocked Davidson
 Davidson routine will perform the subspace rotation
 perform sub-space diagonalisation
    after iterative eigenvector-optimisation
 modified Broyden-mixing scheme, WC =      100.0
 initial mixing is a Kerker type mixing with AMIX =  0.4000 and BMIX =      1.0000
 Hartree-type preconditioning will be used
 using additional bands            4
 reciprocal scheme for non local part
 use partial core corrections
 calculate Harris-corrections to forces 
   (improved forces if not selfconsistent)
 use gradient corrections 
 use of overlap-Matrix (Vanderbilt PP)
 Gauss-broadening in eV      SIGMA  =   0.10


--------------------------------------------------------------------------------------------------------


  energy-cutoff  :      600.00
  volume of cell :      378.48
      direct lattice vectors                 reciprocal lattice vectors
     4.408650906  0.000000000  0.000000000     0.226826760  0.000000000  0.000000000
     0.000000000  4.292477857  0.000000000     0.000000000  0.232965675  0.000000000
     0.000000000  0.000000000 20.000000000     0.000000000  0.000000000  0.050000000

  length of vectors
     4.408650906  4.292477857 20.000000000     0.226826760  0.232965675  0.050000000


 
 k-points in units of 2pi/SCALE and weight: Automatic                               
   0.00000000  0.00000000  0.00000000       0.004
   0.01512178  0.00000000  0.00000000       0.009
   0.03024357  0.00000000  0.00000000       0.009
   0.04536535  0.00000000  0.00000000       0.009
   0.06048714  0.00000000  0.00000000       0.009
   0.07560892  0.00000000  0.00000000       0.009
   0.09073070  0.00000000  0.00000000       0.009
   0.10585249  0.00000000  0.00000000       0.009
   0.00000000  0.01553104  0.00000000       0.009
   0.01512178  0.01553104  0.00000000       0.018
   0.03024357  0.01553104  0.00000000       0.018
   0.04536535  0.01553104  0.00000000       0.018
   0.06048714  0.01553104  0.00000000       0.018
   0.07560892  0.01553104  0.00000000       0.018
   0.09073070  0.01553104  0.00000000       0.018
   0.10585249  0.01553104  0.00000000       0.018
   0.00000000  0.03106209  0.00000000       0.009
   0.01512178  0.03106209  0.00000000       0.018
   0.03024357  0.03106209  0.00000000       0.018
   0.04536535  0.03106209  0.00000000       0.018
   0.06048714  0.03106209  0.00000000       0.018
   0.07560892  0.03106209  0.00000000       0.018
   0.09073070  0.03106209  0.00000000       0.018
   0.10585249  0.03106209  0.00000000       0.018
   0.00000000  0.04659313  0.00000000       0.009
   0.01512178  0.04659313  0.00000000       0.018
   0.03024357  0.04659313  0.00000000       0.018
   0.04536535  0.04659313  0.00000000       0.018
   0.06048714  0.04659313  0.00000000       0.018
   0.07560892  0.04659313  0.00000000       0.018
   0.09073070  0.04659313  0.00000000       0.018
   0.10585249  0.04659313  0.00000000       0.018
   0.00000000  0.06212418  0.00000000       0.009
   0.01512178  0.06212418  0.00000000       0.018
   0.03024357  0.06212418  0.00000000       0.018
   0.04536535  0.06212418  0.00000000       0.018
   0.06048714  0.06212418  0.00000000       0.018
   0.07560892  0.06212418  0.00000000       0.018
   0.09073070  0.06212418  0.00000000       0.018
   0.10585249  0.06212418  0.00000000       0.018
   0.00000000  0.07765522  0.00000000       0.009
   0.01512178  0.07765522  0.00000000       0.018
   0.03024357  0.07765522  0.00000000       0.018
   0.04536535  0.07765522  0.00000000       0.018
   0.06048714  0.07765522  0.00000000       0.018
   0.07560892  0.07765522  0.00000000       0.018
   0.09073070  0.07765522  0.00000000       0.018
   0.10585249  0.07765522  0.00000000       0.018
   0.00000000  0.09318627  0.00000000       0.009
   0.01512178  0.09318627  0.00000000       0.018
   0.03024357  0.09318627  0.00000000       0.018
   0.04536535  0.09318627  0.00000000       0.018
   0.06048714  0.09318627  0.00000000       0.018
   0.07560892  0.09318627  0.00000000       0.018
   0.09073070  0.09318627  0.00000000       0.018
   0.10585249  0.09318627  0.00000000       0.018
   0.00000000  0.10871731  0.00000000       0.009
   0.01512178  0.10871731  0.00000000       0.018
   0.03024357  0.10871731  0.00000000       0.018
   0.04536535  0.10871731  0.00000000       0.018
   0.06048714  0.10871731  0.00000000       0.018
   0.07560892  0.10871731  0.00000000       0.018
   0.09073070  0.10871731  0.00000000       0.018
   0.10585249  0.10871731  0.00000000       0.018
 
 k-points in reciprocal lattice and weights: Automatic                               
   0.00000000  0.00000000  0.00000000       0.004
   0.06666667  0.00000000  0.00000000       0.009
   0.13333333  0.00000000  0.00000000       0.009
   0.20000000  0.00000000  0.00000000       0.009
   0.26666667  0.00000000  0.00000000       0.009
   0.33333333  0.00000000  0.00000000       0.009
   0.40000000  0.00000000  0.00000000       0.009
   0.46666667  0.00000000  0.00000000       0.009
   0.00000000  0.06666667  0.00000000       0.009
   0.06666667  0.06666667  0.00000000       0.018
   0.13333333  0.06666667  0.00000000       0.018
   0.20000000  0.06666667  0.00000000       0.018
   0.26666667  0.06666667  0.00000000       0.018
   0.33333333  0.06666667  0.00000000       0.018
   0.40000000  0.06666667  0.00000000       0.018
   0.46666667  0.06666667  0.00000000       0.018
   0.00000000  0.13333333  0.00000000       0.009
   0.06666667  0.13333333  0.00000000       0.018
   0.13333333  0.13333333  0.00000000       0.018
   0.20000000  0.13333333  0.00000000       0.018
   0.26666667  0.13333333  0.00000000       0.018
   0.33333333  0.13333333  0.00000000       0.018
   0.40000000  0.13333333  0.00000000       0.018
   0.46666667  0.13333333  0.00000000       0.018
   0.00000000  0.20000000  0.00000000       0.009
   0.06666667  0.20000000  0.00000000       0.018
   0.13333333  0.20000000  0.00000000       0.018
   0.20000000  0.20000000  0.00000000       0.018
   0.26666667  0.20000000  0.00000000       0.018
   0.33333333  0.20000000  0.00000000       0.018
   0.40000000  0.20000000  0.00000000       0.018
   0.46666667  0.20000000  0.00000000       0.018
   0.00000000  0.26666667  0.00000000       0.009
   0.06666667  0.26666667  0.00000000       0.018
   0.13333333  0.26666667  0.00000000       0.018
   0.20000000  0.26666667  0.00000000       0.018
   0.26666667  0.26666667  0.00000000       0.018
   0.33333333  0.26666667  0.00000000       0.018
   0.40000000  0.26666667  0.00000000       0.018
   0.46666667  0.26666667  0.00000000       0.018
   0.00000000  0.33333333  0.00000000       0.009
   0.06666667  0.33333333  0.00000000       0.018
   0.13333333  0.33333333  0.00000000       0.018
   0.20000000  0.33333333  0.00000000       0.018
   0.26666667  0.33333333  0.00000000       0.018
   0.33333333  0.33333333  0.00000000       0.018
   0.40000000  0.33333333  0.00000000       0.018
   0.46666667  0.33333333  0.00000000       0.018
   0.00000000  0.40000000  0.00000000       0.009
   0.06666667  0.40000000  0.00000000       0.018
   0.13333333  0.40000000  0.00000000       0.018
   0.20000000  0.40000000  0.00000000       0.018
   0.26666667  0.40000000  0.00000000       0.018
   0.33333333  0.40000000  0.00000000       0.018
   0.40000000  0.40000000  0.00000000       0.018
   0.46666667  0.40000000  0.00000000       0.018
   0.00000000  0.46666667  0.00000000       0.009
   0.06666667  0.46666667  0.00000000       0.018
   0.13333333  0.46666667  0.00000000       0.018
   0.20000000  0.46666667  0.00000000       0.018
   0.26666667  0.46666667  0.00000000       0.018
   0.33333333  0.46666667  0.00000000       0.018
   0.40000000  0.46666667  0.00000000       0.018
   0.46666667  0.46666667  0.00000000       0.018
 
 position of ions in fractional coordinates (direct lattice) 
   0.58124336  0.75000000  0.56874314
   0.08124336  0.25000000  0.43125686
   0.03286064  0.25000000  0.56707387
   0.53286061  0.75000000  0.43292613
 
 position of ions in cartesian coordinates  (Angst):
   2.56249906  3.21935839 11.37486283
   0.35817360  1.07311946  8.62513717
   0.14487110  1.07311946 11.34147733
   2.34919643  3.21935839  8.65852267
 


--------------------------------------------------------------------------------------------------------


 k-point  1 :   0.0000 0.0000 0.0000  plane waves:   12703
 k-point  2 :   0.0667 0.0000 0.0000  plane waves:   12675
 k-point  3 :   0.1333 0.0000 0.0000  plane waves:   12667
 k-point  4 :   0.2000 0.0000 0.0000  plane waves:   12628
 k-point  5 :   0.2667 0.0000 0.0000  plane waves:   12616
 k-point  6 :   0.3333 0.0000 0.0000  plane waves:   12658
 k-point  7 :   0.4000 0.0000 0.0000  plane waves:   12672
 k-point  8 :   0.4667 0.0000 0.0000  plane waves:   12664
 k-point  9 :   0.0000 0.0667 0.0000  plane waves:   12645
 k-point 10 :   0.0667 0.0667 0.0000  plane waves:   12661
 k-point 11 :   0.1333 0.0667 0.0000  plane waves:   12654
 k-point 12 :   0.2000 0.0667 0.0000  plane waves:   12627
 k-point 13 :   0.2667 0.0667 0.0000  plane waves:   12649
 k-point 14 :   0.3333 0.0667 0.0000  plane waves:   12660
 k-point 15 :   0.4000 0.0667 0.0000  plane waves:   12648
 k-point 16 :   0.4667 0.0667 0.0000  plane waves:   12668
 k-point 17 :   0.0000 0.1333 0.0000  plane waves:   12643
 k-point 18 :   0.0667 0.1333 0.0000  plane waves:   12638
 k-point 19 :   0.1333 0.1333 0.0000  plane waves:   12623
 k-point 20 :   0.2000 0.1333 0.0000  plane waves:   12613
 k-point 21 :   0.2667 0.1333 0.0000  plane waves:   12638
 k-point 22 :   0.3333 0.1333 0.0000  plane waves:   12638
 k-point 23 :   0.4000 0.1333 0.0000  plane waves:   12656
 k-point 24 :   0.4667 0.1333 0.0000  plane waves:   12652
 k-point 25 :   0.0000 0.2000 0.0000  plane waves:   12639
 k-point 26 :   0.0667 0.2000 0.0000  plane waves:   12628
 k-point 27 :   0.1333 0.2000 0.0000  plane waves:   12620
 k-point 28 :   0.2000 0.2000 0.0000  plane waves:   12642
 k-point 29 :   0.2667 0.2000 0.0000  plane waves:   12636
 k-point 30 :   0.3333 0.2000 0.0000  plane waves:   12622
 k-point 31 :   0.4000 0.2000 0.0000  plane waves:   12653
 k-point 32 :   0.4667 0.2000 0.0000  plane waves:   12662
 k-point 33 :   0.0000 0.2667 0.0000  plane waves:   12611
 k-point 34 :   0.0667 0.2667 0.0000  plane waves:   12613
 k-point 35 :   0.1333 0.2667 0.0000  plane waves:   12612
 k-point 36 :   0.2000 0.2667 0.0000  plane waves:   12633
 k-point 37 :   0.2667 0.2667 0.0000  plane waves:   12632
 k-point 38 :   0.3333 0.2667 0.0000  plane waves:   12629
 k-point 39 :   0.4000 0.2667 0.0000  plane waves:   12635
 k-point 40 :   0.4667 0.2667 0.0000  plane waves:   12651
 k-point 41 :   0.0000 0.3333 0.0000  plane waves:   12599
 k-point 42 :   0.0667 0.3333 0.0000  plane waves:   12608
 k-point 43 :   0.1333 0.3333 0.0000  plane waves:   12607
 k-point 44 :   0.2000 0.3333 0.0000  plane waves:   12629
 k-point 45 :   0.2667 0.3333 0.0000  plane waves:   12625
 k-point 46 :   0.3333 0.3333 0.0000  plane waves:   12626
 k-point 47 :   0.4000 0.3333 0.0000  plane waves:   12632
 k-point 48 :   0.4667 0.3333 0.0000  plane waves:   12641
 k-point 49 :   0.0000 0.4000 0.0000  plane waves:   12581
 k-point 50 :   0.0667 0.4000 0.0000  plane waves:   12596
 k-point 51 :   0.1333 0.4000 0.0000  plane waves:   12600
 k-point 52 :   0.2000 0.4000 0.0000  plane waves:   12606
 k-point 53 :   0.2667 0.4000 0.0000  plane waves:   12629
 k-point 54 :   0.3333 0.4000 0.0000  plane waves:   12623
 k-point 55 :   0.4000 0.4000 0.0000  plane waves:   12624
 k-point 56 :   0.4667 0.4000 0.0000  plane waves:   12622
 k-point 57 :   0.0000 0.4667 0.0000  plane waves:   12610
 k-point 58 :   0.0667 0.4667 0.0000  plane waves:   12592
 k-point 59 :   0.1333 0.4667 0.0000  plane waves:   12598
 k-point 60 :   0.2000 0.4667 0.0000  plane waves:   12597
 k-point 61 :   0.2667 0.4667 0.0000  plane waves:   12598
 k-point 62 :   0.3333 0.4667 0.0000  plane waves:   12610
 k-point 63 :   0.4000 0.4667 0.0000  plane waves:   12612
 k-point 64 :   0.4667 0.4667 0.0000  plane waves:   12610

 maximum and minimum number of plane-waves per node :       562      496

 maximum number of plane-waves:     12703
 maximum index in each direction: 
   IXMAX=    8   IYMAX=    8   IZMAX=   39
   IXMIN=   -9   IYMIN=   -9   IZMIN=  -39


 parallel 3D FFT for wavefunctions:
    minimum data exchange during FFTs selected (reduces bandwidth)
 parallel 3D FFT for charge:
    minimum data exchange during FFTs selected (reduces bandwidth)


 total amount of memory used by VASP MPI-rank0    52130. kBytes
=======================================================================

   base      :      30000. kBytes
   nonl-proj :       7196. kBytes
   fftplans  :       2678. kBytes
   grid      :       4349. kBytes
   one-center:          8. kBytes
   wavefun   :       7899. kBytes
 
     INWAV:  cpu time    0.0000: real time    0.0000
 Broyden mixing: mesh for mixing (old mesh)
   NGX = 17   NGY = 17   NGZ = 79
  (NGX  = 72   NGY  = 72   NGZ  =320)
  gives a total of  22831 points

 initial charge density was supplied:
 charge density of overlapping atoms calculated
 number of electron      20.0000000 magnetization 
 keeping initial charge density in first step


--------------------------------------------------------------------------------------------------------


 Maximum index for augmentation-charges         2204 (set IRDMAX)


--------------------------------------------------------------------------------------------------------


 First call to EWALD:  gamma=   0.245
 Maximum number of real-space cells 4x 4x 1
 Maximum number of reciprocal cells 2x 2x 7

    FEWALD:  cpu time    0.0018: real time    0.0018


--------------------------------------- Iteration      1(   1)  ---------------------------------------


    POTLOK:  cpu time    0.0528: real time    0.6504
    SETDIJ:  cpu time    0.0043: real time    0.0053
     EDDAV:  cpu time    1.2611: real time    1.2652
       DOS:  cpu time    0.0027: real time    0.0027
    --------------------------------------------
      LOOP:  cpu time    1.3209: real time    1.9236

 eigenvalue-minimisations  :  1792
 total energy-change (2. order) : 0.1442701E+03  (-0.6269248E+03)
 number of electron      20.0000000 magnetization 
 augmentation part       20.0000000 magnetization 

 Free energy of the ion-electron system (eV)
  ---------------------------------------------------
  alpha Z        PSCENC =         9.44753235
  Ewald energy   TEWEN  =      1143.14291076
  -Hartree energ DENC   =     -1744.91494201
  -exchange      EXHF   =         0.00000000
  -V(xc)+E(xc)   XCENC  =      -238.62834745
  PAW double counting   =       799.43158084     -524.17639913
  entropy T*S    EENTRO =        -0.01160506
  eigenvalues    EBANDS =        -2.44854530
  atomic energy  EATOM  =       702.42789710
  Solvation  Ediel_sol  =         0.00000000
  ---------------------------------------------------
  free energy    TOTEN  =       144.27008210 eV

  energy without entropy =      144.28168716  energy(sigma->0) =      144.27588463


--------------------------------------------------------------------------------------------------------




--------------------------------------- Iteration      1(   2)  ---------------------------------------


     EDDAV:  cpu time    1.7925: real time    1.7950
       DOS:  cpu time    0.0027: real time    0.0027
    --------------------------------------------
      LOOP:  cpu time    1.7952: real time    1.7978

 eigenvalue-minimisations  :  2924
 total energy-change (2. order) :-0.1389910E+03  (-0.1338496E+03)
 number of electron      20.0000000 magnetization 
 augmentation part       20.0000000 magnetization 

 Free energy of the ion-electron system (eV)
  ---------------------------------------------------
  alpha Z        PSCENC =         9.44753235
  Ewald energy   TEWEN  =      1143.14291076
  -Hartree energ DENC   =     -1744.91494201
  -exchange      EXHF   =         0.00000000
  -V(xc)+E(xc)   XCENC  =      -238.62834745
  PAW double counting   =       799.43158084     -524.17639913
  entropy T*S    EENTRO =        -0.00252845
  eigenvalues    EBANDS =      -141.44864841
  atomic energy  EATOM  =       702.42789710
  Solvation  Ediel_sol  =         0.00000000
  ---------------------------------------------------
  free energy    TOTEN  =         5.27905560 eV

  energy without entropy =        5.28158405  energy(sigma->0) =        5.28031983


--------------------------------------------------------------------------------------------------------




--------------------------------------- Iteration      1(   3)  ---------------------------------------


     EDDAV:  cpu time    1.4235: real time    1.4257
       DOS:  cpu time    0.0018: real time    0.0018
    --------------------------------------------
      LOOP:  cpu time    1.4254: real time    1.4275

 eigenvalue-minimisations  :  2266
 total energy-change (2. order) :-0.2122110E+02  (-0.2094067E+02)
 number of electron      20.0000000 magnetization 
 augmentation part       20.0000000 magnetization 

 Free energy of the ion-electron system (eV)
  ---------------------------------------------------
  alpha Z        PSCENC =         9.44753235
  Ewald energy   TEWEN  =      1143.14291076
  -Hartree energ DENC   =     -1744.91494201
  -exchange      EXHF   =         0.00000000
  -V(xc)+E(xc)   XCENC  =      -238.62834745
  PAW double counting   =       799.43158084     -524.17639913
  entropy T*S    EENTRO =        -0.00000000
  eigenvalues    EBANDS =      -162.67227517
  atomic energy  EATOM  =       702.42789710
  Solvation  Ediel_sol  =         0.00000000
  ---------------------------------------------------
  free energy    TOTEN  =       -15.94204271 eV

  energy without entropy =      -15.94204271  energy(sigma->0) =      -15.94204271


--------------------------------------------------------------------------------------------------------




--------------------------------------- Iteration      1(   4)  ---------------------------------------


     EDDAV:  cpu time    1.5894: real time    1.5916
       DOS:  cpu time    0.0018: real time    0.0018
    --------------------------------------------
      LOOP:  cpu time    1.5913: real time    1.5934

 eigenvalue-minimisations  :  2566
 total energy-change (2. order) :-0.8417775E+00  (-0.8391217E+00)
 number of electron      20.0000000 magnetization 
 augmentation part       20.0000000 magnetization 

 Free energy of the ion-electron system (eV)
  ---------------------------------------------------
  alpha Z        PSCENC =         9.44753235
  Ewald energy   TEWEN  =      1143.14291076
  -Hartree energ DENC   =     -1744.91494201
  -exchange      EXHF   =         0.00000000
  -V(xc)+E(xc)   XCENC  =      -238.62834745
  PAW double counting   =       799.43158084     -524.17639913
  entropy T*S    EENTRO =        -0.00000000
  eigenvalues    EBANDS =      -163.51405262
  atomic energy  EATOM  =       702.42789710
  Solvation  Ediel_sol  =         0.00000000
  ---------------------------------------------------
  free energy    TOTEN  =       -16.78382016 eV

  energy without entropy =      -16.78382016  energy(sigma->0) =      -16.78382016


--------------------------------------------------------------------------------------------------------




--------------------------------------- Iteration      1(   5)  ---------------------------------------


     EDDAV:  cpu time    1.5312: real time    1.5333
       DOS:  cpu time    0.0019: real time    0.0019
    CHARGE:  cpu time    0.1201: real time    0.1203
    MIXING:  cpu time    0.0017: real time    0.0017
    --------------------------------------------
      LOOP:  cpu time    1.6549: real time    1.6572

 eigenvalue-minimisations  :  2390
 total energy-change (2. order) :-0.1788468E-01  (-0.1786829E-01)
 number of electron      20.0000001 magnetization 
 augmentation part       -4.5214488 magnetization 

 Broyden mixing:
  rms(total) = 0.44873E+00    rms(broyden)= 0.44873E+00
  rms(prec ) = 0.49016E+00
  weight for this iteration     100.00

 Free energy of the ion-electron system (eV)
  ---------------------------------------------------
  alpha Z        PSCENC =         9.44753235
  Ewald energy   TEWEN  =      1143.14291076
  -Hartree energ DENC   =     -1744.91494201
  -exchange      EXHF   =         0.00000000
  -V(xc)+E(xc)   XCENC  =      -238.62834745
  PAW double counting   =       799.43158084     -524.17639913
  entropy T*S    EENTRO =        -0.00000000
  eigenvalues    EBANDS =      -163.53193730
  atomic energy  EATOM  =       702.42789710
  Solvation  Ediel_sol  =         0.00000000
  ---------------------------------------------------
  free energy    TOTEN  =       -16.80170484 eV

  energy without entropy =      -16.80170484  energy(sigma->0) =      -16.80170484


--------------------------------------------------------------------------------------------------------




--------------------------------------- Iteration      1(   6)  ---------------------------------------


    POTLOK:  cpu time    0.0347: real time    0.0348
    SETDIJ:  cpu time    0.0031: real time    0.0040
     EDDAV:  cpu time    1.4181: real time    1.4201
       DOS:  cpu time    0.0020: real time    0.0020
    CHARGE:  cpu time    0.1185: real time    0.1186
    MIXING:  cpu time    0.0014: real time    0.0015
    --------------------------------------------
      LOOP:  cpu time    1.5778: real time    1.5810

 eigenvalue-minimisations  :  2216
 total energy-change (2. order) : 0.4981876E+00  (-0.1283492E+00)
 number of electron      20.0000001 magnetization 
 augmentation part       -4.4886157 magnetization 

 Broyden mixing:
  rms(total) = 0.27474E+00    rms(broyden)= 0.27474E+00
  rms(prec ) = 0.28393E+00
  weight for this iteration     100.00

 eigenvalues of (default mixing * dielectric matrix)
  average eigenvalue GAMMA=   1.7740
  1.7740

 Free energy of the ion-electron system (eV)
  ---------------------------------------------------
  alpha Z        PSCENC =         9.44753235
  Ewald energy   TEWEN  =      1143.14291076
  -Hartree energ DENC   =     -1752.82378220
  -exchange      EXHF   =         0.00000000
  -V(xc)+E(xc)   XCENC  =      -238.14338996
  PAW double counting   =       922.70131053     -647.62486458
  entropy T*S    EENTRO =        -0.00000000
  eigenvalues    EBANDS =      -155.43113118
  atomic energy  EATOM  =       702.42789710
  Solvation  Ediel_sol  =         0.00000000
  ---------------------------------------------------
  free energy    TOTEN  =       -16.30351720 eV

  energy without entropy =      -16.30351720  energy(sigma->0) =      -16.30351720


--------------------------------------------------------------------------------------------------------




--------------------------------------- Iteration      1(   7)  ---------------------------------------


    POTLOK:  cpu time    0.0345: real time    0.0346
    SETDIJ:  cpu time    0.0035: real time    0.0035
     EDDAV:  cpu time    1.4928: real time    1.4950
       DOS:  cpu time    0.0019: real time    0.0019
    CHARGE:  cpu time    0.1181: real time    0.1183
    MIXING:  cpu time    0.0010: real time    0.0011
    --------------------------------------------
      LOOP:  cpu time    1.6519: real time    1.6544

 eigenvalue-minimisations  :  2374
 total energy-change (2. order) : 0.2667036E-01  (-0.3073463E-01)
 number of electron      20.0000001 magnetization 
 augmentation part       -4.4808851 magnetization 

 Broyden mixing:
  rms(total) = 0.10592E+00    rms(broyden)= 0.10592E+00
  rms(prec ) = 0.11129E+00
  weight for this iteration     100.00

 eigenvalues of (default mixing * dielectric matrix)
  average eigenvalue GAMMA=   1.7277
  1.3632  2.0921

 Free energy of the ion-electron system (eV)
  ---------------------------------------------------
  alpha Z        PSCENC =         9.44753235
  Ewald energy   TEWEN  =      1143.14291076
  -Hartree energ DENC   =     -1757.72757126
  -exchange      EXHF   =         0.00000000
  -V(xc)+E(xc)   XCENC  =      -237.82552283
  PAW double counting   =      1060.21578876     -785.27236716
  entropy T*S    EENTRO =        -0.00000000
  eigenvalues    EBANDS =      -150.68551456
  atomic energy  EATOM  =       702.42789710
  Solvation  Ediel_sol  =         0.00000000
  ---------------------------------------------------
  free energy    TOTEN  =       -16.27684684 eV

  energy without entropy =      -16.27684684  energy(sigma->0) =      -16.27684684


--------------------------------------------------------------------------------------------------------




--------------------------------------- Iteration      1(   8)  ---------------------------------------


    POTLOK:  cpu time    0.0346: real time    0.0347
    SETDIJ:  cpu time    0.0030: real time    0.0030
     EDDAV:  cpu time    1.5702: real time    1.5725
       DOS:  cpu time    0.0019: real time    0.0019
    CHARGE:  cpu time    0.1186: real time    0.1187
    MIXING:  cpu time    0.0011: real time    0.0011
    --------------------------------------------
      LOOP:  cpu time    1.7294: real time    1.7319

 eigenvalue-minimisations  :  2560
 total energy-change (2. order) : 0.9405665E-02  (-0.3697807E-02)
 number of electron      20.0000001 magnetization 
 augmentation part       -4.4851192 magnetization 

 Broyden mixing:
  rms(total) = 0.20208E-01    rms(broyden)= 0.20208E-01
  rms(prec ) = 0.27660E-01
  weight for this iteration     100.00

 eigenvalues of (default mixing * dielectric matrix)
  average eigenvalue GAMMA=   1.6968
  2.5173  1.2866  1.2866

 Free energy of the ion-electron system (eV)
  ---------------------------------------------------
  alpha Z        PSCENC =         9.44753235
  Ewald energy   TEWEN  =      1143.14291076
  -Hartree energ DENC   =     -1759.46603519
  -exchange      EXHF   =         0.00000000
  -V(xc)+E(xc)   XCENC  =      -237.74343741
  PAW double counting   =      1126.98651952     -852.08181828
  entropy T*S    EENTRO =        -0.00000000
  eigenvalues    EBANDS =      -148.98101002
  atomic energy  EATOM  =       702.42789710
  Solvation  Ediel_sol  =         0.00000000
  ---------------------------------------------------
  free energy    TOTEN  =       -16.26744117 eV

  energy without entropy =      -16.26744117  energy(sigma->0) =      -16.26744117


--------------------------------------------------------------------------------------------------------




--------------------------------------- Iteration      1(   9)  ---------------------------------------


    POTLOK:  cpu time    0.0345: real time    0.0347
    SETDIJ:  cpu time    0.0029: real time    0.0029
     EDDAV:  cpu time    1.5530: real time    1.5550
       DOS:  cpu time    0.0019: real time    0.0019
    CHARGE:  cpu time    0.1197: real time    0.1203
    MIXING:  cpu time    0.0011: real time    0.0011
    --------------------------------------------
      LOOP:  cpu time    1.7131: real time    1.7159

 eigenvalue-minimisations  :  2446
 total energy-change (2. order) : 0.3671456E-02  (-0.6429872E-03)
 number of electron      20.0000001 magnetization 
 augmentation part       -4.4832819 magnetization 

 Broyden mixing:
  rms(total) = 0.10003E-01    rms(broyden)= 0.10003E-01
  rms(prec ) = 0.15605E-01
  weight for this iteration     100.00

 eigenvalues of (default mixing * dielectric matrix)
  average eigenvalue GAMMA=   1.7098
  2.2313  2.2313  1.1884  1.1884

 Free energy of the ion-electron system (eV)
  ---------------------------------------------------
  alpha Z        PSCENC =         9.44753235
  Ewald energy   TEWEN  =      1143.14291076
  -Hartree energ DENC   =     -1761.40934776
  -exchange      EXHF   =         0.00000000
  -V(xc)+E(xc)   XCENC  =      -237.67147255
  PAW double counting   =      1144.45443328     -869.56104714
  entropy T*S    EENTRO =        -0.00000000
  eigenvalues    EBANDS =      -147.09467575
  atomic energy  EATOM  =       702.42789710
  Solvation  Ediel_sol  =         0.00000000
  ---------------------------------------------------
  free energy    TOTEN  =       -16.26376971 eV

  energy without entropy =      -16.26376971  energy(sigma->0) =      -16.26376971


--------------------------------------------------------------------------------------------------------




--------------------------------------- Iteration      1(  10)  ---------------------------------------


    POTLOK:  cpu time    0.0351: real time    0.0352
    SETDIJ:  cpu time    0.0030: real time    0.0030
     EDDAV:  cpu time    1.5182: real time    1.5204
       DOS:  cpu time    0.0020: real time    0.0020
    CHARGE:  cpu time    0.1188: real time    0.1190
    MIXING:  cpu time    0.0011: real time    0.0011
    --------------------------------------------
      LOOP:  cpu time    1.6783: real time    1.6806

 eigenvalue-minimisations  :  2452
 total energy-change (2. order) : 0.1303195E-02  (-0.1216055E-03)
 number of electron      20.0000001 magnetization 
 augmentation part       -4.4819904 magnetization 

 Broyden mixing:
  rms(total) = 0.50354E-02    rms(broyden)= 0.50354E-02
  rms(prec ) = 0.93159E-02
  weight for this iteration     100.00

 eigenvalues of (default mixing * dielectric matrix)
  average eigenvalue GAMMA=   1.8563
  3.3203  2.5919  1.2310  1.2310  0.9075

 Free energy of the ion-electron system (eV)
  ---------------------------------------------------
  alpha Z        PSCENC =         9.44753235
  Ewald energy   TEWEN  =      1143.14291076
  -Hartree energ DENC   =     -1762.69316327
  -exchange      EXHF   =         0.00000000
  -V(xc)+E(xc)   XCENC  =      -237.65935688
  PAW double counting   =      1134.39077495     -859.48769364
  entropy T*S    EENTRO =        -0.00000000
  eigenvalues    EBANDS =      -145.83136790
  atomic energy  EATOM  =       702.42789710
  Solvation  Ediel_sol  =         0.00000000
  ---------------------------------------------------
  free energy    TOTEN  =       -16.26246652 eV

  energy without entropy =      -16.26246652  energy(sigma->0) =      -16.26246652


--------------------------------------------------------------------------------------------------------




--------------------------------------- Iteration      1(  11)  ---------------------------------------


    POTLOK:  cpu time    0.0351: real time    0.0352
    SETDIJ:  cpu time    0.0030: real time    0.0031
     EDDAV:  cpu time    1.5116: real time    1.5137
       DOS:  cpu time    0.0020: real time    0.0020
    CHARGE:  cpu time    0.1180: real time    0.1182
    MIXING:  cpu time    0.0012: real time    0.0012
    --------------------------------------------
      LOOP:  cpu time    1.6709: real time    1.6732

 eigenvalue-minimisations  :  2428
 total energy-change (2. order) : 0.7308045E-03  (-0.1223530E-03)
 number of electron      20.0000001 magnetization 
 augmentation part       -4.4806371 magnetization 

 Broyden mixing:
  rms(total) = 0.32022E-02    rms(broyden)= 0.32022E-02
  rms(prec ) = 0.49705E-02
  weight for this iteration     100.00

 eigenvalues of (default mixing * dielectric matrix)
  average eigenvalue GAMMA=   1.8314
  3.3932  2.3528  1.9776  1.1886  1.1886  0.8872

 Free energy of the ion-electron system (eV)
  ---------------------------------------------------
  alpha Z        PSCENC =         9.44753235
  Ewald energy   TEWEN  =      1143.14291076
  -Hartree energ DENC   =     -1764.26810258
  -exchange      EXHF   =         0.00000000
  -V(xc)+E(xc)   XCENC  =      -237.62836142
  PAW double counting   =      1135.76442321     -860.86024964
  entropy T*S    EENTRO =        -0.00000000
  eigenvalues    EBANDS =      -144.28778549
  atomic energy  EATOM  =       702.42789710
  Solvation  Ediel_sol  =         0.00000000
  ---------------------------------------------------
  free energy    TOTEN  =       -16.26173572 eV

  energy without entropy =      -16.26173572  energy(sigma->0) =      -16.26173572


--------------------------------------------------------------------------------------------------------




--------------------------------------- Iteration      1(  12)  ---------------------------------------


    POTLOK:  cpu time    0.0351: real time    0.0353
    SETDIJ:  cpu time    0.0030: real time    0.0030
     EDDAV:  cpu time    1.3256: real time    1.3293
       DOS:  cpu time    0.0020: real time    0.0021
    CHARGE:  cpu time    0.1190: real time    0.1194
    MIXING:  cpu time    0.0012: real time    0.0012
    --------------------------------------------
      LOOP:  cpu time    1.4861: real time    1.4902

 eigenvalue-minimisations  :  2032
 total energy-change (2. order) :-0.8176867E-03  (-0.2769508E-04)
 number of electron      20.0000001 magnetization 
 augmentation part       -4.4800069 magnetization 

 Broyden mixing:
  rms(total) = 0.17358E-02    rms(broyden)= 0.17358E-02
  rms(prec ) = 0.27325E-02
  weight for this iteration     100.00

 eigenvalues of (default mixing * dielectric matrix)
  average eigenvalue GAMMA=   2.0627
  4.6026  3.0651  2.4990  1.1995  1.1995  1.0242  0.8487

 Free energy of the ion-electron system (eV)
  ---------------------------------------------------
  alpha Z        PSCENC =         9.44753235
  Ewald energy   TEWEN  =      1143.14291076
  -Hartree energ DENC   =     -1764.91936744
  -exchange      EXHF   =         0.00000000
  -V(xc)+E(xc)   XCENC  =      -237.61880343
  PAW double counting   =      1137.38136189     -862.47958353
  entropy T*S    EENTRO =        -0.00000000
  eigenvalues    EBANDS =      -143.64450110
  atomic energy  EATOM  =       702.42789710
  Solvation  Ediel_sol  =         0.00000000
  ---------------------------------------------------
  free energy    TOTEN  =       -16.26255340 eV

  energy without entropy =      -16.26255340  energy(sigma->0) =      -16.26255340


--------------------------------------------------------------------------------------------------------




--------------------------------------- Iteration      1(  13)  ---------------------------------------


    POTLOK:  cpu time    0.0353: real time    0.0356
    SETDIJ:  cpu time    0.0029: real time    0.0030
     EDDAV:  cpu time    1.3785: real time    1.3840
       DOS:  cpu time    0.0020: real time    0.0020
    CHARGE:  cpu time    0.1200: real time    0.1201
    MIXING:  cpu time    0.0012: real time    0.0012
    --------------------------------------------
      LOOP:  cpu time    1.5400: real time    1.5459

 eigenvalue-minimisations  :  2134
 total energy-change (2. order) :-0.4293029E-03  (-0.7618262E-05)
 number of electron      20.0000001 magnetization 
 augmentation part       -4.4797979 magnetization 

 Broyden mixing:
  rms(total) = 0.10902E-02    rms(broyden)= 0.10902E-02
  rms(prec ) = 0.14777E-02
  weight for this iteration     100.00

 eigenvalues of (default mixing * dielectric matrix)
  average eigenvalue GAMMA=   2.2444
  5.6985  3.2857  2.5063  2.1713  1.1569  1.1569  1.0691  0.9108

 Free energy of the ion-electron system (eV)
  ---------------------------------------------------
  alpha Z        PSCENC =         9.44753235
  Ewald energy   TEWEN  =      1143.14291076
  -Hartree energ DENC   =     -1765.32831878
  -exchange      EXHF   =         0.00000000
  -V(xc)+E(xc)   XCENC  =      -237.61730523
  PAW double counting   =      1136.33095359     -861.42809686
  entropy T*S    EENTRO =        -0.00000000
  eigenvalues    EBANDS =      -143.23855563
  atomic energy  EATOM  =       702.42789710
  Solvation  Ediel_sol  =         0.00000000
  ---------------------------------------------------
  free energy    TOTEN  =       -16.26298271 eV

  energy without entropy =      -16.26298271  energy(sigma->0) =      -16.26298271


--------------------------------------------------------------------------------------------------------




--------------------------------------- Iteration      1(  14)  ---------------------------------------


    POTLOK:  cpu time    0.0369: real time    0.0371
    SETDIJ:  cpu time    0.0030: real time    0.0030
     EDDAV:  cpu time    1.4052: real time    1.4082
       DOS:  cpu time    0.0020: real time    0.0020
    CHARGE:  cpu time    0.1185: real time    0.1188
    MIXING:  cpu time    0.0014: real time    0.0014
    --------------------------------------------
      LOOP:  cpu time    1.5670: real time    1.5705

 eigenvalue-minimisations  :  2182
 total energy-change (2. order) :-0.2698231E-03  (-0.4102437E-05)
 number of electron      20.0000001 magnetization 
 augmentation part       -4.4797677 magnetization 

 Broyden mixing:
  rms(total) = 0.39608E-03    rms(broyden)= 0.39607E-03
  rms(prec ) = 0.61338E-03
  weight for this iteration     100.00

 eigenvalues of (default mixing * dielectric matrix)
  average eigenvalue GAMMA=   2.2469
  6.7559  3.0710  2.5337  2.5337  1.1795  1.1795  1.0178  0.9756  0.9756

 Free energy of the ion-electron system (eV)
  ---------------------------------------------------
  alpha Z        PSCENC =         9.44753235
  Ewald energy   TEWEN  =      1143.14291076
  -Hartree energ DENC   =     -1765.53806189
  -exchange      EXHF   =         0.00000000
  -V(xc)+E(xc)   XCENC  =      -237.61719368
  PAW double counting   =      1136.57142599     -861.66805765
  entropy T*S    EENTRO =        -0.00000000
  eigenvalues    EBANDS =      -143.02970552
  atomic energy  EATOM  =       702.42789710
  Solvation  Ediel_sol  =         0.00000000
  ---------------------------------------------------
  free energy    TOTEN  =       -16.26325253 eV

  energy without entropy =      -16.26325253  energy(sigma->0) =      -16.26325253


--------------------------------------------------------------------------------------------------------




--------------------------------------- Iteration      1(  15)  ---------------------------------------


    POTLOK:  cpu time    0.0363: real time    0.0366
    SETDIJ:  cpu time    0.0029: real time    0.0029
     EDDAV:  cpu time    1.4204: real time    1.4600
       DOS:  cpu time    0.0019: real time    0.0019
    CHARGE:  cpu time    0.1308: real time    0.1310
    MIXING:  cpu time    0.0014: real time    0.0014
    --------------------------------------------
      LOOP:  cpu time    1.5938: real time    1.6339

 eigenvalue-minimisations  :  2186
 total energy-change (2. order) :-0.5660647E-04  (-0.1984178E-06)
 number of electron      20.0000001 magnetization 
 augmentation part       -4.4797834 magnetization 

 Broyden mixing:
  rms(total) = 0.30982E-03    rms(broyden)= 0.30982E-03
  rms(prec ) = 0.48722E-03
  weight for this iteration     100.00

 eigenvalues of (default mixing * dielectric matrix)
  average eigenvalue GAMMA=   2.3603
  6.5739  4.2836  2.7000  2.7000  1.9896  1.1415  1.1415  1.1996  0.9366  0.9366

 Free energy of the ion-electron system (eV)
  ---------------------------------------------------
  alpha Z        PSCENC =         9.44753235
  Ewald energy   TEWEN  =      1143.14291076
  -Hartree energ DENC   =     -1765.55199708
  -exchange      EXHF   =         0.00000000
  -V(xc)+E(xc)   XCENC  =      -237.61756576
  PAW double counting   =      1136.36754349     -861.46403455
  entropy T*S    EENTRO =        -0.00000000
  eigenvalues    EBANDS =      -143.01559545
  atomic energy  EATOM  =       702.42789710
  Solvation  Ediel_sol  =         0.00000000
  ---------------------------------------------------
  free energy    TOTEN  =       -16.26330913 eV

  energy without entropy =      -16.26330913  energy(sigma->0) =      -16.26330913


--------------------------------------------------------------------------------------------------------




--------------------------------------- Iteration      1(  16)  ---------------------------------------


    POTLOK:  cpu time    0.0357: real time    0.0358
    SETDIJ:  cpu time    0.0030: real time    0.0030
     EDDAV:  cpu time    1.3403: real time    1.3422
       DOS:  cpu time    0.0020: real time    0.0020
    CHARGE:  cpu time    0.1296: real time    0.1297
    MIXING:  cpu time    0.0016: real time    0.0016
    --------------------------------------------
      LOOP:  cpu time    1.5121: real time    1.5143

 eigenvalue-minimisations  :  1986
 total energy-change (2. order) :-0.4511592E-04  (-0.8333360E-06)
 number of electron      20.0000001 magnetization 
 augmentation part       -4.4797973 magnetization 

 Broyden mixing:
  rms(total) = 0.12065E-03    rms(broyden)= 0.12065E-03
  rms(prec ) = 0.22106E-03
  weight for this iteration     100.00

 eigenvalues of (default mixing * dielectric matrix)
  average eigenvalue GAMMA=   2.2825
  6.7977  4.5241  2.6519  2.6519  2.2515  1.1532  1.1532  1.1939  0.9376  0.9376
  0.8554

 Free energy of the ion-electron system (eV)
  ---------------------------------------------------
  alpha Z        PSCENC =         9.44753235
  Ewald energy   TEWEN  =      1143.14291076
  -Hartree energ DENC   =     -1765.60420458
  -exchange      EXHF   =         0.00000000
  -V(xc)+E(xc)   XCENC  =      -237.61763613
  PAW double counting   =      1136.24132490     -861.33782567
  entropy T*S    EENTRO =        -0.00000000
  eigenvalues    EBANDS =      -142.96335298
  atomic energy  EATOM  =       702.42789710
  Solvation  Ediel_sol  =         0.00000000
  ---------------------------------------------------
  free energy    TOTEN  =       -16.26335425 eV

  energy without entropy =      -16.26335425  energy(sigma->0) =      -16.26335425


--------------------------------------------------------------------------------------------------------




--------------------------------------- Iteration      1(  17)  ---------------------------------------


    POTLOK:  cpu time    0.0354: real time    0.0355
    SETDIJ:  cpu time    0.0050: real time    0.0054
     EDDAV:  cpu time    1.2131: real time    1.2150
       DOS:  cpu time    0.0020: real time    0.0020
    CHARGE:  cpu time    0.1185: real time    0.1186
    MIXING:  cpu time    0.0015: real time    0.0015
    --------------------------------------------
      LOOP:  cpu time    1.3755: real time    1.3782

 eigenvalue-minimisations  :  1792
 total energy-change (2. order) :-0.2261436E-04  (-0.1038814E-06)
 number of electron      20.0000001 magnetization 
 augmentation part       -4.4797791 magnetization 

 Broyden mixing:
  rms(total) = 0.11431E-03    rms(broyden)= 0.11431E-03
  rms(prec ) = 0.17663E-03
  weight for this iteration     100.00

 eigenvalues of (default mixing * dielectric matrix)
  average eigenvalue GAMMA=   2.4035
  6.9816  5.2294  2.9558  2.9558  2.3418  2.0269  1.1495  1.1495  0.9209  0.9723
  1.0794  1.0794

 Free energy of the ion-electron system (eV)
  ---------------------------------------------------
  alpha Z        PSCENC =         9.44753235
  Ewald energy   TEWEN  =      1143.14291076
  -Hartree energ DENC   =     -1765.61945200
  -exchange      EXHF   =         0.00000000
  -V(xc)+E(xc)   XCENC  =      -237.61750288
  PAW double counting   =      1136.29674069     -861.39333434
  entropy T*S    EENTRO =        -0.00000000
  eigenvalues    EBANDS =      -142.94816854
  atomic energy  EATOM  =       702.42789710
  Solvation  Ediel_sol  =         0.00000000
  ---------------------------------------------------
  free energy    TOTEN  =       -16.26337687 eV

  energy without entropy =      -16.26337687  energy(sigma->0) =      -16.26337687


--------------------------------------------------------------------------------------------------------




--------------------------------------- Iteration      1(  18)  ---------------------------------------


    POTLOK:  cpu time    0.0349: real time    0.0351
    SETDIJ:  cpu time    0.0030: real time    0.0029
     EDDAV:  cpu time    1.3468: real time    1.3487
       DOS:  cpu time    0.0020: real time    0.0020
    CHARGE:  cpu time    0.1188: real time    0.1190
    MIXING:  cpu time    0.0016: real time    0.0016
    --------------------------------------------
      LOOP:  cpu time    1.5070: real time    1.5092

 eigenvalue-minimisations  :  2080
 total energy-change (2. order) :-0.3869742E-04  (-0.4026481E-06)
 number of electron      20.0000001 magnetization 
 augmentation part       -4.4797679 magnetization 

 Broyden mixing:
  rms(total) = 0.60076E-04    rms(broyden)= 0.60076E-04
  rms(prec ) = 0.75404E-04
  weight for this iteration     100.00

 eigenvalues of (default mixing * dielectric matrix)
  average eigenvalue GAMMA=   2.3510
  7.1024  5.4631  2.9962  2.8111  2.5669  2.0354  1.2924  1.1624  1.1624  0.9060
  0.9680  1.0482  1.0482

 Free energy of the ion-electron system (eV)
  ---------------------------------------------------
  alpha Z        PSCENC =         9.44753235
  Ewald energy   TEWEN  =      1143.14291076
  -Hartree energ DENC   =     -1765.64271496
  -exchange      EXHF   =         0.00000000
  -V(xc)+E(xc)   XCENC  =      -237.61747261
  PAW double counting   =      1136.29575635     -861.39233460
  entropy T*S    EENTRO =        -0.00000000
  eigenvalues    EBANDS =      -142.92498995
  atomic energy  EATOM  =       702.42789710
  Solvation  Ediel_sol  =         0.00000000
  ---------------------------------------------------
  free energy    TOTEN  =       -16.26341556 eV

  energy without entropy =      -16.26341556  energy(sigma->0) =      -16.26341556


--------------------------------------------------------------------------------------------------------




--------------------------------------- Iteration      1(  19)  ---------------------------------------


    POTLOK:  cpu time    0.0349: real time    0.0351
    SETDIJ:  cpu time    0.0030: real time    0.0030
     EDDAV:  cpu time    1.2887: real time    1.2914
       DOS:  cpu time    0.0020: real time    0.0020
    CHARGE:  cpu time    0.1188: real time    0.1189
    MIXING:  cpu time    0.0016: real time    0.0016
    --------------------------------------------
      LOOP:  cpu time    1.4489: real time    1.4520

 eigenvalue-minimisations  :  1928
 total energy-change (2. order) :-0.5620488E-05  (-0.1505102E-07)
 number of electron      20.0000001 magnetization 
 augmentation part       -4.4797757 magnetization 

 Broyden mixing:
  rms(total) = 0.36363E-04    rms(broyden)= 0.36363E-04
  rms(prec ) = 0.44807E-04
  weight for this iteration     100.00

 eigenvalues of (default mixing * dielectric matrix)
  average eigenvalue GAMMA=   2.5870
  7.5399  7.5399  3.8902  3.0427  2.4187  2.4187  1.9792  1.1531  1.1531  1.0906
  1.0906  0.9354  0.9354  1.0302

 Free energy of the ion-electron system (eV)
  ---------------------------------------------------
  alpha Z        PSCENC =         9.44753235
  Ewald energy   TEWEN  =      1143.14291076
  -Hartree energ DENC   =     -1765.64179095
  -exchange      EXHF   =         0.00000000
  -V(xc)+E(xc)   XCENC  =      -237.61751672
  PAW double counting   =      1136.33495514     -861.43155040
  entropy T*S    EENTRO =        -0.00000000
  eigenvalues    EBANDS =      -142.92585846
  atomic energy  EATOM  =       702.42789710
  Solvation  Ediel_sol  =         0.00000000
  ---------------------------------------------------
  free energy    TOTEN  =       -16.26342118 eV

  energy without entropy =      -16.26342118  energy(sigma->0) =      -16.26342118


--------------------------------------------------------------------------------------------------------




--------------------------------------- Iteration      1(  20)  ---------------------------------------


    POTLOK:  cpu time    0.0348: real time    0.0350
    SETDIJ:  cpu time    0.0030: real time    0.0030
     EDDAV:  cpu time    1.0945: real time    1.0960
       DOS:  cpu time    0.0020: real time    0.0020
    CHARGE:  cpu time    0.1190: real time    0.1191
    MIXING:  cpu time    0.0018: real time    0.0018
    --------------------------------------------
      LOOP:  cpu time    1.2550: real time    1.2569

 eigenvalue-minimisations  :  1538
 total energy-change (2. order) :-0.6360255E-05  (-0.3561734E-07)
 number of electron      20.0000001 magnetization 
 augmentation part       -4.4797774 magnetization 

 Broyden mixing:
  rms(total) = 0.19830E-04    rms(broyden)= 0.19830E-04
  rms(prec ) = 0.22250E-04
  weight for this iteration     100.00

 eigenvalues of (default mixing * dielectric matrix)
  average eigenvalue GAMMA=   2.5615
  7.7782  7.7782  4.0081  3.0183  2.2823  2.2823  2.2779  1.5984  1.1492  1.1492
  0.9143  1.0219  1.0219  1.0714  1.0714

 Free energy of the ion-electron system (eV)
  ---------------------------------------------------
  alpha Z        PSCENC =         9.44753235
  Ewald energy   TEWEN  =      1143.14291076
  -Hartree energ DENC   =     -1765.64589303
  -exchange      EXHF   =         0.00000000
  -V(xc)+E(xc)   XCENC  =      -237.61752146
  PAW double counting   =      1136.31245121     -861.40901470
  entropy T*S    EENTRO =        -0.00000000
  eigenvalues    EBANDS =      -142.92178978
  atomic energy  EATOM  =       702.42789710
  Solvation  Ediel_sol  =         0.00000000
  ---------------------------------------------------
  free energy    TOTEN  =       -16.26342754 eV

  energy without entropy =      -16.26342754  energy(sigma->0) =      -16.26342754


--------------------------------------------------------------------------------------------------------




--------------------------------------- Iteration      1(  21)  ---------------------------------------


    POTLOK:  cpu time    0.0352: real time    0.0353
    SETDIJ:  cpu time    0.0029: real time    0.0029
     EDDAV:  cpu time    1.2267: real time    1.2284
       DOS:  cpu time    0.0020: real time    0.0020
    --------------------------------------------
      LOOP:  cpu time    1.2668: real time    1.2686

 eigenvalue-minimisations  :  1826
 total energy-change (2. order) :-0.6975536E-06  (-0.3461906E-08)
 number of electron      20.0000001 magnetization 
 augmentation part       -4.4797774 magnetization 

 Free energy of the ion-electron system (eV)
  ---------------------------------------------------
  alpha Z        PSCENC =         9.44753235
  Ewald energy   TEWEN  =      1143.14291076
  -Hartree energ DENC   =     -1765.64734586
  -exchange      EXHF   =         0.00000000
  -V(xc)+E(xc)   XCENC  =      -237.61749903
  PAW double counting   =      1136.30940975     -861.40597375
  entropy T*S    EENTRO =        -0.00000000
  eigenvalues    EBANDS =      -142.92035956
  atomic energy  EATOM  =       702.42789710
  Solvation  Ediel_sol  =         0.00000000
  ---------------------------------------------------
  free energy    TOTEN  =       -16.26342824 eV

  energy without entropy =      -16.26342824  energy(sigma->0) =      -16.26342824


--------------------------------------------------------------------------------------------------------




 average (electrostatic) potential at core
  the test charge radii are     1.4072  1.0808
  (the norm of the test charge is              1.0000)
       1 -51.2862       2 -51.2862       3 -59.9560       4 -59.9560
 
 
 
 E-fermi :  -1.5158     XC(G=0):  -3.3302     alpha+bet : -2.6586


 k-point     1 :       0.0000    0.0000    0.0000
  band No.  band energies     occupation 
      1     -15.3036      2.00000
      2     -14.3208      2.00000
      3      -8.2878      2.00000
      4      -7.3150      2.00000
      5      -5.4201      2.00000
      6      -5.0983      2.00000
      7      -5.0040      2.00000
      8      -3.8596      2.00000
      9      -3.8219      2.00000
     10      -2.6365      2.00000
     11      -0.4799      0.00000
     12       1.3363      0.00000
     13       1.7833      0.00000
     14       1.9367      0.00000

 k-point     2 :       0.0667    0.0000    0.0000
  band No.  band energies     occupation 
      1     -15.2858      2.00000
      2     -14.3189      2.00000
      3      -8.3558      2.00000
      4      -7.3953      2.00000
      5      -5.4213      2.00000
      6      -5.0272      2.00000
      7      -4.9740      2.00000
      8      -3.8017      2.00000
      9      -3.7500      2.00000
     10      -2.6549      2.00000
     11      -0.4682      0.00000
     12       1.3842      0.00000
     13       1.6362      0.00000
     14       1.8945      0.00000

 k-point     3 :       0.1333    0.0000    0.0000
  band No.  band energies     occupation 
      1     -15.2334      2.00000
[...]
  band No.  band energies     occupation 
      1     -14.6023      2.00000
      2     -14.2994      2.00000
      3      -8.7543      2.00000
      4      -8.4987      2.00000
      5      -6.3634      2.00000
      6      -5.1952      2.00000
      7      -5.0135      2.00000
      8      -4.0822      2.00000
      9      -3.9864      2.00000
     10      -3.0803      2.00000
     11       0.1438      0.00000
     12       1.1058      0.00000
     13       1.4524      0.00000
     14       1.7170      0.00000

 k-point    47 :       0.4000    0.3333    0.0000
  band No.  band energies     occupation 
      1     -14.5113      2.00000
      2     -14.3208      2.00000
      3      -8.6648      2.00000
      4      -8.5168      2.00000
      5      -6.3887      2.00000
      6      -5.5895      2.00000
      7      -4.9997      2.00000
      8      -4.3495      2.00000
      9      -3.9464      2.00000
     10      -3.3750      2.00000
     11       0.5038      0.00000
     12       1.3096      0.00000
     13       1.5564      0.00000
     14       2.2644      0.00000

 k-point    48 :       0.4667    0.3333    0.0000
  band No.  band energies     occupation 
      1     -14.4293      2.00000
      2     -14.3641      2.00000
      3      -8.5996      2.00000
      4      -8.5517      2.00000
      5      -6.2456      2.00000
      6      -5.9635      2.00000
      7      -4.8655      2.00000
      8      -4.6330      2.00000
      9      -3.8032      2.00000
     10      -3.6103      2.00000
     11       0.8175      0.00000
     12       1.0894      0.00000
     13       1.9657      0.00000
     14       2.2573      0.00000

 k-point    49 :       0.0000    0.4000    0.0000
  band No.  band energies     occupation 
      1     -14.7415      2.00000
      2     -14.3852      2.00000
      3      -9.2336      2.00000
      4      -8.8743      2.00000
      5      -4.7945      2.00000
      6      -4.2834      2.00000
      7      -4.0791      2.00000
      8      -3.6012      2.00000
      9      -2.8730      2.00000
     10      -2.1622      2.00000
     11      -1.0328      0.00000
     12      -0.0760      0.00000
     13      -0.0008      0.00000
     14       0.3341      0.00000

 k-point    50 :       0.0667    0.4000    0.0000
  band No.  band energies     occupation 
      1     -14.7296      2.00000
      2     -14.3797      2.00000
      3      -9.2075      2.00000
      4      -8.8562      2.00000
      5      -4.7902      2.00000
      6      -4.6252      2.00000
      7      -3.9703      2.00000
      8      -3.7807      2.00000
      9      -2.7019      2.00000
     10      -2.4314      2.00000
     11      -0.7916      0.00000
     12      -0.4086      0.00000
     13       0.2042      0.00000
     14       0.3671      0.00000

 k-point    51 :       0.1333    0.4000    0.0000
  band No.  band energies     occupation 
      1     -14.6952      2.00000
      2     -14.3647      2.00000
      3      -9.1306      2.00000
      4      -8.8040      2.00000
      5      -5.1448      2.00000
      6      -4.7894      2.00000
      7      -4.1733      2.00000
      8      -3.9415      2.00000
      9      -2.9786      2.00000
     10      -2.5394      2.00000
     11      -0.6492      0.00000
     12      -0.2112      0.00000
     13       0.4815      0.00000
     14       0.7536      0.00000

 k-point    52 :       0.2000    0.4000    0.0000
  band No.  band energies     occupation 
      1     -14.6416      2.00000
      2     -14.3440      2.00000
      3      -9.0081      2.00000
      4      -8.7239      2.00000
      5      -5.6474      2.00000
      6      -4.8539      2.00000
      7      -4.5764      2.00000
      8      -3.9868      2.00000
      9      -3.5170      2.00000
     10      -2.7464      2.00000
     11      -0.3845      0.00000
     12       0.5045      0.00000
     13       0.6922      0.00000
     14       1.1965      0.00000

 k-point    53 :       0.2667    0.4000    0.0000
  band No.  band energies     occupation 
      1     -14.5746      2.00000
      2     -14.3235      2.00000
      3      -8.8506      2.00000
      4      -8.6270      2.00000
      5      -6.0708      2.00000
      6      -5.1277      2.00000
      7      -4.8524      2.00000
      8      -4.1217      2.00000
      9      -3.8637      2.00000
     10      -3.1017      2.00000
     11       0.0842      0.00000
     12       1.0385      0.00000
     13       1.1228      0.00000
     14       1.5372      0.00000

 k-point    54 :       0.3333    0.4000    0.0000
  band No.  band energies     occupation 
      1     -14.5018      2.00000
      2     -14.3103      2.00000
      3      -8.6787      2.00000
      4      -8.5291      2.00000
      5      -6.3751      2.00000
      6      -5.5168      2.00000
      7      -5.0799      2.00000
      8      -4.3737      2.00000
      9      -3.9551      2.00000
     10      -3.3783      2.00000
     11       0.4894      0.00000
     12       1.3024      0.00000
     13       1.5247      0.00000
     14       2.1629      0.00000

 k-point    55 :       0.4000    0.4000    0.0000
  band No.  band energies     occupation 
      1     -14.4318      2.00000
      2     -14.3115      2.00000
      3      -8.5256      2.00000
      4      -8.4494      2.00000
      5      -6.5232      2.00000
      6      -5.9225      2.00000
      7      -5.1958      2.00000
      8      -4.6896      2.00000
      9      -3.9060      2.00000
     10      -3.5549      2.00000
     11       0.7996      0.00000
     12       1.3017      0.00000
     13       2.0277      0.00000
     14       2.6415      0.00000

 k-point    56 :       0.4667    0.4000    0.0000
  band No.  band energies     occupation 
      1     -14.3731      2.00000
      2     -14.3320      2.00000
      3      -8.4300      2.00000
      4      -8.4089      2.00000
      5      -6.4859      2.00000
      6      -6.2694      2.00000
      7      -5.1549      2.00000
      8      -4.9727      2.00000
      9      -3.8058      2.00000
     10      -3.6877      2.00000
     11       1.0401      0.00000
     12       1.2103      0.00000
     13       2.4076      0.00000
     14       2.6333      0.00000

 k-point    57 :       0.0000    0.4667    0.0000
  band No.  band energies     occupation 
      1     -14.5985      2.00000
      2     -14.4759      2.00000
      3      -9.2166      2.00000
      4      -9.0932      2.00000
      5      -4.5549      2.00000
      6      -4.3457      2.00000
      7      -3.8999      2.00000
      8      -3.7111      2.00000
      9      -2.6187      2.00000
     10      -2.2943      2.00000
     11      -0.9283      0.00000
     12      -0.5037      0.00000
     13      -0.0826      0.00000
     14       0.1140      0.00000

 k-point    58 :       0.0667    0.4667    0.0000
  band No.  band energies     occupation 
      1     -14.5888      2.00000
      2     -14.4685      2.00000
      3      -9.1897      2.00000
      4      -9.0691      2.00000
      5      -4.5710      2.00000
      6      -4.4645      2.00000
      7      -4.0344      2.00000
      8      -3.9104      2.00000
      9      -2.5406      2.00000
     10      -2.4429      2.00000
     11      -0.8323      0.00000
     12      -0.7186      0.00000
     13       0.2621      0.00000
     14       0.5653      0.00000

 k-point    59 :       0.1333    0.4667    0.0000
  band No.  band energies     occupation 
      1     -14.5609      2.00000
      2     -14.4473      2.00000
      3      -9.1103      2.00000
      4      -8.9982      2.00000
      5      -4.8710      2.00000
      6      -4.6863      2.00000
      7      -4.2636      2.00000
      8      -4.1425      2.00000
      9      -2.8859      2.00000
     10      -2.6855      2.00000
     11      -0.5853      0.00000
     12      -0.3620      0.00000
     13       0.7799      0.00000
     14       0.8598      0.00000

 k-point    60 :       0.2000    0.4667    0.0000
  band No.  band energies     occupation 
      1     -14.5183      2.00000
      2     -14.4161      2.00000
      3      -8.9823      2.00000
      4      -8.8850      2.00000
      5      -5.3708      2.00000
      6      -5.0512      2.00000
      7      -4.4550      2.00000
      8      -4.2225      2.00000
      9      -3.3758      2.00000
     10      -3.0839      2.00000
     11      -0.0728      0.00000
     12       0.2799      0.00000
     13       0.9914      0.00000
     14       1.2140      0.00000

 k-point    61 :       0.2667    0.4667    0.0000
  band No.  band energies     occupation 
      1     -14.4668      2.00000
      2     -14.3807      2.00000
      3      -8.8142      2.00000
      4      -8.7384      2.00000
      5      -5.8324      2.00000
      6      -5.4954      2.00000
      7      -4.6546      2.00000
      8      -4.3935      2.00000
      9      -3.7002      2.00000
     10      -3.4332      2.00000
     11       0.4455      0.00000
     12       0.8042      0.00000
     13       1.3684      0.00000
     14       1.6068      0.00000

 k-point    62 :       0.3333    0.4667    0.0000
  band No.  band energies     occupation 
      1     -14.4139      2.00000
      2     -14.3483      2.00000
      3      -8.6232      2.00000
      4      -8.5744      2.00000
      5      -6.2078      2.00000
      6      -5.9008      2.00000
      7      -4.9449      2.00000
      8      -4.6881      2.00000
      9      -3.8066      2.00000
     10      -3.6116      2.00000
     11       0.7995      0.00000
     12       1.0748      0.00000
     13       1.9008      0.00000
     14       2.1629      0.00000

 k-point    63 :       0.4000    0.4667    0.0000
  band No.  band energies     occupation 
      1     -14.3675      2.00000
      2     -14.3263      2.00000
      3      -8.4421      2.00000
      4      -8.4206      2.00000
      5      -6.4633      2.00000
      6      -6.2383      2.00000
      7      -5.1908      2.00000
      8      -4.9999      2.00000
      9      -3.8034      2.00000
     10      -3.6850      2.00000
     11       1.0344      0.00000
     12       1.2053      0.00000
     13       2.3861      0.00000
     14       2.6078      0.00000

 k-point    64 :       0.4667    0.4667    0.0000
  band No.  band energies     occupation 
      1     -14.3349      2.00000
      2     -14.3208      2.00000
      3      -8.3252      2.00000
      4      -8.3209      2.00000
      5      -6.5607      2.00000
      6      -6.4759      2.00000
      7      -5.2919      2.00000
      8      -5.2210      2.00000
      9      -3.7680      2.00000
     10      -3.7280      2.00000
     11       1.1841      0.00000
     12       1.2420      0.00000
     13       2.6557      0.00000
     14       2.7756      0.00000


--------------------------------------------------------------------------------------------------------


 soft charge-density along one line, spin component           1
         0         1         2         3         4         5         6         7         8         9
 total charge-density along one line
 
 pseudopotential strength for first ion, spin component:           1
 30.096 -23.442  -0.000  -0.089   0.038  -0.000  -0.141   0.059
-23.442  28.122   0.000   0.051  -0.021   0.000   0.082  -0.034
 -0.000   0.000   6.334   0.000  -0.000   9.799   0.000  -0.000
 -0.089   0.051   0.000   6.331   0.002   0.000   9.794   0.003
  0.038  -0.021  -0.000   0.002   6.333  -0.000   0.003   9.798
 -0.000   0.000   9.799   0.000  -0.000  15.230   0.000  -0.000
 -0.141   0.082   0.000   9.794   0.003   0.000  15.223   0.004
  0.059  -0.034  -0.000   0.003   9.798  -0.000   0.004  15.228
 -0.000   0.000   0.008   0.000  -0.000   0.012   0.000  -0.000
  0.000  -0.000  -0.020  -0.000   0.000  -0.031  -0.000   0.000
 -0.003   0.004   0.000  -0.023  -0.005   0.000  -0.035  -0.007
  0.003  -0.002   0.000   0.009  -0.020   0.000   0.014  -0.031
 -0.000   0.000   0.000  -0.000   0.009   0.000  -0.000   0.014
 total augmentation occupancy for first ion, spin component:           1
  2.024  -0.015   0.000   0.239  -0.095   0.000  -0.043   0.017   0.000  -0.000   0.022   0.002  -0.000
 -0.015   0.009   0.000  -0.073   0.029   0.000   0.019  -0.007   0.000   0.000  -0.002   0.001  -0.001
 -0.000  -0.000   1.506   0.000   0.000  -0.405   0.000   0.000   0.134  -0.044   0.000   0.000  -0.000
  0.239  -0.073   0.000   1.842   0.001  -0.000  -0.485  -0.016   0.000   0.000  -0.267  -0.021  -0.001
 -0.095   0.029   0.000   0.001   1.487   0.000  -0.016  -0.393  -0.000   0.000  -0.086  -0.046  -0.007
  0.000  -0.000  -0.405   0.000   0.000   0.117   0.000   0.000  -0.036   0.012   0.000   0.000   0.000
 -0.043   0.019   0.000  -0.485  -0.016   0.000   0.140   0.008   0.000   0.000   0.074   0.006   0.000
  0.017  -0.007  -0.000  -0.016  -0.393   0.000   0.008   0.112   0.000   0.000   0.023   0.013   0.002
  0.000   0.000   0.134   0.000   0.000  -0.036   0.000   0.000   0.075   0.000   0.000   0.000   0.000
  0.000   0.000  -0.044   0.000  -0.000   0.012   0.000   0.000   0.000   0.021   0.000   0.000  -0.000
  0.022  -0.002  -0.000  -0.267  -0.086  -0.000   0.074   0.023   0.000  -0.000   0.077   0.006   0.002
  0.002   0.001   0.000  -0.021  -0.046   0.000   0.006   0.013   0.000  -0.000   0.006   0.022   0.001
 -0.000  -0.001   0.000  -0.001  -0.007   0.000   0.000   0.002   0.000   0.000   0.002   0.001   0.017


------------------------ aborting loop because EDIFF is reached ----------------------------------------


    CHARGE:  cpu time    0.1659: real time    0.1661
    FORLOC:  cpu time    0.0018: real time    0.0018
    FORNL :  cpu time    0.1929: real time    0.1930
    STRESS:  cpu time    0.3422: real time    0.3425
    FORCOR:  cpu time    0.0371: real time    0.0371
    FORHAR:  cpu time    0.0094: real time    0.0095
    MIXING:  cpu time    0.0008: real time    0.0008
    OFIELD:  cpu time    0.0000: real time    0.0000

  FORCE on cell =-STRESS in cart. coord.  units (eV):
  Direction    XX          YY          ZZ          XY          YZ          ZX
  --------------------------------------------------------------------------------------
  Alpha Z     9.44753     9.44753     9.44753
  Ewald    1596.05399  1601.28148 -2052.86600     0.00000    -0.00000     0.00000
  Hartree  1717.79924  1719.82361 -1670.80304    -0.00000    -0.00000     0.00000
  E(xc)     -77.64117   -77.65843   -78.85798     0.00000    -0.00000     0.00000
  Local   -3566.55472 -3573.14409  3468.88757     0.00000     0.00000     0.00000
  n-local   162.45125   162.66774   167.18167    -0.35832     0.00000     0.00000
  augment   -31.87519   -31.81131   -32.80333     0.00000     0.00000     0.00000
  Kinetic   190.16157   189.26831   189.81309     5.43856    -0.00000    -0.00000
  Fock        0.00000     0.00000     0.00000     0.00000     0.00000     0.00000
  -------------------------------------------------------------------------------------
  Total      -0.15749    -0.12515    -0.00048     0.00000     0.00000     0.00000
  in kB      -0.66669    -0.52978    -0.00205     0.00000     0.00000     0.00000
  external pressure =       -0.40 kB  Pullay stress =        0.00 kB


 VOLUME and BASIS-vectors are now :
 -----------------------------------------------------------------------------
  energy-cutoff  :      600.00
  volume of cell :      378.48
      direct lattice vectors                 reciprocal lattice vectors
     4.408650906  0.000000000  0.000000000     0.226826760  0.000000000  0.000000000
     0.000000000  4.292477857  0.000000000     0.000000000  0.232965675  0.000000000
     0.000000000  0.000000000 20.000000000     0.000000000  0.000000000  0.050000000

  length of vectors
     4.408650906  4.292477857 20.000000000     0.226826760  0.232965675  0.050000000


 FORCES acting on ions
    electron-ion (+dipol)            ewald-force                    non-local-force                 convergence-correction
 -----------------------------------------------------------------------------------------------
   0.469E+01 0.175E-12 -.144E+03   -.631E+01 -.193E-16 0.147E+03   0.163E+01 0.000E+00 -.382E+01   -.377E-04 0.218E-13 -.217E-03
   0.469E+01 -.103E-12 0.144E+03   -.631E+01 -.165E-14 -.147E+03   0.163E+01 0.000E+00 0.382E+01   -.377E-04 -.190E-13 0.217E-03
   -.582E+01 0.612E-13 -.205E+03   0.631E+01 -.553E-15 0.207E+03   -.493E+00 0.278E-16 -.204E+01   0.635E-03 -.371E-13 -.470E-03
   -.582E+01 -.137E-12 0.205E+03   0.631E+01 0.130E-14 -.207E+03   -.493E+00 0.278E-16 0.204E+01   0.635E-03 0.702E-13 0.470E-03
 -----------------------------------------------------------------------------------------------
   -.227E+01 -.290E-14 -.904E-06   0.178E-14 -.928E-15 0.000E+00   0.227E+01 0.555E-16 0.000E+00   0.119E-02 0.359E-13 -.357E-10
 
 
 POSITION                                       TOTAL-FORCE (eV/Angst)
 -----------------------------------------------------------------------------------
      2.57344      3.21936     11.37587         0.000722      0.000000     -0.000163
      0.36911      1.07312      8.62413         0.000722      0.000000      0.000163
      0.13393      1.07312     11.33819        -0.000722      0.000000      0.000230
      2.33826      3.21936      8.66181        -0.000722      0.000000     -0.000230
 -----------------------------------------------------------------------------------
    total drift:                                0.000602      0.000000     -0.000001


--------------------------------------------------------------------------------------------------------



  FREE ENERGIE OF THE ION-ELECTRON SYSTEM (eV)
  ---------------------------------------------------
  free  energy   TOTEN  =       -16.26393230 eV

  energy  without entropy=      -16.26393230  energy(sigma->0) =      -16.26393230
 
 d Force = 0.3640726E-06[ 0.298E-06, 0.430E-06]  d Energy = 0.4048826E-06-0.408E-07
 d Force = 0.1066200E-02[ 0.107E-02, 0.107E-02]  d Ewald  = 0.1066200E-02 0.223E-10


--------------------------------------------------------------------------------------------------------


    POTLOK:  cpu time    0.0389: real time    0.0389


--------------------------------------------------------------------------------------------------------


 Conjugate gradient step on ions:
 trial-energy change:   -0.000000  1 .order   -0.000000   -0.000000   -0.000000
  (g-gl).g =-0.337E-07      g.g   = 0.227E-06  gl.gl    = 0.280E-05
 g(Force)  = 0.227E-06   g(Stress)= 0.000E+00 ortho     =-0.211E-07
 gamma     =  -0.01203
 trial     =   1.89725
 opt step  =   6.16053  (harmonic =   6.16053) maximal distance =0.00031093
 next E    =   -16.263933   (d E  =  -0.00000)


--------------------------------------------------------------------------------------------------------


  
 reached required accuracy - stopping structural energy minimisation
 writing wavefunctions
     LOOP+:  cpu time    3.8499: real time    4.6055
    4ORBIT:  cpu time    0.0000: real time    0.0000

 total amount of memory used by VASP MPI-rank0    52130. kBytes
=======================================================================

   base      :      30000. kBytes
   nonl-proj :       7196. kBytes
   fftplans  :       2678. kBytes
   grid      :       4349. kBytes
   one-center:          8. kBytes
   wavefun   :       7899. kBytes
 
  
  
 General timing and accounting informations for this job:
 ========================================================
  
                  Total CPU time used (sec):      136.160
                            User time (sec):      135.372
                          System time (sec):        0.788
                         Elapsed time (sec):      148.150
  
                   Maximum memory used (kb):      199056.
                   Average memory used (kb):           0.
  
                          Minor page faults:       118357
                          Major page faults:          134
                 Voluntary context switches:         8366
