ESCALE ; pCOHP file generated by LOBSTER. Energy is shifted such that the Fermi level lies at 0 eV.
         2          1        801  -1.21483e+01   2.79018e+01   9.87928e+00 
Average
No.1:C2->C1(1.5474217615784804)
-22.02753   0.00000  -0.00003   0.00000  -0.00003
-21.97747  -0.00097  -0.00008  -0.00097  -0.00008
-21.92741  -0.00228  -0.00019  -0.00228  -0.00019
-21.87735  -0.00473  -0.00043  -0.00473  -0.00043
-21.82728  -0.00868  -0.00086  -0.00868  -0.00086
-21.77722  -0.01407  -0.00157  -0.01407  -0.00157
-21.72716  -0.02015  -0.00257  -0.02015  -0.00257
-21.67710  -0.02549  -0.00385  -0.02549  -0.00385
-21.62703  -0.02851  -0.00528  -0.02851  -0.00528
-21.57697  -0.02830  -0.00669  -0.02830  -0.00669
-21.52691  -0.02524  -0.00796  -0.02524  -0.00796
-21.47685  -0.02120  -0.00902  -0.02120  -0.00902
-21.42678  -0.01927  -0.00998  -0.01927  -0.00998
-21.37672  -0.02337  -0.01115  -0.02337  -0.01115
-21.32666  -0.03779  -0.01305  -0.03779  -0.01305
-21.27660  -0.06630  -0.01636  -0.06630  -0.01636
-21.22653  -0.11027  -0.02188  -0.11027  -0.02188
-21.17647  -0.16662  -0.03023  -0.16662  -0.03023
-21.12641  -0.22716  -0.04160  -0.22716  -0.04160
-21.07635  -0.28063  -0.05565  -0.28063  -0.05565
-21.02628  -0.31672  -0.07150  -0.31672  -0.07150
-20.97622  -0.32952  -0.08800  -0.32952  -0.08800
-20.92616  -0.31835  -0.10394  -0.31835  -0.10394
-20.87610  -0.28653  -0.11828  -0.28653  -0.11828
-20.82603  -0.23972  -0.13028  -0.23972  -0.13028
-20.77597  -0.18519  -0.13955  -0.18519  -0.13955
-20.72591  -0.13094  -0.14611  -0.13094  -0.14611
-20.67584  -0.08406  -0.15032  -0.08406  -0.15032
-20.62578  -0.04897  -0.15277  -0.04897  -0.15277
-20.57572  -0.02690  -0.15412  -0.02690  -0.15412
-20.52566  -0.01716  -0.15498  -0.01716  -0.15498
-20.47559  -0.01938  -0.15595  -0.01938  -0.15595
-20.42553  -0.03526  -0.15771  -0.03526  -0.15771
-20.37547  -0.06825  -0.16113  -0.06825  -0.16113
-20.32541  -0.12077  -0.16717  -0.12077  -0.16717
-20.27534  -0.18985  -0.17668  -0.18985  -0.17668
-20.22528  -0.26387  -0.18989  -0.26387  -0.18989
-20.17522  -0.32406  -0.20611  -0.32406  -0.20611
-20.12516  -0.35174  -0.22372  -0.35174  -0.22372
-20.07509  -0.33788  -0.24064  -0.33788  -0.24064
-20.02503  -0.28877  -0.25509  -0.28877  -0.25509
-19.97497  -0.22406  -0.26631  -0.22406  -0.26631
-19.92491  -0.16920  -0.27478  -0.16920  -0.27478
-19.87484  -0.14759  -0.28217  -0.14759  -0.28217
-19.82478  -0.17573  -0.29097  -0.17573  -0.29097
-19.77472  -0.26018  -0.30399  -0.26018  -0.30399
-19.72466  -0.39379  -0.32371  -0.39379  -0.32371
-19.67459  -0.55292  -0.35139  -0.55292  -0.35139
-19.62453  -0.70055  -0.38646  -0.70055  -0.38646
-19.57447  -0.79805  -0.42641  -0.79805  -0.42641
-19.52441  -0.82080  -0.46750  -0.82080  -0.46750
-19.47434  -0.76763  -0.50593  -0.76763  -0.50593
-19.42428  -0.65809  -0.53888  -0.65809  -0.53888
-19.37422  -0.52087  -0.56495  -0.52087  -0.56495
-19.32416  -0.38224  -0.58409  -0.38224  -0.58409
-19.27409  -0.26002  -0.59711  -0.26002  -0.59711
-19.22403  -0.16327  -0.60528  -0.16327  -0.60528
-19.17397  -0.09405  -0.60999  -0.09405  -0.60999
-19.12390  -0.04967  -0.61248  -0.04967  -0.61248
-19.07384  -0.02503  -0.61373  -0.02503  -0.61373
-19.02378  -0.01495  -0.61448  -0.01495  -0.61448
-18.97372  -0.01608  -0.61528  -0.01608  -0.61528
-18.92365  -0.02742  -0.61665  -0.02742  -0.61665
-18.87359  -0.04920  -0.61912  -0.04920  -0.61912
-18.82353  -0.08055  -0.62315  -0.08055  -0.62315
-18.77347  -0.11712  -0.62901  -0.11712  -0.62901
-18.72340  -0.15061  -0.63655  -0.15061  -0.63655
-18.67334  -0.17132  -0.64513  -0.17132  -0.64513
-18.62328  -0.17296  -0.65379  -0.17296  -0.65379
-18.57322  -0.15684  -0.66164  -0.15684  -0.66164
-18.52315  -0.13300  -0.66830  -0.13300  -0.66830
-18.47309  -0.11788  -0.67420  -0.11788  -0.67420
-18.42303  -0.13023  -0.68072  -0.13023  -0.68072
-18.37297  -0.18658  -0.69006  -0.18658  -0.69006
-18.32290  -0.29612  -0.70488  -0.29612  -0.70488
-18.27284  -0.45539  -0.72768  -0.45539  -0.72768
-18.22278  -0.64557  -0.76000  -0.64557  -0.76000
-18.17272  -0.83592  -0.80185  -0.83592  -0.80185
-18.12265  -0.99317  -0.85157  -0.99317  -0.85157
-18.07259  -1.09131  -0.90620  -1.09131  -0.90620
-18.02253  -1.11600  -0.96207  -1.11600  -0.96207
-17.97247  -1.06399  -1.01534  -1.06399  -1.01534
-17.92240  -0.94225  -1.06251  -0.94225  -1.06251
-17.87234  -0.76909  -1.10101  -0.76909  -1.10101
-17.82228  -0.57328  -1.12971  -0.57328  -1.12971
-17.77222  -0.38725  -1.14910  -0.38725  -1.14910
-17.72215  -0.23703  -1.16097  -0.23703  -1.16097
-17.67209  -0.13578  -1.16777  -0.13578  -1.16777
-17.62203  -0.08531  -1.17204  -0.08531  -1.17204
-17.57196  -0.08292  -1.17619  -0.08292  -1.17619
-17.52190  -0.12699  -1.18254  -0.12699  -1.18254
-17.47184  -0.21629  -1.19337  -0.21629  -1.19337
-17.42178  -0.34307  -1.21055  -0.34307  -1.21055
-17.37171  -0.48566  -1.23486  -0.48566  -1.23486
-17.32165  -0.60862  -1.26533  -0.60862  -1.26533
-17.27159  -0.67453  -1.29910  -0.67453  -1.29910
-17.22153  -0.66212  -1.33225  -0.66212  -1.33225
-17.17146  -0.57891  -1.36123  -0.57891  -1.36123
-17.12140  -0.45914  -1.38421  -0.45914  -1.38421
-17.07134  -0.34871  -1.40167  -0.34871  -1.40167
-17.02128  -0.28730  -1.41605  -0.28730  -1.41605
-16.97121  -0.29693  -1.43092  -0.29693  -1.43092
-16.92115  -0.37849  -1.44987  -0.37849  -1.44987
-16.87109  -0.51275  -1.47554  -0.51275  -1.47554
-16.82103  -0.66376  -1.50877  -0.66376  -1.50877
-16.77096  -0.78654  -1.54814  -0.78654  -1.54814
-16.72090  -0.84056  -1.59022  -0.84056  -1.59022
-16.67084  -0.80544  -1.63055  -0.80544  -1.63055
-16.62078  -0.68983  -1.66508  -0.68983  -1.66508
-16.57071  -0.52686  -1.69146  -0.52686  -1.69146
-16.52065  -0.35819  -1.70939  -0.35819  -1.70939
-16.47059  -0.21651  -1.72023  -0.21651  -1.72023
-16.42053  -0.11651  -1.72606  -0.11651  -1.72606
-16.37046  -0.05678  -1.72890  -0.05678  -1.72890
-16.32040  -0.02805  -1.73031  -0.02805  -1.73031
-16.27034  -0.02129  -1.73137  -0.02129  -1.73137
-16.22028  -0.03209  -1.73298  -0.03209  -1.73298
-16.17021  -0.06066  -1.73601  -0.06066  -1.73601
-16.12015  -0.10846  -1.74144  -0.10846  -1.74144
-16.07009  -0.17348  -1.75013  -0.17348  -1.75013
-16.02003  -0.24689  -1.76249  -0.24689  -1.76249
-15.96996  -0.31466  -1.77824  -0.31466  -1.77824
-15.91990  -0.36538  -1.79653  -0.36538  -1.79653
-15.86984  -0.40082  -1.81660  -0.40082  -1.81660
-15.81977  -0.44161  -1.83871  -0.44161  -1.83871
-15.76971  -0.52200  -1.86484  -0.52200  -1.86484
-15.71965  -0.67386  -1.89858  -0.67386  -1.89858
-15.66959  -0.90714  -1.94399  -0.90714  -1.94399
-15.61952  -1.19675  -2.00390  -1.19675  -2.00390
-15.56946  -1.48337  -2.07816  -1.48337  -2.07816
-15.51940  -1.69063  -2.16280  -1.69063  -2.16280
-15.46934  -1.75392  -2.25061  -1.75392  -2.25061
-15.41927  -1.64894  -2.33316  -1.64894  -2.33316
-15.36921  -1.40431  -2.40346  -1.40431  -2.40346
-15.31915  -1.08925  -2.45799  -1.08925  -2.45799
-15.26909  -0.78175  -2.49713  -0.78175  -2.49713
-15.21902  -0.53627  -2.52397  -0.53627  -2.52397
-15.16896  -0.36905  -2.54245  -0.36905  -2.54245
-15.11890  -0.26543  -2.55574  -0.26543  -2.55574
-15.06884  -0.19927  -2.56571  -0.19927  -2.56571
-15.01877  -0.14993  -2.57322  -0.14993  -2.57322
-14.96871  -0.10915  -2.57868  -0.10915  -2.57868
-14.91865  -0.07901  -2.58264  -0.07901  -2.58264
-14.86859  -0.06701  -2.58599  -0.06701  -2.58599
-14.81852  -0.08241  -2.59012  -0.08241  -2.59012
-14.76846  -0.13386  -2.59682  -0.13386  -2.59682
-14.71840  -0.22573  -2.60812  -0.22573  -2.60812
-14.66834  -0.35269  -2.62578  -0.35269  -2.62578
-14.61827  -0.49615  -2.65062  -0.49615  -2.65062
-14.56821  -0.62823  -2.68207  -0.62823  -2.68207
-14.51815  -0.72423  -2.71833  -0.72423  -2.71833
-14.46809  -0.77569  -2.75716  -0.77569  -2.75716
-14.41802  -0.79271  -2.79684  -0.79271  -2.79684
-14.36796  -0.79184  -2.83648  -0.79184  -2.83648
-14.31790  -0.77955  -2.87551  -0.77955  -2.87551
-14.26783  -0.74638  -2.91288  -0.74638  -2.91288
-14.21777  -0.67715  -2.94678  -0.67715  -2.94678
-14.16771  -0.56737  -2.97518  -0.56737  -2.97518
-14.11765  -0.43087  -2.99675  -0.43087  -2.99675
-14.06758  -0.29314  -3.01143  -0.29314  -3.01143
-14.01752  -0.17749  -3.02031  -0.17749  -3.02031
-13.96746  -0.09530  -3.02508  -0.09530  -3.02508
-13.91740  -0.04529  -3.02735  -0.04529  -3.02735
-13.86733  -0.01904  -3.02830  -0.01904  -3.02830
-13.81727  -0.00711  -3.02866  -0.00711  -3.02866
-13.76721  -0.00248  -3.02878  -0.00248  -3.02878
-13.71715  -0.00132  -3.02885  -0.00132  -3.02885
-13.66708  -0.00240  -3.02897  -0.00240  -3.02897
-13.61702  -0.00684  -3.02931  -0.00684  -3.02931
-13.56696  -0.01836  -3.03023  -0.01836  -3.03023
-13.51690  -0.04379  -3.03242  -0.04379  -3.03242
-13.46683  -0.09235  -3.03705  -0.09235  -3.03705
-13.41677  -0.17229  -3.04567  -0.17229  -3.04567
-13.36671  -0.28475  -3.05993  -0.28475  -3.05993
-13.31665  -0.41826  -3.08087  -0.41826  -3.08087
-13.26658  -0.54957  -3.10838  -0.54957  -3.10838
-13.21652  -0.65429  -3.14113  -0.65429  -3.14113
-13.16646  -0.72238  -3.17730  -0.72238  -3.17730
-13.11640  -0.76642  -3.21567  -0.76642  -3.21567
-13.06633  -0.81288  -3.25636  -0.81288  -3.25636
-13.01627  -0.88008  -3.30042  -0.88008  -3.30042
-12.96621  -0.95984  -3.34847  -0.95984  -3.34847
-12.91615  -1.01917  -3.39950  -1.01917  -3.39950
-12.86608  -1.02243  -3.45068  -1.02243  -3.45068
-12.81602  -0.95669  -3.49858  -0.95669  -3.49858
-12.76596  -0.84001  -3.54063  -0.84001  -3.54063
-12.71589  -0.70796  -3.57607  -0.70796  -3.57607
-12.66583  -0.59134  -3.60567  -0.59134  -3.60567
-12.61577  -0.50289  -3.63085  -0.50289  -3.63085
-12.56571  -0.43952  -3.65285  -0.43952  -3.65285
-12.51564  -0.39248  -3.67250  -0.39248  -3.67250
-12.46558  -0.35454  -3.69025  -0.35454  -3.69025
-12.41552  -0.32040  -3.70629  -0.32040  -3.70629
-12.36546  -0.28494  -3.72056  -0.28494  -3.72056
-12.31539  -0.24419  -3.73278  -0.24419  -3.73278
-12.26533  -0.19885  -3.74274  -0.19885  -3.74274
-12.21527  -0.15661  -3.75058  -0.15661  -3.75058
-12.16521  -0.13088  -3.75713  -0.13088  -3.75713
-12.11514  -0.13663  -3.76397  -0.13663  -3.76397
-12.06508  -0.18496  -3.77323  -0.18496  -3.77323
-12.01502  -0.27729  -3.78711  -0.27729  -3.78711
-11.96496  -0.40072  -3.80717  -0.40072  -3.80717
-11.91489  -0.52851  -3.83363  -0.52851  -3.83363
-11.86483  -0.62936  -3.86514  -0.62936  -3.86514
-11.81477  -0.68313  -3.89934  -0.68313  -3.89934
-11.76471  -0.69256  -3.93401  -0.69256  -3.93401
-11.71464  -0.68064  -3.96808  -0.68064  -3.96808
-11.66458  -0.67337  -4.00179  -0.67337  -4.00179
-11.61452  -0.68134  -4.03590  -0.68134  -4.03590
-11.56446  -0.69590  -4.07074  -0.69590  -4.07074
-11.51439  -0.70375  -4.10597  -0.70375  -4.10597
-11.46433  -0.70699  -4.14137  -0.70699  -4.14137
-11.41427  -0.72938  -4.17788  -0.72938  -4.17788
-11.36421  -0.80027  -4.21794  -0.80027  -4.21794
-11.31414  -0.92665  -4.26434  -0.92665  -4.26434
-11.26408  -1.07566  -4.31819  -1.07566  -4.31819
-11.21402  -1.18409  -4.37746  -1.18409  -4.37746
-11.16395  -1.19206  -4.43714  -1.19206  -4.43714
-11.11389  -1.07807  -4.49111  -1.07807  -4.49111
-11.06383  -0.87172  -4.53475  -0.87172  -4.53475
-11.01377  -0.63743  -4.56666  -0.63743  -4.56666
-10.96370  -0.44423  -4.58890  -0.44423  -4.58890
-10.91364  -0.34210  -4.60603  -0.34210  -4.60603
-10.86358  -0.35374  -4.62374  -0.35374  -4.62374
-10.81352  -0.47557  -4.64755  -0.47557  -4.64755
-10.76345  -0.67865  -4.68152  -0.67865  -4.68152
-10.71339  -0.90970  -4.72706  -0.90970  -4.72706
-10.66333  -1.09994  -4.78213  -1.09994  -4.78213
-10.61327  -1.18659  -4.84153  -1.18659  -4.84153
-10.56320  -1.13886  -4.89855  -1.13886  -4.89855
-10.51314  -0.97172  -4.94720  -0.97172  -4.94720
-10.46308  -0.73697  -4.98409  -0.73697  -4.98409
-10.41302  -0.49720  -5.00898  -0.49720  -5.00898
-10.36295  -0.29991  -5.02400  -0.29991  -5.02400
-10.31289  -0.16599  -5.03230  -0.16599  -5.03230
-10.26283  -0.09424  -5.03702  -0.09424  -5.03702
-10.21277  -0.07311  -5.04068  -0.07311  -5.04068
-10.16270  -0.08981  -5.04518  -0.08981  -5.04518
-10.11264  -0.13254  -5.05181  -0.13254  -5.05181
-10.06258  -0.18815  -5.06123  -0.18815  -5.06123
-10.01252  -0.24033  -5.07327  -0.24033  -5.07327
 -9.96245  -0.27220  -5.08689  -0.27220  -5.08689
 -9.91239  -0.27256  -5.10054  -0.27256  -5.10054
 -9.86233  -0.24125  -5.11262  -0.24125  -5.11262
 -9.81227  -0.18909  -5.12208  -0.18909  -5.12208
 -9.76220  -0.13246  -5.12871  -0.13246  -5.12871
 -9.71214  -0.08665  -5.13305  -0.08665  -5.13305
 -9.66208  -0.06250  -5.13618  -0.06250  -5.13618
 -9.61202  -0.06767  -5.13957  -0.06767  -5.13957
 -9.56195  -0.10939  -5.14504  -0.10939  -5.14504
 -9.51189  -0.19472  -5.15479  -0.19472  -5.15479
 -9.46183  -0.32614  -5.17112  -0.32614  -5.17112
 -9.41176  -0.49445  -5.19587  -0.49445  -5.19587
 -9.36170  -0.67437  -5.22963  -0.67437  -5.22963
 -9.31164  -0.82832  -5.27110  -0.82832  -5.27110
 -9.26158  -0.91944  -5.31713  -0.91944  -5.31713
 -9.21151  -0.92825  -5.36360  -0.92825  -5.36360
 -9.16145  -0.86375  -5.40684  -0.86375  -5.40684
 -9.11139  -0.76123  -5.44495  -0.76123  -5.44495
 -9.06133  -0.66647  -5.47832  -0.66647  -5.47832
 -9.01126  -0.61407  -5.50906  -0.61407  -5.50906
 -8.96120  -0.61183  -5.53969  -0.61183  -5.53969
 -8.91114  -0.63991  -5.57173  -0.63991  -5.57173
 -8.86108  -0.66430  -5.60498  -0.66430  -5.60498
 -8.81101  -0.65576  -5.63781  -0.65576  -5.63781
 -8.76095  -0.60308  -5.66800  -0.60308  -5.66800
 -8.71089  -0.51547  -5.69381  -0.51547  -5.69381
 -8.66083  -0.41603  -5.71464  -0.41603  -5.71464
 -8.61076  -0.33215  -5.73127  -0.33215  -5.73127
 -8.56070  -0.28641  -5.74560  -0.28641  -5.74560
 -8.51064  -0.28943  -5.76009  -0.28943  -5.76009
 -8.46058  -0.33539  -5.77688  -0.33539  -5.77688
 -8.41051  -0.40306  -5.79706  -0.40306  -5.79706
 -8.36045  -0.46427  -5.82030  -0.46427  -5.82030
 -8.31039  -0.49755  -5.84521  -0.49755  -5.84521
 -8.26033  -0.49898  -5.87019  -0.49898  -5.87019
 -8.21026  -0.48252  -5.89435  -0.48252  -5.89435
 -8.16020  -0.46885  -5.91782  -0.46885  -5.91782
 -8.11014  -0.47153  -5.94143  -0.47153  -5.94143
 -8.06008  -0.49185  -5.96605  -0.49185  -5.96605
 -8.01001  -0.52550  -5.99236  -0.52550  -5.99236
 -7.95995  -0.57317  -6.02105  -0.57317  -6.02105
 -7.90989  -0.64286  -6.05324  -0.64286  -6.05324
 -7.85982  -0.73930  -6.09025  -0.73930  -6.09025
 -7.80976  -0.84935  -6.13277  -0.84935  -6.13277
 -7.75970  -0.93832  -6.17974  -0.93832  -6.17974
 -7.70964  -0.96445  -6.22803  -0.96445  -6.22803
 -7.65957  -0.90328  -6.27325  -0.90328  -6.27325
 -7.60951  -0.76440  -6.31151  -0.76440  -6.31151
 -7.55945  -0.58912  -6.34101  -0.58912  -6.34101
 -7.50939  -0.43258  -6.36266  -0.43258  -6.36266
 -7.45932  -0.34359  -6.37987  -0.34359  -6.37987
 -7.40926  -0.35203  -6.39749  -0.35203  -6.39749
 -7.35920  -0.46376  -6.42071  -0.46376  -6.42071
 -7.30914  -0.65847  -6.45367  -0.65847  -6.45367
 -7.25907  -0.89021  -6.49824  -0.89021  -6.49824
 -7.20901  -1.09603  -6.55311  -1.09603  -6.55311
 -7.15895  -1.21596  -6.61398  -1.21596  -6.61398
 -7.10889  -1.21749  -6.67493  -1.21749  -6.67493
 -7.05882  -1.11066  -6.73053  -1.11066  -6.73053
 -7.00876  -0.94284  -6.77774  -0.94284  -6.77774
 -6.95870  -0.77553  -6.81656  -0.77553  -6.81656
 -6.90864  -0.65676  -6.84944  -0.65676  -6.84944
 -6.85857  -0.60509  -6.87973  -0.60509  -6.87973
 -6.80851  -0.61229  -6.91038  -0.61229  -6.91038
 -6.75845  -0.65880  -6.94337  -0.65880  -6.94337
 -6.70839  -0.72809  -6.97982  -0.72809  -6.97982
 -6.65832  -0.80949  -7.02034  -0.80949  -7.02034
 -6.60826  -0.89131  -7.06496  -0.89131  -7.06496
 -6.55820  -0.95650  -7.11285  -0.95650  -7.11285
 -6.50814  -0.98934  -7.16238  -0.98934  -7.16238
 -6.45807  -0.98785  -7.21183  -0.98785  -7.21183
 -6.40801  -0.96753  -7.26027  -0.96753  -7.26027
 -6.35795  -0.94922  -7.30779  -0.94922  -7.30779
 -6.30788  -0.94035  -7.35486  -0.94035  -7.35486
 -6.25782  -0.92655  -7.40125  -0.92655  -7.40125
 -6.20776  -0.88155  -7.44538  -0.88155  -7.44538
 -6.15770  -0.78739  -7.48480  -0.78739  -7.48480
 -6.10763  -0.64875  -7.51728  -0.64875  -7.51728
 -6.05757  -0.49113  -7.54187  -0.49113  -7.54187
 -6.00751  -0.34636  -7.55921  -0.34636  -7.55921
 -5.95745  -0.23676  -7.57106  -0.23676  -7.57106
 -5.90738  -0.16813  -7.57948  -0.16813  -7.57948
 -5.85732  -0.13355  -7.58616  -0.13355  -7.58616
 -5.80726  -0.12295  -7.59232  -0.12295  -7.59232
 -5.75720  -0.13117  -7.59888  -0.13117  -7.59888
 -5.70713  -0.15989  -7.60689  -0.15989  -7.60689
 -5.65707  -0.21295  -7.61755  -0.21295  -7.61755
 -5.60701  -0.28929  -7.63203  -0.28929  -7.63203
 -5.55695  -0.38001  -7.65106  -0.38001  -7.65106
 -5.50688  -0.47402  -7.67479  -0.47402  -7.67479
 -5.45682  -0.57013  -7.70333  -0.57013  -7.70333
 -5.40676  -0.68564  -7.73765  -0.68564  -7.73765
 -5.35670  -0.84991  -7.78020  -0.84991  -7.78020
 -5.30663  -1.08153  -7.83435  -1.08153  -7.83435
 -5.25657  -1.36291  -7.90258  -1.36291  -7.90258
 -5.20651  -1.63372  -7.98437  -1.63372  -7.98437
 -5.15645  -1.81398  -8.07518  -1.81398  -8.07518
 -5.10638  -1.84462  -8.16752  -1.84462  -8.16752
 -5.05632  -1.71783  -8.25352  -1.71783  -8.25352
 -5.00626  -1.47640  -8.32744  -1.47640  -8.32744
 -4.95620  -1.18597  -8.38681  -1.18597  -8.38681
 -4.90613  -0.90271  -8.43200  -0.90271  -8.43200
 -4.85607  -0.65722  -8.46490  -0.65722  -8.46490
 -4.80601  -0.45789  -8.48783  -0.45789  -8.48783
 -4.75594  -0.30256  -8.50297  -0.30256  -8.50297
 -4.70588  -0.18696  -8.51233  -0.18696  -8.51233
 -4.65582  -0.10677  -8.51768  -0.10677  -8.51768
 -4.60576  -0.05679  -8.52052  -0.05679  -8.52052
 -4.55569  -0.03125  -8.52208  -0.03125  -8.52208
 -4.50563  -0.02579  -8.52338  -0.02579  -8.52338
 -4.45557  -0.03975  -8.52536  -0.03975  -8.52536
 -4.40551  -0.07676  -8.52921  -0.07676  -8.52921
 -4.35544  -0.14273  -8.53635  -0.14273  -8.53635
 -4.30538  -0.24155  -8.54845  -0.24155  -8.54845
 -4.25532  -0.37071  -8.56700  -0.37071  -8.56700
 -4.20526  -0.51931  -8.59300  -0.51931  -8.59300
 -4.15519  -0.66989  -8.62654  -0.66989  -8.62654
 -4.10513  -0.80268  -8.66672  -0.80268  -8.66672
 -4.05507  -0.89949  -8.71175  -0.89949  -8.71175
 -4.00501  -0.94628  -8.75913  -0.94628  -8.75913
 -3.95494  -0.93627  -8.80600  -0.93627  -8.80600
 -3.90488  -0.87434  -8.84977  -0.87434  -8.84977
 -3.85482  -0.78001  -8.88882  -0.78001  -8.88882
 -3.80476  -0.68375  -8.92305  -0.68375  -8.92305
 -3.75469  -0.61546  -8.95386  -0.61546  -8.95386
 -3.70463  -0.59001  -8.98340  -0.59001  -8.98340
 -3.65457  -0.59922  -9.01340  -0.59922  -9.01340
 -3.60451  -0.61623  -9.04425  -0.61623  -9.04425
 -3.55444  -0.61024  -9.07480  -0.61024  -9.07480
 -3.50438  -0.56299  -9.10298  -0.56299  -9.10298
 -3.45432  -0.47703  -9.12686  -0.47703  -9.12686
 -3.40426  -0.37198  -9.14549  -0.37198  -9.14549
 -3.35419  -0.27270  -9.15914  -0.27270  -9.15914
 -3.30413  -0.19743  -9.16902  -0.19743  -9.16902
 -3.25407  -0.15255  -9.17666  -0.15255  -9.17666
 -3.20401  -0.13519  -9.18343  -0.13519  -9.18343
 -3.15394  -0.13962  -9.19042  -0.13962  -9.19042
 -3.10388  -0.16215  -9.19853  -0.16215  -9.19853
 -3.05382  -0.20112  -9.20860  -0.20112  -9.20860
 -3.00375  -0.25312  -9.22127  -0.25312  -9.22127
 -2.95369  -0.30945  -9.23677  -0.30945  -9.23677
 -2.90363  -0.35673  -9.25463  -0.35673  -9.25463
 -2.85357  -0.38227  -9.27376  -0.38227  -9.27376
 -2.80350  -0.38107  -9.29284  -0.38107  -9.29284
 -2.75344  -0.35927  -9.31083  -0.35927  -9.31083
 -2.70338  -0.33110  -9.32740  -0.33110  -9.32740
 -2.65332  -0.31084  -9.34296  -0.31084  -9.34296
 -2.60325  -0.30503  -9.35823  -0.30503  -9.35823
 -2.55319  -0.31050  -9.37378  -0.31050  -9.37378
 -2.50313  -0.31911  -9.38975  -0.31911  -9.38975
 -2.45307  -0.32459  -9.40600  -0.32459  -9.40600
 -2.40300  -0.32562  -9.42231  -0.32562  -9.42231
 -2.35294  -0.32310  -9.43848  -0.32310  -9.43848
 -2.30288  -0.31570  -9.45429  -0.31570  -9.45429
 -2.25282  -0.29886  -9.46925  -0.29886  -9.46925
 -2.20275  -0.26840  -9.48268  -0.26840  -9.48268
 -2.15269  -0.22523  -9.49396  -0.22523  -9.49396
 -2.10263  -0.17618  -9.50278  -0.17618  -9.50278
 -2.05257  -0.13047  -9.50931  -0.13047  -9.50931
 -2.00250  -0.09469  -9.51405  -0.09469  -9.51405
 -1.95244  -0.07014  -9.51756  -0.07014  -9.51756
 -1.90238  -0.05395  -9.52026  -0.05395  -9.52026
 -1.85232  -0.04203  -9.52237  -0.04203  -9.52237
 -1.80225  -0.03167  -9.52395  -0.03167  -9.52395
 -1.75219  -0.02219  -9.52506  -0.02219  -9.52506
 -1.70213  -0.01420  -9.52578  -0.01420  -9.52578
 -1.65207  -0.00847  -9.52620  -0.00847  -9.52620
 -1.60200  -0.00548  -9.52647  -0.00548  -9.52647
 -1.55194  -0.00555  -9.52675  -0.00555  -9.52675
 -1.50188  -0.00919  -9.52721  -0.00919  -9.52721
 -1.45181  -0.01724  -9.52807  -0.01724  -9.52807
 -1.40175  -0.03043  -9.52960  -0.03043  -9.52960
 -1.35169  -0.04863  -9.53203  -0.04863  -9.53203
 -1.30163  -0.07025  -9.53555  -0.07025  -9.53555
 -1.25156  -0.09241  -9.54018  -0.09241  -9.54018
 -1.20150  -0.11180  -9.54577  -0.11180  -9.54577
 -1.15144  -0.12549  -9.55205  -0.12549  -9.55205
 -1.10138  -0.13144  -9.55863  -0.13144  -9.55863
 -1.05131  -0.12846  -9.56507  -0.12846  -9.56507
 -1.00125  -0.11650  -9.57090  -0.11650  -9.57090
 -0.95119  -0.09717  -9.57576  -0.09717  -9.57576
 -0.90113  -0.07379  -9.57946  -0.07379  -9.57946
 -0.85106  -0.05058  -9.58199  -0.05058  -9.58199
 -0.80100  -0.03107  -9.58354  -0.03107  -9.58354
 -0.75094  -0.01703  -9.58440  -0.01703  -9.58440
 -0.70088  -0.00831  -9.58481  -0.00831  -9.58481
 -0.65081  -0.00365  -9.58500  -0.00365  -9.58500
 -0.60075  -0.00157  -9.58507  -0.00157  -9.58507
 -0.55069  -0.00095  -9.58512  -0.00095  -9.58512
 -0.50063  -0.00121  -9.58518  -0.00121  -9.58518
 -0.45056  -0.00212  -9.58529  -0.00212  -9.58529
 -0.40050  -0.00359  -9.58547  -0.00359  -9.58547
 -0.35044  -0.00542  -9.58574  -0.00542  -9.58574
 -0.30038  -0.00725  -9.58610  -0.00725  -9.58610
 -0.25031  -0.00856  -9.58653  -0.00856  -9.58653
 -0.20025  -0.00894  -9.58698  -0.00894  -9.58698
 -0.15019  -0.00824  -9.58739  -0.00824  -9.58739
 -0.10013  -0.00671  -9.58773  -0.00671  -9.58773
 -0.05006  -0.00483  -9.58797  -0.00483  -9.58797
 -0.00000  -0.00307  -9.58812  -0.00307  -9.58812
  0.05006  -0.00172  -9.58821  -0.00172  -9.58821
  0.10013  -0.00086  -9.58825  -0.00086  -9.58825
  0.15019  -0.00037  -9.58827  -0.00037  -9.58827
  0.20025  -0.00015  -9.58828  -0.00015  -9.58828
  0.25031  -0.00005  -9.58828  -0.00005  -9.58828
  0.30038  -0.00001  -9.58828  -0.00001  -9.58828
  0.35044  -0.00000  -9.58828  -0.00000  -9.58828
  0.40050  -0.00000  -9.58828  -0.00000  -9.58828
  0.45056  -0.00000  -9.58828  -0.00000  -9.58828
  0.50063  -0.00000  -9.58828  -0.00000  -9.58828
  0.55069  -0.00000  -9.58828  -0.00000  -9.58828
  0.60075  -0.00000  -9.58828  -0.00000  -9.58828
  0.65081  -0.00000  -9.58828  -0.00000  -9.58828
  0.70088  -0.00000  -9.58828  -0.00000  -9.58828
  0.75094  -0.00000  -9.58828  -0.00000  -9.58828
  0.80100  -0.00000  -9.58828  -0.00000  -9.58828
  0.85106  -0.00000  -9.58828  -0.00000  -9.58828
  0.90113  -0.00000  -9.58828  -0.00000  -9.58828
  0.95119   0.00000  -9.58828   0.00000  -9.58828
  1.00125   0.00000  -9.58828   0.00000  -9.58828
  1.05131   0.00000  -9.58828   0.00000  -9.58828
  1.10138   0.00000  -9.58828   0.00000  -9.58828
  1.15144   0.00000  -9.58828   0.00000  -9.58828
  1.20150   0.00000  -9.58828   0.00000  -9.58828
  1.25156   0.00000  -9.58828   0.00000  -9.58828
  1.30163   0.00000  -9.58828   0.00000  -9.58828
  1.35169   0.00000  -9.58828   0.00000  -9.58828
  1.40175   0.00000  -9.58828   0.00000  -9.58828
  1.45181   0.00000  -9.58828   0.00000  -9.58828
  1.50188   0.00000  -9.58828   0.00000  -9.58828
  1.55194   0.00000  -9.58828   0.00000  -9.58828
  1.60200   0.00000  -9.58828   0.00000  -9.58828
  1.65207   0.00000  -9.58828   0.00000  -9.58828
  1.70213   0.00000  -9.58828   0.00000  -9.58828
  1.75219   0.00000  -9.58828   0.00000  -9.58828
  1.80225   0.00000  -9.58828   0.00000  -9.58828
  1.85232   0.00000  -9.58828   0.00000  -9.58828
  1.90238   0.00000  -9.58828   0.00000  -9.58828
  1.95244   0.00000  -9.58828   0.00000  -9.58828
  2.00250   0.00000  -9.58828   0.00000  -9.58828
  2.05257   0.00000  -9.58828   0.00000  -9.58828
  2.10263   0.00000  -9.58828   0.00000  -9.58828
  2.15269   0.00000  -9.58828   0.00000  -9.58828
  2.20275   0.00000  -9.58828   0.00000  -9.58828
  2.25282   0.00000  -9.58828   0.00000  -9.58828
  2.30288   0.00000  -9.58828   0.00000  -9.58828
  2.35294   0.00000  -9.58828   0.00000  -9.58828
  2.40300   0.00000  -9.58828   0.00000  -9.58828
  2.45307   0.00000  -9.58828   0.00000  -9.58828
  2.50313   0.00000  -9.58828   0.00000  -9.58828
  2.55319   0.00000  -9.58828   0.00000  -9.58828
  2.60325   0.00000  -9.58828   0.00000  -9.58828
  2.65332   0.00000  -9.58828   0.00000  -9.58828
  2.70338   0.00000  -9.58828   0.00000  -9.58828
  2.75344   0.00000  -9.58828   0.00000  -9.58828
  2.80350   0.00000  -9.58828   0.00000  -9.58828
  2.85357   0.00000  -9.58828   0.00000  -9.58828
  2.90363   0.00000  -9.58828   0.00000  -9.58828
  2.95369   0.00000  -9.58828   0.00000  -9.58828
  3.00375   0.00000  -9.58828   0.00000  -9.58828
  3.05382   0.00000  -9.58828   0.00000  -9.58828
  3.10388   0.00000  -9.58828   0.00000  -9.58828
  3.15394   0.00000  -9.58828   0.00000  -9.58828
  3.20401   0.00000  -9.58828   0.00000  -9.58828
  3.25407   0.00000  -9.58828   0.00000  -9.58828
  3.30413   0.00000  -9.58828   0.00000  -9.58828
  3.35419   0.00000  -9.58828   0.00000  -9.58828
  3.40426   0.00001  -9.58828   0.00001  -9.58828
  3.45432   0.00003  -9.58828   0.00003  -9.58828
  3.50438   0.00013  -9.58827   0.00013  -9.58827
  3.55444   0.00048  -9.58825   0.00048  -9.58825
  3.60451   0.00153  -9.58817   0.00153  -9.58817
  3.65457   0.00432  -9.58796   0.00432  -9.58796
  3.70463   0.01076  -9.58742   0.01076  -9.58742
  3.75469   0.02369  -9.58623   0.02369  -9.58623
  3.80476   0.04610  -9.58392   0.04610  -9.58392
  3.85482   0.07931  -9.57995   0.07931  -9.57995
  3.90488   0.12060  -9.57392   0.12060  -9.57392
  3.95494   0.16208  -9.56580   0.16208  -9.56580
  4.00501   0.19254  -9.55616   0.19254  -9.55616
  4.05507   0.20218  -9.54604   0.20218  -9.54604
  4.10513   0.18765  -9.53665   0.18765  -9.53665
  4.15519   0.15396  -9.52894   0.15396  -9.52894
  4.20526   0.11166  -9.52335   0.11166  -9.52335
  4.25532   0.07163  -9.51976   0.07163  -9.51976
  4.30538   0.04080  -9.51772   0.04080  -9.51772
  4.35544   0.02119  -9.51666   0.02119  -9.51666
  4.40551   0.01178  -9.51607   0.01178  -9.51607
  4.45557   0.01138  -9.51550   0.01138  -9.51550
  4.50563   0.02088  -9.51445   0.02088  -9.51445
  4.55569   0.04412  -9.51225   0.04412  -9.51225
  4.60576   0.08701  -9.50789   0.08701  -9.50789
  4.65582   0.15470  -9.50014   0.15470  -9.50014
  4.70588   0.24778  -9.48774   0.24778  -9.48774
  4.75594   0.35905  -9.46977   0.35905  -9.46977
  4.80601   0.47303  -9.44608   0.47303  -9.44608
  4.85607   0.56899  -9.41760   0.56899  -9.41760
  4.90613   0.62642  -9.38624   0.62642  -9.38624
  4.95620   0.63135  -9.35463   0.63135  -9.35463
  5.00626   0.58154  -9.32552   0.58154  -9.32552
  5.05632   0.48854  -9.30106   0.48854  -9.30106
  5.10638   0.37491  -9.28229   0.37491  -9.28229
  5.15645   0.26691  -9.26893   0.26691  -9.26893
  5.20651   0.18590  -9.25962   0.18590  -9.25962
  5.25657   0.14253  -9.25249   0.14253  -9.25249
  5.30663   0.13602  -9.24568   0.13602  -9.24568
  5.35670   0.15745  -9.23780   0.15745  -9.23780
  5.40676   0.19502  -9.22803   0.19502  -9.22803
  5.45682   0.23913  -9.21606   0.23913  -9.21606
  5.50688   0.28564  -9.20176   0.28564  -9.20176
  5.55695   0.33586  -9.18495   0.33586  -9.18495
  5.60701   0.39333  -9.16526   0.39333  -9.16526
  5.65707   0.45908  -9.14227   0.45908  -9.14227
  5.70713   0.52759  -9.11586   0.52759  -9.11586
  5.75720   0.58565  -9.08654   0.58565  -9.08654
  5.80726   0.61530  -9.05574   0.61530  -9.05574
  5.85732   0.60092  -9.02565   0.60092  -9.02565
  5.90738   0.53767  -8.99874   0.53767  -8.99874
  5.95745   0.43605  -8.97691   0.43605  -8.97691
  6.00751   0.31849  -8.96096   0.31849  -8.96096
  6.05757   0.20969  -8.95047   0.20969  -8.95047
  6.10763   0.12715  -8.94410   0.12715  -8.94410
  6.15770   0.07713  -8.94024   0.07713  -8.94024
  6.20776   0.05667  -8.93740   0.05667  -8.93740
  6.25782   0.05806  -8.93450   0.05806  -8.93450
  6.30788   0.07297  -8.93084   0.07297  -8.93084
  6.35795   0.09565  -8.92605   0.09565  -8.92605
  6.40801   0.12627  -8.91973   0.12627  -8.91973
  6.45807   0.17415  -8.91101   0.17415  -8.91101
  6.50814   0.25776  -8.89811   0.25776  -8.89811
  6.55820   0.39838  -8.87817   0.39838  -8.87817
  6.60826   0.60696  -8.84778   0.60696  -8.84778
  6.65832   0.87038  -8.80421   0.87038  -8.80421
  6.70839   1.14667  -8.74680   1.14667  -8.74680
  6.75845   1.37598  -8.67792   1.37598  -8.67792
  6.80851   1.50374  -8.60264   1.50374  -8.60264
  6.85857   1.50274  -8.52740   1.50274  -8.52740
  6.90864   1.38131  -8.45825   1.38131  -8.45825
  6.95870   1.17476  -8.39944   1.17476  -8.39944
  7.00876   0.92862  -8.35295   0.92862  -8.35295
  7.05882   0.68430  -8.31869   0.68430  -8.31869
  7.10889   0.47231  -8.29505   0.47231  -8.29505
  7.15895   0.31156  -8.27945   0.31156  -8.27945
  7.20901   0.21112  -8.26888   0.21112  -8.26888
  7.25907   0.17195  -8.26027   0.17195  -8.26027
  7.30914   0.18739  -8.25089   0.18739  -8.25089
  7.35920   0.24264  -8.23874   0.24264  -8.23874
  7.40926   0.31522  -8.22296   0.31522  -8.22296
  7.45932   0.37968  -8.20396   0.37968  -8.20396
  7.50939   0.41723  -8.18307   0.41723  -8.18307
  7.55945   0.42623  -8.16173   0.42623  -8.16173
  7.60951   0.42644  -8.14038   0.42644  -8.14038
  7.65957   0.45252  -8.11773   0.45252  -8.11773
  7.70964   0.53940  -8.09072   0.53940  -8.09072