ESCALE ; pCOOP file generated by LOBSTER. Energy is shifted such that the Fermi level lies at 0 eV.
         2          1        801  -1.21483e+01   2.79018e+01   9.87928e+00 
Average
No.1:C2->C1(1.5474217615784804)
-22.02753   0.00000   0.00000   0.00000   0.00000
-21.97747   0.00002   0.00000   0.00002   0.00000
-21.92741   0.00005   0.00000   0.00005   0.00000
-21.87735   0.00011   0.00001   0.00011   0.00001
-21.82728   0.00020   0.00002   0.00020   0.00002
-21.77722   0.00032   0.00004   0.00032   0.00004
-21.72716   0.00046   0.00006   0.00046   0.00006
-21.67710   0.00058   0.00009   0.00058   0.00009
-21.62703   0.00065   0.00012   0.00065   0.00012
-21.57697   0.00065   0.00015   0.00065   0.00015
-21.52691   0.00058   0.00018   0.00058   0.00018
-21.47685   0.00048   0.00021   0.00048   0.00021
-21.42678   0.00044   0.00023   0.00044   0.00023
-21.37672   0.00054   0.00026   0.00054   0.00026
-21.32666   0.00088   0.00030   0.00088   0.00030
-21.27660   0.00155   0.00038   0.00155   0.00038
-21.22653   0.00257   0.00051   0.00257   0.00051
-21.17647   0.00389   0.00070   0.00389   0.00070
-21.12641   0.00530   0.00097   0.00530   0.00097
-21.07635   0.00655   0.00129   0.00655   0.00129
-21.02628   0.00740   0.00166   0.00740   0.00166
-20.97622   0.00771   0.00205   0.00771   0.00205
-20.92616   0.00746   0.00242   0.00746   0.00242
-20.87610   0.00672   0.00276   0.00672   0.00276
-20.82603   0.00563   0.00304   0.00563   0.00304
-20.77597   0.00435   0.00326   0.00435   0.00326
-20.72591   0.00308   0.00341   0.00308   0.00341
-20.67584   0.00198   0.00351   0.00198   0.00351
-20.62578   0.00115   0.00357   0.00115   0.00357
-20.57572   0.00064   0.00360   0.00064   0.00360
-20.52566   0.00041   0.00362   0.00041   0.00362
-20.47559   0.00047   0.00365   0.00047   0.00365
-20.42553   0.00086   0.00369   0.00086   0.00369
-20.37547   0.00167   0.00377   0.00167   0.00377
-20.32541   0.00296   0.00392   0.00296   0.00392
-20.27534   0.00465   0.00415   0.00465   0.00415
-20.22528   0.00647   0.00448   0.00647   0.00448
-20.17522   0.00794   0.00488   0.00794   0.00488
-20.12516   0.00862   0.00531   0.00862   0.00531
-20.07509   0.00828   0.00572   0.00828   0.00572
-20.02503   0.00708   0.00608   0.00708   0.00608
-19.97497   0.00550   0.00635   0.00550   0.00635
-19.92491   0.00417   0.00656   0.00417   0.00656
-19.87484   0.00368   0.00674   0.00368   0.00674
-19.82478   0.00444   0.00697   0.00444   0.00697
-19.77472   0.00662   0.00730   0.00662   0.00730
-19.72466   0.01004   0.00780   0.01004   0.00780
-19.67459   0.01411   0.00851   0.01411   0.00851
-19.62453   0.01789   0.00940   0.01789   0.00940
-19.57447   0.02040   0.01042   0.02040   0.01042
-19.52441   0.02100   0.01147   0.02100   0.01147
-19.47434   0.01967   0.01246   0.01967   0.01246
-19.42428   0.01689   0.01331   0.01689   0.01331
-19.37422   0.01339   0.01398   0.01339   0.01398
-19.32416   0.00985   0.01447   0.00985   0.01447
-19.27409   0.00671   0.01480   0.00671   0.01480
-19.22403   0.00422   0.01502   0.00422   0.01502
-19.17397   0.00244   0.01514   0.00244   0.01514
-19.12390   0.00129   0.01520   0.00129   0.01520
-19.07384   0.00065   0.01524   0.00065   0.01524
-19.02378   0.00040   0.01525   0.00040   0.01525
-18.97372   0.00043   0.01528   0.00043   0.01528
-18.92365   0.00075   0.01531   0.00075   0.01531
-18.87359   0.00134   0.01538   0.00134   0.01538
-18.82353   0.00220   0.01549   0.00220   0.01549
-18.77347   0.00320   0.01565   0.00320   0.01565
-18.72340   0.00412   0.01586   0.00412   0.01586
-18.67334   0.00469   0.01609   0.00469   0.01609
-18.62328   0.00473   0.01633   0.00473   0.01633
-18.57322   0.00430   0.01654   0.00430   0.01654
-18.52315   0.00366   0.01673   0.00366   0.01673
-18.47309   0.00328   0.01689   0.00328   0.01689
-18.42303   0.00370   0.01708   0.00370   0.01708
-18.37297   0.00538   0.01735   0.00538   0.01735
-18.32290   0.00859   0.01778   0.00859   0.01778
-18.27284   0.01323   0.01844   0.01323   0.01844
-18.22278   0.01877   0.01938   0.01877   0.01938
-18.17272   0.02432   0.02060   0.02432   0.02060
-18.12265   0.02891   0.02204   0.02891   0.02204
-18.07259   0.03178   0.02363   0.03178   0.02363
-18.02253   0.03252   0.02526   0.03252   0.02526
-17.97247   0.03102   0.02682   0.03102   0.02682
-17.92240   0.02748   0.02819   0.02748   0.02819
-17.87234   0.02244   0.02931   0.02244   0.02931
-17.82228   0.01673   0.03015   0.01673   0.03015
-17.77222   0.01131   0.03072   0.01131   0.03072
-17.72215   0.00693   0.03107   0.00693   0.03107
-17.67209   0.00399   0.03126   0.00399   0.03126
-17.62203   0.00257   0.03139   0.00257   0.03139
-17.57196   0.00260   0.03152   0.00260   0.03152
-17.52190   0.00407   0.03173   0.00407   0.03173
-17.47184   0.00697   0.03208   0.00697   0.03208
-17.42178   0.01107   0.03263   0.01107   0.03263
-17.37171   0.01568   0.03342   0.01568   0.03342
-17.32165   0.01965   0.03440   0.01965   0.03440
-17.27159   0.02178   0.03549   0.02178   0.03549
-17.22153   0.02139   0.03656   0.02139   0.03656
-17.17146   0.01872   0.03750   0.01872   0.03750
-17.12140   0.01490   0.03824   0.01490   0.03824
-17.07134   0.01142   0.03882   0.01142   0.03882
-17.02128   0.00957   0.03929   0.00957   0.03929
-16.97121   0.01006   0.03980   0.01006   0.03980
-16.92115   0.01291   0.04045   0.01291   0.04045
-16.87109   0.01745   0.04132   0.01745   0.04132
-16.82103   0.02247   0.04244   0.02247   0.04244
-16.77096   0.02646   0.04377   0.02646   0.04377
-16.72090   0.02812   0.04518   0.02812   0.04518
-16.67084   0.02682   0.04652   0.02682   0.04652
-16.62078   0.02288   0.04766   0.02288   0.04766
-16.57071   0.01741   0.04854   0.01741   0.04854
-16.52065   0.01181   0.04913   0.01181   0.04913
-16.47059   0.00712   0.04948   0.00712   0.04948
-16.42053   0.00383   0.04968   0.00383   0.04968
-16.37046   0.00187   0.04977   0.00187   0.04977
-16.32040   0.00094   0.04982   0.00094   0.04982
-16.27034   0.00075   0.04985   0.00075   0.04985
-16.22028   0.00116   0.04991   0.00116   0.04991
-16.17021   0.00222   0.05002   0.00222   0.05002
-16.12015   0.00398   0.05022   0.00398   0.05022
-16.07009   0.00637   0.05054   0.00637   0.05054
-16.02003   0.00908   0.05099   0.00908   0.05099
-15.96996   0.01162   0.05158   0.01162   0.05158
-15.91990   0.01363   0.05226   0.01363   0.05226
-15.86984   0.01524   0.05302   0.01524   0.05302
-15.81977   0.01731   0.05389   0.01731   0.05389
-15.76971   0.02117   0.05495   0.02117   0.05495
-15.71965   0.02799   0.05635   0.02799   0.05635
-15.66959   0.03800   0.05825   0.03800   0.05825
-15.61952   0.05003   0.06076   0.05003   0.06076
-15.56946   0.06156   0.06384   0.06156   0.06384
-15.51940   0.06955   0.06732   0.06955   0.06732
-15.46934   0.07152   0.07090   0.07152   0.07090
-15.41927   0.06670   0.07424   0.06670   0.07424
-15.36921   0.05639   0.07706   0.05639   0.07706
-15.31915   0.04342   0.07924   0.04342   0.07924
-15.26909   0.03092   0.08079   0.03092   0.08079
-15.21902   0.02099   0.08184   0.02099   0.08184
-15.16896   0.01425   0.08255   0.01425   0.08255
-15.11890   0.01011   0.08306   0.01011   0.08306
-15.06884   0.00750   0.08343   0.00750   0.08343
-15.01877   0.00560   0.08371   0.00560   0.08371
-14.96871   0.00407   0.08392   0.00407   0.08392
-14.91865   0.00297   0.08406   0.00297   0.08406
-14.86859   0.00258   0.08419   0.00258   0.08419
-14.81852   0.00326   0.08436   0.00326   0.08436
-14.76846   0.00538   0.08463   0.00538   0.08463
-14.71840   0.00912   0.08508   0.00912   0.08508
-14.66834   0.01429   0.08580   0.01429   0.08580
-14.61827   0.02016   0.08681   0.02016   0.08681
-14.56821   0.02565   0.08809   0.02565   0.08809
-14.51815   0.02983   0.08959   0.02983   0.08959
-14.46809   0.03241   0.09121   0.03241   0.09121
-14.41802   0.03378   0.09290   0.03378   0.09290
-14.36796   0.03454   0.09463   0.03454   0.09463
-14.31790   0.03477   0.09637   0.03477   0.09637
-14.26783   0.03387   0.09806   0.03387   0.09806
-14.21777   0.03108   0.09962   0.03108   0.09962
-14.16771   0.02622   0.10093   0.02622   0.10093
-14.11765   0.01999   0.10193   0.01999   0.10193
-14.06758   0.01363   0.10262   0.01363   0.10262
-14.01752   0.00826   0.10303   0.00826   0.10303
-13.96746   0.00444   0.10325   0.00444   0.10325
-13.91740   0.00211   0.10336   0.00211   0.10336
-13.86733   0.00089   0.10340   0.00089   0.10340
-13.81727   0.00033   0.10342   0.00033   0.10342
-13.76721   0.00012   0.10342   0.00012   0.10342
-13.71715   0.00006   0.10343   0.00006   0.10343
-13.66708   0.00012   0.10343   0.00012   0.10343
-13.61702   0.00034   0.10345   0.00034   0.10345
-13.56696   0.00091   0.10350   0.00091   0.10350
-13.51690   0.00218   0.10361   0.00218   0.10361
-13.46683   0.00460   0.10384   0.00460   0.10384
-13.41677   0.00857   0.10426   0.00857   0.10426
-13.36671   0.01413   0.10497   0.01413   0.10497
-13.31665   0.02068   0.10601   0.02068   0.10601
-13.26658   0.02696   0.10736   0.02696   0.10736
-13.21652   0.03160   0.10894   0.03160   0.10894
-13.16646   0.03392   0.11064   0.03392   0.11064
-13.11640   0.03435   0.11236   0.03435   0.11236
-13.06633   0.03424   0.11407   0.03424   0.11407
-13.01627   0.03480   0.11581   0.03480   0.11581
-12.96621   0.03626   0.11763   0.03626   0.11763
-12.91615   0.03767   0.11951   0.03767   0.11951
-12.86608   0.03775   0.12140   0.03775   0.12140
-12.81602   0.03580   0.12320   0.03580   0.12320
-12.76596   0.03221   0.12481   0.03221   0.12481
-12.71589   0.02804   0.12621   0.02804   0.12621
-12.66583   0.02423   0.12743   0.02423   0.12743
-12.61577   0.02116   0.12849   0.02116   0.12849
-12.56571   0.01870   0.12942   0.01870   0.12942
-12.51564   0.01657   0.13025   0.01657   0.13025
-12.46558   0.01463   0.13098   0.01463   0.13098
-12.41552   0.01283   0.13163   0.01283   0.13163
-12.36546   0.01107   0.13218   0.01107   0.13218
-12.31539   0.00927   0.13264   0.00927   0.13264
-12.26533   0.00744   0.13302   0.00744   0.13302
-12.21527   0.00584   0.13331   0.00584   0.13331
-12.16521   0.00494   0.13356   0.00494   0.13356
-12.11514   0.00531   0.13382   0.00531   0.13382
-12.06508   0.00736   0.13419   0.00736   0.13419
-12.01502   0.01115   0.13475   0.01115   0.13475
-11.96496   0.01619   0.13556   0.01619   0.13556
-11.91489   0.02144   0.13663   0.02144   0.13663
-11.86483   0.02570   0.13792   0.02570   0.13792
-11.81477   0.02824   0.13933   0.02824   0.13933
-11.76471   0.02924   0.14080   0.02924   0.14080
-11.71464   0.02968   0.14228   0.02968   0.14228
-11.66458   0.03053   0.14381   0.03053   0.14381
-11.61452   0.03198   0.14541   0.03198   0.14541
-11.56446   0.03342   0.14709   0.03342   0.14709
-11.51439   0.03407   0.14879   0.03407   0.14879
-11.46433   0.03400   0.15049   0.03400   0.15049
-11.41427   0.03438   0.15221   0.03438   0.15221
-11.36421   0.03670   0.15405   0.03670   0.15405
-11.31414   0.04147   0.15613   0.04147   0.15613
-11.26408   0.04738   0.15850   0.04738   0.15850
-11.21402   0.05174   0.16109   0.05174   0.16109
-11.16395   0.05189   0.16369   0.05189   0.16369
-11.11389   0.04686   0.16603   0.04686   0.16603
-11.06383   0.03789   0.16793   0.03789   0.16793
-11.01377   0.02777   0.16932   0.02777   0.16932
-10.96370   0.01953   0.17030   0.01953   0.17030
-10.91364   0.01543   0.17107   0.01543   0.17107
-10.86358   0.01655   0.17190   0.01655   0.17190
-10.81352   0.02283   0.17304   0.02283   0.17304
-10.76345   0.03301   0.17469   0.03301   0.17469
-10.71339   0.04461   0.17693   0.04461   0.17693
-10.66333   0.05430   0.17965   0.05430   0.17965
-10.61327   0.05894   0.18260   0.05894   0.18260
-10.56320   0.05691   0.18545   0.05691   0.18545
-10.51314   0.04884   0.18789   0.04884   0.18789
-10.46308   0.03725   0.18976   0.03725   0.18976
-10.41302   0.02526   0.19102   0.02526   0.19102
-10.36295   0.01531   0.19179   0.01531   0.19179
-10.31289   0.00852   0.19221   0.00852   0.19221
-10.26283   0.00486   0.19246   0.00486   0.19246
-10.21277   0.00379   0.19265   0.00379   0.19265
-10.16270   0.00466   0.19288   0.00466   0.19288
-10.11264   0.00688   0.19322   0.00688   0.19322
-10.06258   0.00977   0.19371   0.00977   0.19371
-10.01252   0.01247   0.19434   0.01247   0.19434
 -9.96245   0.01413   0.19504   0.01413   0.19504
 -9.91239   0.01415   0.19575   0.01415   0.19575
 -9.86233   0.01252   0.19638   0.01252   0.19638
 -9.81227   0.00981   0.19687   0.00981   0.19687
 -9.76220   0.00685   0.19721   0.00685   0.19721
 -9.71214   0.00441   0.19743   0.00441   0.19743
 -9.66208   0.00302   0.19759   0.00302   0.19759
 -9.61202   0.00298   0.19773   0.00298   0.19773
 -9.56195   0.00459   0.19796   0.00459   0.19796
 -9.51189   0.00813   0.19837   0.00813   0.19837
 -9.46183   0.01376   0.19906   0.01376   0.19906
 -9.41176   0.02117   0.20012   0.02117   0.20012
 -9.36170   0.02937   0.20159   0.02937   0.20159
 -9.31164   0.03677   0.20343   0.03677   0.20343
 -9.26158   0.04165   0.20552   0.04165   0.20552
 -9.21151   0.04297   0.20767   0.04297   0.20767
 -9.16145   0.04094   0.20972   0.04094   0.20972
 -9.11139   0.03703   0.21157   0.03703   0.21157
 -9.06133   0.03335   0.21324   0.03335   0.21324
 -9.01126   0.03154   0.21482   0.03154   0.21482
 -8.96120   0.03198   0.21642   0.03198   0.21642
 -8.91114   0.03363   0.21810   0.03363   0.21810
 -8.86108   0.03480   0.21985   0.03480   0.21985
 -8.81101   0.03404   0.22155   0.03404   0.22155
 -8.76095   0.03092   0.22310   0.03092   0.22310
 -8.71089   0.02603   0.22440   0.02603   0.22440
 -8.66083   0.02065   0.22544   0.02065   0.22544
 -8.61076   0.01619   0.22625   0.01619   0.22625
 -8.56070   0.01374   0.22693   0.01374   0.22693
 -8.51064   0.01374   0.22762   0.01374   0.22762
 -8.46058   0.01587   0.22842   0.01587   0.22842
 -8.41051   0.01907   0.22937   0.01907   0.22937
 -8.36045   0.02200   0.23047   0.02200   0.23047
 -8.31039   0.02365   0.23166   0.02365   0.23166
 -8.26033   0.02386   0.23285   0.02386   0.23285
 -8.21026   0.02332   0.23402   0.02332   0.23402
 -8.16020   0.02300   0.23517   0.02300   0.23517
 -8.11014   0.02353   0.23635   0.02353   0.23635
 -8.06008   0.02493   0.23759   0.02493   0.23759
 -8.01001   0.02697   0.23894   0.02697   0.23894
 -7.95995   0.02970   0.24043   0.02970   0.24043
 -7.90989   0.03356   0.24211   0.03356   0.24211
 -7.85982   0.03882   0.24406   0.03882   0.24406
 -7.80976   0.04481   0.24630   0.04481   0.24630
 -7.75970   0.04970   0.24879   0.04970   0.24879
 -7.70964   0.05126   0.25135   0.05126   0.25135
 -7.65957   0.04817   0.25376   0.04817   0.25376
 -7.60951   0.04089   0.25581   0.04089   0.25581
 -7.55945   0.03160   0.25739   0.03160   0.25739
 -7.50939   0.02322   0.25856   0.02322   0.25856
 -7.45932   0.01838   0.25948   0.01838   0.25948
 -7.40926   0.01868   0.26041   0.01868   0.26041
 -7.35920   0.02444   0.26164   0.02444   0.26164
 -7.30914   0.03456   0.26337   0.03456   0.26337
 -7.25907   0.04662   0.26570   0.04662   0.26570
 -7.20901   0.05730   0.26857   0.05730   0.26857
 -7.15895   0.06346   0.27175   0.06346   0.27175
 -7.10889   0.06341   0.27492   0.06341   0.27492
 -7.05882   0.05773   0.27781   0.05773   0.27781
 -7.00876   0.04890   0.28026   0.04890   0.28026
 -6.95870   0.04016   0.28227   0.04016   0.28227
 -6.90864   0.03400   0.28397   0.03400   0.28397
 -6.85857   0.03141   0.28554   0.03141   0.28554
 -6.80851   0.03196   0.28714   0.03196   0.28714
 -6.75845   0.03468   0.28888   0.03468   0.28888
 -6.70839   0.03874   0.29082   0.03874   0.29082
 -6.65832   0.04357   0.29300   0.04357   0.29300
 -6.60826   0.04848   0.29543   0.04848   0.29543
 -6.55820   0.05250   0.29806   0.05250   0.29806
 -6.50814   0.05475   0.30080   0.05475   0.30080
 -6.45807   0.05512   0.30356   0.05512   0.30356
 -6.40801   0.05448   0.30628   0.05448   0.30628
 -6.35795   0.05396   0.30899   0.05396   0.30899
 -6.30788   0.05391   0.31168   0.05391   0.31168
 -6.25782   0.05343   0.31436   0.05343   0.31436
 -6.20776   0.05100   0.31691   0.05100   0.31691
 -6.15770   0.04559   0.31920   0.04559   0.31920
 -6.10763   0.03750   0.32107   0.03750   0.32107
 -6.05757   0.02821   0.32248   0.02821   0.32248
 -6.00751   0.01958   0.32346   0.01958   0.32346
 -5.95745   0.01295   0.32411   0.01295   0.32411
 -5.90738   0.00871   0.32455   0.00871   0.32455
 -5.85732   0.00653   0.32488   0.00653   0.32488
 -5.80726   0.00590   0.32517   0.00590   0.32517
 -5.75720   0.00654   0.32550   0.00654   0.32550
 -5.70713   0.00852   0.32593   0.00852   0.32593
 -5.65707   0.01200   0.32653   0.01200   0.32653
 -5.60701   0.01682   0.32737   0.01682   0.32737
 -5.55695   0.02238   0.32849   0.02238   0.32849
 -5.50688   0.02793   0.32989   0.02793   0.32989
 -5.45682   0.03332   0.33155   0.03332   0.33155
 -5.40676   0.03945   0.33353   0.03945   0.33353
 -5.35670   0.04799   0.33593   0.04799   0.33593
 -5.30663   0.06008   0.33894   0.06008   0.33894
 -5.25657   0.07486   0.34269   0.07486   0.34269
 -5.20651   0.08913   0.34715   0.08913   0.34715
 -5.15645   0.09857   0.35208   0.09857   0.35208
 -5.10638   0.09998   0.35709   0.09998   0.35709
 -5.05632   0.09299   0.36175   0.09299   0.36175
 -5.00626   0.07993   0.36575   0.07993   0.36575
 -4.95620   0.06436   0.36897   0.06436   0.36897
 -4.90613   0.04925   0.37143   0.04925   0.37143
 -4.85607   0.03615   0.37324   0.03615   0.37324
 -4.80601   0.02545   0.37452   0.02545   0.37452
 -4.75594   0.01700   0.37537   0.01700   0.37537
 -4.70588   0.01062   0.37590   0.01062   0.37590
 -4.65582   0.00611   0.37621   0.00611   0.37621
 -4.60576   0.00326   0.37637   0.00326   0.37637
 -4.55569   0.00173   0.37646   0.00173   0.37646
 -4.50563   0.00128   0.37652   0.00128   0.37652
 -4.45557   0.00181   0.37661   0.00181   0.37661
 -4.40551   0.00345   0.37678   0.00345   0.37678
 -4.35544   0.00647   0.37711   0.00647   0.37711
 -4.30538   0.01111   0.37766   0.01111   0.37766
 -4.25532   0.01732   0.37853   0.01732   0.37853
 -4.20526   0.02467   0.37977   0.02467   0.37977
 -4.15519   0.03230   0.38138   0.03230   0.38138
 -4.10513   0.03917   0.38334   0.03917   0.38334
 -4.05507   0.04418   0.38556   0.04418   0.38556
 -4.00501   0.04650   0.38788   0.04650   0.38788
 -3.95494   0.04575   0.39017   0.04575   0.39017
 -3.90488   0.04227   0.39229   0.04227   0.39229
 -3.85482   0.03723   0.39415   0.03723   0.39415
 -3.80476   0.03231   0.39577   0.03231   0.39577
 -3.75469   0.02903   0.39723   0.02903   0.39723
 -3.70463   0.02810   0.39863   0.02810   0.39863
 -3.65457   0.02902   0.40008   0.02902   0.40008
 -3.60451   0.03036   0.40160   0.03036   0.40160
 -3.55444   0.03050   0.40313   0.03050   0.40313
 -3.50438   0.02844   0.40456   0.02844   0.40456
 -3.45432   0.02425   0.40577   0.02425   0.40577
 -3.40426   0.01888   0.40671   0.01888   0.40671
 -3.35419   0.01362   0.40740   0.01362   0.40740
 -3.30413   0.00945   0.40787   0.00945   0.40787
 -3.25407   0.00675   0.40821   0.00675   0.40821
 -3.20401   0.00539   0.40848   0.00539   0.40848
 -3.15394   0.00503   0.40873   0.00503   0.40873
 -3.10388   0.00534   0.40900   0.00534   0.40900
 -3.05382   0.00606   0.40930   0.00606   0.40930
 -3.00375   0.00695   0.40965   0.00695   0.40965
 -2.95369   0.00771   0.41003   0.00771   0.41003
 -2.90363   0.00803   0.41044   0.00803   0.41044
 -2.85357   0.00773   0.41082   0.00773   0.41082
 -2.80350   0.00693   0.41117   0.00693   0.41117
 -2.75344   0.00595   0.41147   0.00595   0.41147
 -2.70338   0.00519   0.41173   0.00519   0.41173
 -2.65332   0.00489   0.41197   0.00489   0.41197
 -2.60325   0.00506   0.41223   0.00506   0.41223
 -2.55319   0.00553   0.41250   0.00553   0.41250
 -2.50313   0.00607   0.41281   0.00607   0.41281
 -2.45307   0.00652   0.41313   0.00652   0.41313
 -2.40300   0.00683   0.41348   0.00683   0.41348
 -2.35294   0.00698   0.41383   0.00698   0.41383
 -2.30288   0.00689   0.41417   0.00689   0.41417
 -2.25282   0.00642   0.41449   0.00642   0.41449
 -2.20275   0.00545   0.41476   0.00545   0.41476
 -2.15269   0.00400   0.41496   0.00400   0.41496
 -2.10263   0.00222   0.41508   0.00222   0.41508
 -2.05257   0.00038   0.41509   0.00038   0.41509
 -2.00250  -0.00124   0.41503  -0.00124   0.41503
 -1.95244  -0.00240   0.41491  -0.00240   0.41491
 -1.90238  -0.00298   0.41476  -0.00298   0.41476
 -1.85232  -0.00297   0.41461  -0.00297   0.41461
 -1.80225  -0.00253   0.41449  -0.00253   0.41449
 -1.75219  -0.00188   0.41439  -0.00188   0.41439
 -1.70213  -0.00123   0.41433  -0.00123   0.41433
 -1.65207  -0.00074   0.41430  -0.00074   0.41430
 -1.60200  -0.00046   0.41427  -0.00046   0.41427
 -1.55194  -0.00043   0.41425  -0.00043   0.41425
 -1.50188  -0.00068   0.41422  -0.00068   0.41422
 -1.45181  -0.00126   0.41415  -0.00126   0.41415
 -1.40175  -0.00223   0.41404  -0.00223   0.41404
 -1.35169  -0.00357   0.41386  -0.00357   0.41386
 -1.30163  -0.00520   0.41360  -0.00520   0.41360
 -1.25156  -0.00692   0.41326  -0.00692   0.41326
 -1.20150  -0.00849   0.41283  -0.00849   0.41283
 -1.15144  -0.00968   0.41235  -0.00968   0.41235
 -1.10138  -0.01030   0.41183  -0.01030   0.41183
 -1.05131  -0.01022   0.41132  -0.01022   0.41132
 -1.00125  -0.00939   0.41085  -0.00939   0.41085
 -0.95119  -0.00791   0.41045  -0.00791   0.41045
 -0.90113  -0.00605   0.41015  -0.00605   0.41015
 -0.85106  -0.00417   0.40994  -0.00417   0.40994
 -0.80100  -0.00257   0.40981  -0.00257   0.40981
 -0.75094  -0.00141   0.40974  -0.00141   0.40974
 -0.70088  -0.00070   0.40971  -0.00070   0.40971
 -0.65081  -0.00032   0.40969  -0.00032   0.40969
 -0.60075  -0.00019   0.40968  -0.00019   0.40968
 -0.55069  -0.00023   0.40967  -0.00023   0.40967
 -0.50063  -0.00042   0.40965  -0.00042   0.40965
 -0.45056  -0.00080   0.40961  -0.00080   0.40961
 -0.40050  -0.00137   0.40954  -0.00137   0.40954
 -0.35044  -0.00207   0.40944  -0.00207   0.40944
 -0.30038  -0.00277   0.40930  -0.00277   0.40930
 -0.25031  -0.00327   0.40914  -0.00327   0.40914
 -0.20025  -0.00342   0.40896  -0.00342   0.40896
 -0.15019  -0.00315   0.40881  -0.00315   0.40881
 -0.10013  -0.00257   0.40868  -0.00257   0.40868
 -0.05006  -0.00185   0.40859  -0.00185   0.40859
 -0.00000  -0.00117   0.40853  -0.00117   0.40853
  0.05006  -0.00066   0.40849  -0.00066   0.40849
  0.10013  -0.00033   0.40848  -0.00033   0.40848
  0.15019  -0.00014   0.40847  -0.00014   0.40847
  0.20025  -0.00006   0.40847  -0.00006   0.40847
  0.25031  -0.00002   0.40847  -0.00002   0.40847
  0.30038  -0.00001   0.40847  -0.00001   0.40847
  0.35044  -0.00000   0.40847  -0.00000   0.40847
  0.40050  -0.00000   0.40847  -0.00000   0.40847
  0.45056  -0.00000   0.40847  -0.00000   0.40847
  0.50063  -0.00000   0.40847  -0.00000   0.40847
  0.55069  -0.00000   0.40847  -0.00000   0.40847
  0.60075  -0.00000   0.40847  -0.00000   0.40847
  0.65081  -0.00000   0.40847  -0.00000   0.40847
  0.70088  -0.00000   0.40847  -0.00000   0.40847
  0.75094  -0.00000   0.40847  -0.00000   0.40847
  0.80100  -0.00000   0.40847  -0.00000   0.40847
  0.85106  -0.00000   0.40847  -0.00000   0.40847
  0.90113  -0.00000   0.40847  -0.00000   0.40847
  0.95119   0.00000   0.40847   0.00000   0.40847
  1.00125   0.00000   0.40847   0.00000   0.40847
  1.05131   0.00000   0.40847   0.00000   0.40847
  1.10138   0.00000   0.40847   0.00000   0.40847
  1.15144   0.00000   0.40847   0.00000   0.40847
  1.20150   0.00000   0.40847   0.00000   0.40847
  1.25156   0.00000   0.40847   0.00000   0.40847
  1.30163   0.00000   0.40847   0.00000   0.40847
  1.35169   0.00000   0.40847   0.00000   0.40847
  1.40175   0.00000   0.40847   0.00000   0.40847
  1.45181   0.00000   0.40847   0.00000   0.40847
  1.50188   0.00000   0.40847   0.00000   0.40847
  1.55194   0.00000   0.40847   0.00000   0.40847
  1.60200   0.00000   0.40847   0.00000   0.40847
  1.65207   0.00000   0.40847   0.00000   0.40847
  1.70213   0.00000   0.40847   0.00000   0.40847
  1.75219   0.00000   0.40847   0.00000   0.40847
  1.80225   0.00000   0.40847   0.00000   0.40847
  1.85232   0.00000   0.40847   0.00000   0.40847
  1.90238   0.00000   0.40847   0.00000   0.40847
  1.95244   0.00000   0.40847   0.00000   0.40847
  2.00250   0.00000   0.40847   0.00000   0.40847
  2.05257   0.00000   0.40847   0.00000   0.40847
  2.10263   0.00000   0.40847   0.00000   0.40847
  2.15269   0.00000   0.40847   0.00000   0.40847
  2.20275   0.00000   0.40847   0.00000   0.40847
  2.25282   0.00000   0.40847   0.00000   0.40847
  2.30288   0.00000   0.40847   0.00000   0.40847
  2.35294   0.00000   0.40847   0.00000   0.40847
  2.40300   0.00000   0.40847   0.00000   0.40847
  2.45307   0.00000   0.40847   0.00000   0.40847
  2.50313   0.00000   0.40847   0.00000   0.40847
  2.55319   0.00000   0.40847   0.00000   0.40847
  2.60325   0.00000   0.40847   0.00000   0.40847
  2.65332   0.00000   0.40847   0.00000   0.40847
  2.70338   0.00000   0.40847   0.00000   0.40847
  2.75344   0.00000   0.40847   0.00000   0.40847
  2.80350   0.00000   0.40847   0.00000   0.40847
  2.85357   0.00000   0.40847   0.00000   0.40847
  2.90363  -0.00000   0.40847  -0.00000   0.40847
  2.95369  -0.00000   0.40847  -0.00000   0.40847
  3.00375  -0.00000   0.40847  -0.00000   0.40847
  3.05382  -0.00000   0.40847  -0.00000   0.40847
  3.10388  -0.00000   0.40847  -0.00000   0.40847
  3.15394  -0.00000   0.40847  -0.00000   0.40847
  3.20401  -0.00000   0.40847  -0.00000   0.40847
  3.25407  -0.00000   0.40847  -0.00000   0.40847
  3.30413  -0.00000   0.40847  -0.00000   0.40847
  3.35419  -0.00000   0.40847  -0.00000   0.40847
  3.40426  -0.00000   0.40847  -0.00000   0.40847
  3.45432  -0.00001   0.40847  -0.00001   0.40847
  3.50438  -0.00002   0.40846  -0.00002   0.40846
  3.55444  -0.00009   0.40846  -0.00009   0.40846
  3.60451  -0.00028   0.40845  -0.00028   0.40845
  3.65457  -0.00079   0.40841  -0.00079   0.40841
  3.70463  -0.00195   0.40831  -0.00195   0.40831
  3.75469  -0.00426   0.40810  -0.00426   0.40810
  3.80476  -0.00822   0.40768  -0.00822   0.40768
  3.85482  -0.01401   0.40698  -0.01401   0.40698
  3.90488  -0.02112   0.40593  -0.02112   0.40593
  3.95494  -0.02813   0.40452  -0.02813   0.40452
  4.00501  -0.03310   0.40286  -0.03310   0.40286
  4.05507  -0.03443   0.40114  -0.03443   0.40114
  4.10513  -0.03165   0.39955  -0.03165   0.39955
  4.15519  -0.02571   0.39827  -0.02571   0.39827
  4.20526  -0.01846   0.39734  -0.01846   0.39734
  4.25532  -0.01172   0.39675  -0.01172   0.39675
  4.30538  -0.00662   0.39642  -0.00662   0.39642
  4.35544  -0.00346   0.39625  -0.00346   0.39625
  4.40551  -0.00208   0.39615  -0.00208   0.39615
  4.45557  -0.00239   0.39603  -0.00239   0.39603
  4.50563  -0.00477   0.39579  -0.00477   0.39579
  4.55569  -0.01017   0.39528  -0.01017   0.39528
  4.60576  -0.01994   0.39428  -0.01994   0.39428
  4.65582  -0.03511   0.39252  -0.03511   0.39252
  4.70588  -0.05557   0.38974  -0.05557   0.38974
  4.75594  -0.07945   0.38576  -0.07945   0.38576
  4.80601  -0.10313   0.38060  -0.10313   0.38060
  4.85607  -0.12211   0.37449  -0.12211   0.37449
  4.90613  -0.13233   0.36786  -0.13233   0.36786
  4.95620  -0.13140   0.36128  -0.13140   0.36128
  5.00626  -0.11940   0.35531  -0.11940   0.35531
  5.05632  -0.09911   0.35035  -0.09911   0.35035
  5.10638  -0.07528   0.34658  -0.07528   0.34658
  5.15645  -0.05333   0.34391  -0.05333   0.34391
  5.20651  -0.03775   0.34202  -0.03775   0.34202
  5.25657  -0.03090   0.34047  -0.03090   0.34047
  5.30663  -0.03256   0.33884  -0.03256   0.33884
  5.35670  -0.04019   0.33683  -0.04019   0.33683
  5.40676  -0.04982   0.33433  -0.04982   0.33433
  5.45682  -0.05768   0.33145  -0.05768   0.33145
  5.50688  -0.06191   0.32835  -0.06191   0.32835
  5.55695  -0.06367   0.32516  -0.06367   0.32516
  5.60701  -0.06655   0.32183  -0.06655   0.32183
  5.65707  -0.07442   0.31810  -0.07442   0.31810
  5.70713  -0.08870   0.31366  -0.08870   0.31366
  5.75720  -0.10669   0.30832  -0.10669   0.30832
  5.80726  -0.12217   0.30221  -0.12217   0.30221
  5.85732  -0.12830   0.29578  -0.12830   0.29578
  5.90738  -0.12120   0.28972  -0.12120   0.28972
  5.95745  -0.10204   0.28461  -0.10204   0.28461
  6.00751  -0.07615   0.28079  -0.07615   0.28079
  6.05757  -0.05010   0.27829  -0.05010   0.27829
  6.10763  -0.02862   0.27685  -0.02862   0.27685
  6.15770  -0.01333   0.27619  -0.01333   0.27619
  6.20776  -0.00344   0.27601  -0.00344   0.27601
  6.25782   0.00275   0.27615   0.00275   0.27615
  6.30788   0.00639   0.27647   0.00639   0.27647
  6.35795   0.00740   0.27684   0.00740   0.27684
  6.40801   0.00436   0.27706   0.00436   0.27706
  6.45807  -0.00534   0.27679  -0.00534   0.27679
  6.50814  -0.02492   0.27555  -0.02492   0.27555
  6.55820  -0.05715   0.27268  -0.05715   0.27268
  6.60826  -0.10252   0.26755  -0.10252   0.26755
  6.65832  -0.15753   0.25967  -0.15753   0.25967
  6.70839  -0.21420   0.24894  -0.21420   0.24894
  6.75845  -0.26201   0.23582  -0.26201   0.23582
  6.80851  -0.29154   0.22123  -0.29154   0.22123
  6.85857  -0.29784   0.20632  -0.29784   0.20632
  6.90864  -0.28148   0.19223  -0.28148   0.19223
  6.95870  -0.24732   0.17985  -0.24732   0.17985
  7.00876  -0.20237   0.16971  -0.20237   0.16971
  7.05882  -0.15409   0.16200  -0.15409   0.16200
  7.10889  -0.10927   0.15653  -0.10927   0.15653
  7.15895  -0.07330   0.15286  -0.07330   0.15286
  7.20901  -0.04958   0.15038  -0.04958   0.15038
  7.25907  -0.03928   0.14841  -0.03928   0.14841
  7.30914  -0.04127   0.14635  -0.04127   0.14635
  7.35920  -0.05229   0.14373  -0.05229   0.14373
  7.40926  -0.06724   0.14036  -0.06724   0.14036
  7.45932  -0.08035   0.13634  -0.08035   0.13634
  7.50939  -0.08737   0.13197  -0.08737   0.13197
  7.55945  -0.08801   0.12756  -0.08801   0.12756
  7.60951  -0.08718   0.12319  -0.08718   0.12319
  7.65957  -0.09396   0.11849  -0.09396   0.11849
  7.70964  -0.11829   0.11257  -0.11829   0.11257