   2    2    1    1
  1.1409437e+01   2.5269292e-10   2.5269292e-10   2.5269292e-10   5.0000000e-16
            1.000000e-04
  CAR
 DOS and projected DOS file by LOBSTER. Energy is shifted such that the Fermi level lies at 0 eV. 
     27.90180869     -12.14825389   801       9.87928053       1.00000000
-22.02753   0.00000   0.00002
-21.97747   0.00055   0.00004
-21.92741   0.00130   0.00011
-21.87735   0.00270   0.00024
-21.82728   0.00494   0.00049
-21.77722   0.00801   0.00089
-21.72716   0.01147   0.00147
-21.67710   0.01451   0.00219
-21.62703   0.01624   0.00301
-21.57697   0.01612   0.00381
-21.52691   0.01437   0.00453
-21.47685   0.01206   0.00514
-21.42678   0.01094   0.00568
-21.37672   0.01323   0.00635
-21.32666   0.02135   0.00741
-21.27660   0.03742   0.00929
-21.22653   0.06223   0.01240
-21.17647   0.09402   0.01711
-21.12641   0.12818   0.02353
-21.07635   0.15835   0.03145
-21.02628   0.17872   0.04040
-20.97622   0.18593   0.04971
-20.92616   0.17963   0.05870
-20.87610   0.16168   0.06680
-20.82603   0.13526   0.07357
-20.77597   0.10450   0.07880
-20.72591   0.07388   0.08250
-20.67584   0.04743   0.08487
-20.62578   0.02763   0.08626
-20.57572   0.01517   0.08702
-20.52566   0.00964   0.08750
-20.47559   0.01084   0.08804
-20.42553   0.01968   0.08903
-20.37547   0.03808   0.09093
-20.32541   0.06737   0.09431
-20.27534   0.10591   0.09961
-20.22528   0.14720   0.10698
-20.17522   0.18078   0.11603
-20.12516   0.19623   0.12585
-20.07509   0.18849   0.13529
-20.02503   0.16110   0.14335
-19.97497   0.12501   0.14961
-19.92491   0.09442   0.15434
-19.87484   0.08239   0.15846
-19.82478   0.09815   0.16338
-19.77472   0.14535   0.17065
-19.72466   0.22001   0.18167
-19.67459   0.30892   0.19713
-19.62453   0.39140   0.21673
-19.57447   0.44586   0.23905
-19.52441   0.45855   0.26200
-19.47434   0.42882   0.28347
-19.42428   0.36760   0.30188
-19.37422   0.29093   0.31644
-19.32416   0.21348   0.32713
-19.27409   0.14521   0.33440
-19.22403   0.09117   0.33896
-19.17397   0.05251   0.34159
-19.12390   0.02774   0.34298
-19.07384   0.01399   0.34368
-19.02378   0.00838   0.34410
-18.97372   0.00906   0.34455
-18.92365   0.01548   0.34533
-18.87359   0.02778   0.34672
-18.82353   0.04549   0.34899
-18.77347   0.06614   0.35231
-18.72340   0.08505   0.35656
-18.67334   0.09675   0.36141
-18.62328   0.09767   0.36630
-18.57322   0.08857   0.37073
-18.52315   0.07510   0.37449
-18.47309   0.06654   0.37782
-18.42303   0.07348   0.38150
-18.37297   0.10524   0.38677
-18.32290   0.16701   0.39513
-18.27284   0.25684   0.40799
-18.22278   0.36414   0.42622
-18.17272   0.47156   0.44983
-18.12265   0.56037   0.47788
-18.07259   0.61587   0.50871
-18.02253   0.62994   0.54025
-17.97247   0.60072   0.57032
-17.92240   0.53209   0.59696
-17.87234   0.43437   0.61870
-17.82228   0.32382   0.63492
-17.77222   0.21877   0.64587
-17.72215   0.13395   0.65257
-17.67209   0.07684   0.65642
-17.62203   0.04855   0.65885
-17.57196   0.04767   0.66124
-17.52190   0.07345   0.66491
-17.47184   0.12529   0.67119
-17.42178   0.19880   0.68114
-17.37171   0.28144   0.69523
-17.32165   0.35271   0.71289
-17.27159   0.39092   0.73246
-17.22153   0.38378   0.75167
-17.17146   0.33570   0.76848
-17.12140   0.26658   0.78182
-17.07134   0.20313   0.79199
-17.02128   0.16845   0.80042
-16.97121   0.17531   0.80920
-16.92115   0.22409   0.82042
-16.87109   0.30338   0.83561
-16.82103   0.39196   0.85523
-16.77096   0.46347   0.87843
-16.72090   0.49433   0.90318
-16.67084   0.47287   0.92685
-16.62078   0.40442   0.94710
-16.57071   0.30852   0.96255
-16.52065   0.20956   0.97304
-16.47059   0.12657   0.97937
-16.42053   0.06807   0.98278
-16.37046   0.03317   0.98444
-16.32040   0.01640   0.98526
-16.27034   0.01249   0.98589
-16.22028   0.01888   0.98683
-16.17021   0.03570   0.98862
-16.12015   0.06385   0.99182
-16.07009   0.10217   0.99693
-16.02003   0.14553   1.00422
-15.96996   0.18584   1.01352
-15.91990   0.21670   1.02437
-15.86984   0.23966   1.03637
-15.81977   0.26753   1.04976
-15.76971   0.32098   1.06583
-15.71965   0.41877   1.08679
-15.66959   0.56588   1.11512
-15.61952   0.74576   1.15246
-15.56946   0.92134   1.19858
-15.51940   1.04593   1.25094
-15.46934   1.08091   1.30506
-15.41927   1.01273   1.35576
-15.36921   0.86005   1.39881
-15.31915   0.66567   1.43214
-15.26909   0.47713   1.45603
-15.21902   0.32724   1.47241
-15.16896   0.22544   1.48369
-15.11890   0.16245   1.49183
-15.06884   0.12220   1.49794
-15.01877   0.09207   1.50255
-14.96871   0.06710   1.50591
-14.91865   0.04864   1.50835
-14.86859   0.04137   1.51042
-14.81852   0.05105   1.51297
-14.76846   0.08308   1.51713
-14.71840   0.14020   1.52415
-14.66834   0.21916   1.53512
-14.61827   0.30850   1.55057
-14.56821   0.39107   1.57015
-14.51815   0.45173   1.59276
-14.46809   0.48540   1.61706
-14.41802   0.49837   1.64201
-14.36796   0.50061   1.66707
-14.31790   0.49550   1.69188
-14.26783   0.47644   1.71573
-14.21777   0.43348   1.73743
-14.16771   0.36382   1.75565
-14.11765   0.27655   1.76949
-14.06758   0.18825   1.77891
-14.01752   0.11401   1.78462
-13.96746   0.06123   1.78769
-13.91740   0.02910   1.78914
-13.86733   0.01223   1.78976
-13.81727   0.00457   1.78999
-13.76721   0.00160   1.79007
-13.71715   0.00085   1.79011
-13.66708   0.00156   1.79019
-13.61702   0.00444   1.79041
-13.56696   0.01194   1.79101
-13.51690   0.02847   1.79243
-13.46683   0.06003   1.79544
-13.41677   0.11198   1.80104
-13.36671   0.18500   1.81030
-13.31665   0.27153   1.82390
-13.26658   0.35624   1.84173
-13.21652   0.42291   1.86290
-13.16646   0.46454   1.88616
-13.11640   0.48902   1.91064
-13.06633   0.51370   1.93636
-13.01627   0.55143   1.96396
-12.96621   0.59846   1.99393
-12.91615   0.63502   2.02572
-12.86608   0.63887   2.05770
-12.81602   0.60123   2.08780
-12.76596   0.53239   2.11445
-12.71589   0.45361   2.13716
-12.66583   0.38343   2.15636
-12.61577   0.32939   2.17285
-12.56571   0.28951   2.18734
-12.51564   0.25860   2.20029
-12.46558   0.23266   2.21193
-12.41552   0.20897   2.22240
-12.36546   0.18470   2.23164
-12.31539   0.15751   2.23953
-12.26533   0.12782   2.24593
-12.21527   0.10043   2.25095
-12.16521   0.08380   2.25515
-12.11514   0.08737   2.25952
-12.06508   0.11822   2.26544
-12.01502   0.17722   2.27431
-11.96496   0.25618   2.28714
-11.91489   0.33810   2.30406
-11.86483   0.40319   2.32425
-11.81477   0.43885   2.34622
-11.76471   0.44714   2.36860
-11.71464   0.44284   2.39077
-11.66458   0.44233   2.41292
-11.61452   0.45164   2.43553
-11.56446   0.46435   2.45878
-11.51439   0.47142   2.48238
-11.46433   0.47445   2.50613
-11.41427   0.48970   2.53064
-11.36421   0.53716   2.55754
-11.31414   0.62175   2.58866
-11.26408   0.72151   2.62478
-11.21402   0.79412   2.66454
-11.16395   0.79942   2.70456
-11.11389   0.72305   2.74076
-11.06383   0.58494   2.77004
-11.01377   0.42856   2.79150
-10.96370   0.30071   2.80655
-10.91364   0.23570   2.81835
-10.86358   0.24971   2.83085
-10.81352   0.34093   2.84792
-10.76345   0.48957   2.87243
-10.71339   0.65801   2.90537
-10.66333   0.79693   2.94527
-10.61327   0.86089   2.98836
-10.56320   0.82731   3.02978
-10.51314   0.70674   3.06516
-10.46308   0.53661   3.09203
-10.41302   0.36240   3.11017
-10.36295   0.21876   3.12112
-10.31289   0.12105   3.12718
-10.26283   0.06846   3.13061
-10.21277   0.05258   3.13324
-10.16270   0.06401   3.13645
-10.11264   0.09419   3.14116
-10.06258   0.13361   3.14785
-10.01252   0.17063   3.15639
 -9.96245   0.19325   3.16607
 -9.91239   0.19352   3.17576
 -9.86233   0.17130   3.18433
 -9.81227   0.13430   3.19105
 -9.76220   0.09423   3.19577
 -9.71214   0.06206   3.19888
 -9.66208   0.04585   3.20117
 -9.61202   0.05159   3.20376
 -9.56195   0.08526   3.20803
 -9.51189   0.15277   3.21567
 -9.46183   0.25637   3.22851
 -9.41176   0.38909   3.24799
 -9.36170   0.53119   3.27458
 -9.31164   0.65316   3.30728
 -9.26158   0.72586   3.34362
 -9.21151   0.73378   3.38035
 -9.16145   0.68390   3.41459
 -9.11139   0.60407   3.44483
 -9.06133   0.53064   3.47140
 -9.01126   0.49124   3.49599
 -8.96120   0.49230   3.52064
 -8.91114   0.51809   3.54657
 -8.86108   0.54133   3.57367
 -8.81101   0.53812   3.60061
 -8.76095   0.49876   3.62558
 -8.71089   0.43000   3.64711
 -8.66083   0.35038   3.66465
 -8.61076   0.28265   3.67880
 -8.56070   0.24624   3.69113
 -8.51064   0.25071   3.70368
 -8.46058   0.29149   3.71827
 -8.41051   0.35048   3.73582
 -8.36045   0.40324   3.75600
 -8.31039   0.43095   3.77758
 -8.26033   0.43008   3.79911
 -8.21026   0.41278   3.81977
 -8.16020   0.39742   3.83967
 -8.11014   0.39647   3.85952
 -8.06008   0.41170   3.88013
 -8.01001   0.43949   3.90213
 -7.95995   0.47993   3.92616
 -7.90989   0.53902   3.95314
 -7.85982   0.62029   3.98419
 -7.80976   0.71265   4.01987
 -7.75970   0.78720   4.05928
 -7.70964   0.80913   4.09979
 -7.65957   0.75809   4.13774
 -7.60951   0.64223   4.16989
 -7.55945   0.49658   4.19475
 -7.50939   0.36818   4.21318
 -7.45932   0.29927   4.22817
 -7.40926   0.31627   4.24400
 -7.35920   0.42474   4.26526
 -7.30914   0.60656   4.29563
 -7.25907   0.81987   4.33667
 -7.20901   1.00714   4.38709
 -7.15895   1.11387   4.44286
 -7.10889   1.11136   4.49849
 -7.05882   1.01017   4.54907
 -7.00876   0.85482   4.59186
 -6.95870   0.70205   4.62701
 -6.90864   0.59569   4.65683
 -6.85857   0.55254   4.68449
 -6.80851   0.56536   4.71279
 -6.75845   0.61695   4.74368
 -6.70839   0.69265   4.77836
 -6.65832   0.78183   4.81750
 -6.60826   0.87109   4.86111
 -6.55820   0.94095   4.90821
 -6.50814   0.97378   4.95696
 -6.45807   0.96707   5.00538
 -6.40801   0.93749   5.05231
 -6.35795   0.90837   5.09778
 -6.30788   0.89023   5.14235
 -6.25782   0.87126   5.18597
 -6.20776   0.82658   5.22735
 -6.15770   0.73819   5.26431
 -6.10763   0.60953   5.29482
 -6.05757   0.46429   5.31806
 -6.00751   0.33237   5.33470
 -5.95745   0.23439   5.34644
 -5.90738   0.17480   5.35519
 -5.85732   0.14575   5.36248
 -5.80726   0.13666   5.36933
 -5.75720   0.14238   5.37645
 -5.70713   0.16518   5.38472
 -5.65707   0.21002   5.39524
 -5.60701   0.27756   5.40913
 -5.55695   0.36124   5.42722
 -5.50688   0.45291   5.44989
 -5.45682   0.55446   5.47765
 -5.40676   0.68555   5.51197
 -5.35670   0.87610   5.55583
 -5.30663   1.14250   5.61303
 -5.25657   1.46194   5.68622
 -5.20651   1.76682   5.77467
 -5.15645   1.97006   5.87329
 -5.10638   2.00839   5.97384
 -5.05632   1.87406   6.06766
 -5.00626   1.61369   6.14844
 -4.95620   1.29830   6.21344
 -4.90613   0.98893   6.26295
 -4.85607   0.71948   6.29897
 -4.80601   0.50006   6.32400
 -4.75594   0.32916   6.34048
 -4.70588   0.20247   6.35062
 -4.65582   0.11519   6.35638
 -4.60576   0.06146   6.35946
 -4.55569   0.03509   6.36122
 -4.50563   0.03209   6.36282
 -4.45557   0.05324   6.36549
 -4.40551   0.10458   6.37072
 -4.35544   0.19445   6.38046
 -4.30538   0.32763   6.39686
 -4.25532   0.49944   6.42186
 -4.20526   0.69348   6.45658
 -4.15519   0.88520   6.50090
 -4.10513   1.04888   6.55341
 -4.05507   1.16334   6.61164
 -4.00501   1.21436   6.67244
 -3.95494   1.19650   6.73234
 -3.90488   1.11693   6.78826
 -3.85482   0.99899   6.83827
 -3.80476   0.87909   6.88228
 -3.75469   0.79370   6.92201
 -3.70463   0.76166   6.96014
 -3.65457   0.77342   6.99886
 -3.60451   0.79552   7.03869
 -3.55444   0.78895   7.07818
 -3.50438   0.73024   7.11474
 -3.45432   0.62258   7.14591
 -3.40426   0.49137   7.17051
 -3.35419   0.36880   7.18897
 -3.30413   0.27823   7.20290
 -3.25407   0.22722   7.21428
 -3.20401   0.21126   7.22485
 -3.15394   0.22305   7.23602
 -3.10388   0.25939   7.24901
 -3.05382   0.32075   7.26506
 -3.00375   0.40481   7.28533
 -2.95369   0.49982   7.31035
 -2.90363   0.58453   7.33961
 -2.85357   0.63648   7.37148
 -2.80350   0.64410   7.40372
 -2.75344   0.61423   7.43447
 -2.70338   0.56888   7.46295
 -2.65332   0.53249   7.48961
 -2.60325   0.51837   7.51556
 -2.55319   0.52397   7.54179
 -2.50313   0.53762   7.56871
 -2.45307   0.54951   7.59622
 -2.40300   0.55676   7.62409
 -2.35294   0.55925   7.65209
 -2.30288   0.55286   7.67977
 -2.25282   0.52850   7.70622
 -2.20275   0.47899   7.73020
 -2.15269   0.40683   7.75057
 -2.10263   0.32510   7.76685
 -2.05257   0.25036   7.77938
 -2.00250   0.19339   7.78906
 -1.95244   0.15487   7.79681
 -1.90238   0.12803   7.80322
 -1.85232   0.10493   7.80848
 -1.80225   0.08140   7.81255
 -1.75219   0.05790   7.81545
 -1.70213   0.03730   7.81732
 -1.65207   0.02232   7.81843
 -1.60200   0.01445   7.81916
 -1.55194   0.01458   7.81989
 -1.50188   0.02414   7.82110
 -1.45181   0.04536   7.82337
 -1.40175   0.08031   7.82739
 -1.35169   0.12889   7.83384
 -1.30163   0.18737   7.84322
 -1.25156   0.24862   7.85567
 -1.20150   0.30408   7.87089
 -1.15144   0.34568   7.88820
 -1.10138   0.36688   7.90656
 -1.05131   0.36302   7.92474
 -1.00125   0.33268   7.94139
 -0.95119   0.27971   7.95539
 -0.90113   0.21366   7.96609
 -0.85106   0.14703   7.97345
 -0.80100   0.09058   7.97799
 -0.75094   0.04974   7.98048
 -0.70088   0.02436   7.98170
 -0.65081   0.01086   7.98224
 -0.60075   0.00509   7.98249
 -0.55069   0.00404   7.98270
 -0.50063   0.00630   7.98301
 -0.45056   0.01155   7.98359
 -0.40050   0.01964   7.98457
 -0.35044   0.02971   7.98606
 -0.30038   0.03974   7.98805
 -0.25031   0.04696   7.99040
 -0.20025   0.04902   7.99285
 -0.15019   0.04520   7.99512
 -0.10013   0.03682   7.99696
 -0.05006   0.02649   7.99829
 -0.00000   0.01684   7.99913
  0.05006   0.00946   7.99960
  0.10013   0.00469   7.99984
  0.15019   0.00205   7.99994
  0.20025   0.00080   7.99998
  0.25031   0.00027   7.99999
  0.30038   0.00008   8.00000
  0.35044   0.00002   8.00000
  0.40050   0.00001   8.00000
  0.45056   0.00000   8.00000
  0.50063   0.00000   8.00000
  0.55069   0.00000   8.00000
  0.60075   0.00000   8.00000
  0.65081   0.00000   8.00000
  0.70088   0.00000   8.00000
  0.75094   0.00000   8.00000
  0.80100   0.00000   8.00000
  0.85106   0.00000   8.00000
  0.90113   0.00000   8.00000
  0.95119   0.00000   8.00000
  1.00125   0.00000   8.00000
  1.05131   0.00000   8.00000
  1.10138   0.00000   8.00000
  1.15144   0.00000   8.00000
  1.20150   0.00000   8.00000
  1.25156   0.00000   8.00000
  1.30163   0.00000   8.00000
  1.35169   0.00000   8.00000
  1.40175   0.00000   8.00000
  1.45181   0.00000   8.00000
  1.50188   0.00000   8.00000
  1.55194   0.00000   8.00000
  1.60200   0.00000   8.00000
  1.65207   0.00000   8.00000
  1.70213   0.00000   8.00000
  1.75219   0.00000   8.00000
  1.80225   0.00000   8.00000
  1.85232   0.00000   8.00000
  1.90238   0.00000   8.00000
  1.95244   0.00000   8.00000
  2.00250   0.00000   8.00000
  2.05257   0.00000   8.00000
  2.10263   0.00000   8.00000
  2.15269   0.00000   8.00000
  2.20275   0.00000   8.00000
  2.25282   0.00000   8.00000
  2.30288   0.00000   8.00000
  2.35294   0.00000   8.00000
  2.40300   0.00000   8.00000
  2.45307   0.00000   8.00000
  2.50313   0.00000   8.00000
  2.55319   0.00000   8.00000
  2.60325   0.00000   8.00000
  2.65332   0.00000   8.00000
  2.70338   0.00000   8.00000
  2.75344   0.00000   8.00000
  2.80350   0.00000   8.00000
  2.85357   0.00000   8.00000
  2.90363   0.00000   8.00000
  2.95369   0.00000   8.00000
  3.00375   0.00000   8.00000
  3.05382   0.00000   8.00000
  3.10388   0.00000   8.00000
  3.15394   0.00000   8.00000
  3.20401   0.00000   8.00000
  3.25407   0.00000   8.00000
  3.30413   0.00000   8.00000
  3.35419   0.00000   8.00000
  3.40426   0.00001   8.00000
  3.45432   0.00003   8.00000
  3.50438   0.00012   8.00001
  3.55444   0.00044   8.00003
  3.60451   0.00141   8.00010
  3.65457   0.00399   8.00030
  3.70463   0.01000   8.00080
  3.75469   0.02214   8.00191
  3.80476   0.04335   8.00408
  3.85482   0.07500   8.00783
  3.90488   0.11472   8.01358
  3.95494   0.15509   8.02134
  4.00501   0.18535   8.03062
  4.05507   0.19580   8.04042
  4.10513   0.18284   8.04958
  4.15519   0.15092   8.05713
  4.20526   0.11013   8.06265
  4.25532   0.07107   8.06620
  4.30538   0.04071   8.06824
  4.35544   0.02119   8.06930
  4.40551   0.01161   8.06988
  4.45557   0.01070   8.07042
  4.50563   0.01915   8.07138
  4.55569   0.04042   8.07340
  4.60576   0.08004   8.07741
  4.65582   0.14301   8.08457
  4.70588   0.23015   8.09609
  4.75594   0.33497   8.11286
  4.80601   0.44301   8.13504
  4.85607   0.53455   8.16180
  4.90613   0.58991   8.19133
  4.95620   0.59568   8.22115
  5.00626   0.54987   8.24868
  5.05632   0.46381   8.27190
  5.10638   0.35923   8.28988
  5.15645   0.26090   8.30294
  5.20651   0.18811   8.31236
  5.25657   0.14946   8.31984
  5.30663   0.14325   8.32702
  5.35670   0.16220   8.33514
  5.40676   0.19929   8.34511
  5.45682   0.25113   8.35769
  5.50688   0.31735   8.37357
  5.55695   0.39668   8.39343
  5.60701   0.48283   8.41760
  5.65707   0.56377   8.44583
  5.70713   0.62478   8.47711
  5.75720   0.65302   8.50980
  5.80726   0.64067   8.54187
  5.85732   0.58663   8.57124
  5.90738   0.49755   8.59615
  5.95745   0.38782   8.61556
  6.00751   0.27687   8.62942
  6.05757   0.18369   8.63862
  6.10763   0.12168   8.64471
  6.15770   0.09641   8.64954
  6.20776   0.10621   8.65485
  6.25782   0.14357   8.66204
  6.30788   0.19640   8.67187
  6.35795   0.25115   8.68445
  6.40801   0.29944   8.69944
  6.45807   0.34611   8.71677
  6.50814   0.41272   8.73743
  6.55820   0.53020   8.76397
  6.60826   0.72110   8.80007
  6.65832   0.97974   8.84912
  6.70839   1.26354   8.91238
  6.75845   1.50428   8.98768
  6.80851   1.63552   9.06956
  6.85857   1.62144   9.15074
  6.90864   1.46996   9.22432
  6.95870   1.22447   9.28563
  7.00876   0.94219   9.33279
  7.05882   0.67334   9.36650
  7.10889   0.45082   9.38907
  7.15895   0.29028   9.40360
  7.20901   0.19534   9.41338
  7.25907   0.16256   9.42152
  7.30914   0.18312   9.43069
  7.35920   0.24198   9.44280
  7.40926   0.31752   9.45870
  7.45932   0.38548   9.47800
  7.50939   0.42824   9.49944
  7.55945   0.44456   9.52169
  7.60951   0.45257   9.54435
  7.65957   0.48203   9.56848
  7.70964   0.56008   9.59652
  7.75970   0.69902   9.63151
  7.80976   0.89331   9.67623
  7.85982   1.12581   9.73260
  7.90989   1.37742   9.80155
  7.95995   1.63235   9.88327
  8.01001   1.87557   9.97717
  8.06008   2.08589  10.08159
  8.11014   2.23426  10.19345
  8.16020   2.29339  10.30826
  8.21026   2.25369  10.42109
  8.26033   2.13159  10.52780
  8.31039   1.96024  10.62593
  8.36045   1.76861  10.71447
  8.41051   1.56633  10.79289
  8.46058   1.34682  10.86031
  8.51064   1.10444  10.91561
  8.56070   0.84929  10.95812
  8.61076   0.60736  10.98853
  8.66083   0.40743  11.00893
  8.71089   0.26630  11.02226
  8.76095   0.18238  11.03139
  8.81101   0.13996  11.03840
  8.86108   0.11881  11.04434
  8.91114   0.10309  11.04950
  8.96120   0.08577  11.05380
  9.01126   0.06834  11.05722
  9.06133   0.05837  11.06014
  9.11139   0.06730  11.06351
  9.16145   0.10926  11.06898
  9.21151   0.19907  11.07895
  9.26158   0.34676  11.09631
  9.31164   0.54901  11.12379
  9.36170   0.78271  11.16297
  9.41176   1.00801  11.21344
  9.46183   1.18289  11.27266
  9.51189   1.28233  11.33685
  9.56195   1.30932  11.40240
  9.61202   1.29060  11.46701
  9.66208   1.26064  11.53012
  9.71214   1.24518  11.59246
  9.76220   1.25280  11.65518
  9.81227   1.27552  11.71903
  9.86233   1.29499  11.78386
  9.91239   1.29179  11.84854
  9.96245   1.25583  11.91141
 10.01252   1.19377  11.97117
 10.06258   1.12757  12.02762
 10.11264   1.08243  12.08181
 10.16270   1.07066  12.13541
 10.21277   1.08190  12.18957
 10.26283   1.08659  12.24397
 10.31289   1.05049  12.29656
 10.36295   0.95243  12.34424
 10.41302   0.79528  12.38405
 10.46308   0.60446  12.41431
 10.51314   0.41554  12.43512
 10.56320   0.25890  12.44808
 10.61327   0.15057  12.45561
 10.66333   0.09251  12.46025
 10.71339   0.07892  12.46420
 10.76345   0.10246  12.46933
 10.81352   0.15663  12.47717
 10.86358   0.23434  12.48890
 10.91364   0.32539  12.50519
 10.96370   0.41512  12.52597
 11.01377   0.48576  12.55029
 11.06383   0.52074  12.57636
 11.11389   0.51126  12.60195
 11.16395   0.46207  12.62509
 11.21402   0.39248  12.64473
 11.26408   0.33001  12.66126
 11.31414   0.29859  12.67620
 11.36421   0.30712  12.69158
 11.41427   0.34479  12.70884
 11.46433   0.38656  12.72819
 11.51439   0.40650  12.74854
 11.56446   0.39210  12.76817
 11.61452   0.35134  12.78576
 11.66458   0.30814  12.80119
 11.71464   0.28943  12.81568
 11.76471   0.31126  12.83126
 11.81477   0.37186  12.84988
 11.86483   0.45420  12.87261
 11.91489   0.53533  12.89941
 11.96496   0.59636  12.92927
 12.01502   0.62786  12.96070
 12.06508   0.63034  12.99226
 12.11514   0.61353  13.02297
 12.16521   0.59665  13.05284
 12.21527   0.60658  13.08321
 12.26533   0.66956  13.11673
 12.31539   0.79775  13.15667
 12.36546   0.97882  13.20567
 12.41552   1.17735  13.26461
 12.46558   1.34798  13.33209
 12.51564   1.45231  13.40480
 12.56571   1.47030  13.47841
 12.61577   1.40367  13.54868
 12.66583   1.27332  13.61242
 12.71589   1.11229  13.66811
 12.76596   0.95414  13.71587
 12.81602   0.81988  13.75692
 12.86608   0.71120  13.79252
 12.91615   0.61610  13.82337
 12.96621   0.52409  13.84961
 13.01627   0.44020  13.87164
 13.06633   0.38891  13.89111
 13.11640   0.40611  13.91144
 13.16646   0.52369  13.93766
 13.21652   0.75240  13.97533
 13.26658   1.06904  14.02885
 13.31665   1.41495  14.09968
 13.36671   1.71138  14.18536
 13.41677   1.88850  14.27990
 13.46683   1.91364  14.37570
 13.51690   1.80183  14.46591
 13.56696   1.60337  14.54618
 13.61702   1.37985  14.61526
 13.66708   1.18578  14.67462
 13.71715   1.06308  14.72784
 13.76721   1.04070  14.77994
 13.81727   1.12828  14.83643
 13.86733   1.30363  14.90169
 13.91740   1.50727  14.97715
 13.96746   1.65752  15.06013
 14.01752   1.68396  15.14443
 14.06758   1.55942  15.22250
 14.11765   1.30980  15.28807
 14.16771   0.99704  15.33798
 14.21777   0.68892  15.37247
 14.26783   0.43450  15.39423
 14.31790   0.25517  15.40700
 14.36796   0.14922  15.41447
 14.41802   0.10190  15.41957
 14.46809   0.09400  15.42428
 14.51815   0.10658  15.42961
 14.56821   0.12317  15.43578
 14.61827   0.13156  15.44237
 14.66834   0.12576  15.44866
 14.71840   0.10670  15.45400
 14.76846   0.08054  15.45804
 14.81852   0.05533  15.46081
 14.86859   0.03831  15.46272
 14.91865   0.03535  15.46449
 14.96871   0.05228  15.46711
 15.01877   0.09598  15.47192
 15.06884   0.17305  15.48058
 15.11890   0.28563  15.49488
 15.16896   0.42656  15.51623
 15.21902   0.57744  15.54514
 15.26909   0.71207  15.58079
 15.31915   0.80457  15.62107
 15.36921   0.83836  15.66304
 15.41927   0.81165  15.70367
 15.46934   0.73685  15.74056
 15.51940   0.63474  15.77234
 15.56946   0.52670  15.79871
 15.61952   0.42928  15.82020
 15.66959   0.35316  15.83788
 15.71965   0.30455  15.85312
 15.76971   0.28569  15.86743
 15.81977   0.29328  15.88211
 15.86984   0.31731  15.89799
 15.91990   0.34278  15.91515
 15.96996   0.35445  15.93290
 16.02003   0.34223  15.95003
 16.07009   0.30437  15.96527
 16.12015   0.24728  15.97765
 16.17021   0.18238  15.98678
 16.22028   0.12147  15.99286
 16.27034   0.07271  15.99650
 16.32040   0.03896  15.99845
 16.37046   0.01862  15.99938
 16.42053   0.00792  15.99978
 16.47059   0.00299  15.99993
 16.52065   0.00100  15.99998
 16.57071   0.00030  15.99999
 16.62078   0.00008  16.00000
 16.67084   0.00002  16.00000
 16.72090   0.00000  16.00000
 16.77096   0.00000  16.00000
 16.82103   0.00000  16.00000
 16.87109   0.00000  16.00000
 16.92115   0.00000  16.00000
 16.97121   0.00000  16.00000
 17.02128   0.00000  16.00000
 17.07134   0.00000  16.00000
 17.12140   0.00000  16.00000
 17.17146   0.00000  16.00000
 17.22153  -0.00000  16.00000
 17.27159   0.00000  16.00000
 17.32165   0.00000  16.00000
 17.37171   0.00000  16.00000
 17.42178   0.00000  16.00000
 17.47184   0.00000  16.00000
 17.52190   0.00000  16.00000
 17.57196   0.00000  16.00000
 17.62203   0.00000  16.00000
 17.67209   0.00000  16.00000
 17.72215   0.00000  16.00000
 17.77222   0.00000  16.00000
 17.82228   0.00000  16.00000
 17.87234   0.00000  16.00000
 17.92240   0.00000  16.00000
 17.97247   0.00000  16.00000
 18.02253   0.00000  16.00000
     18.02252816     -22.02753442   801       9.87928053       1.00000000; Z=  6; 2s 2p_y 2p_z 2p_x 
-22.02753   0.00000   0.00000   0.00000   0.00000
-21.97747   0.00028   0.00000   0.00000   0.00000
-21.92741   0.00065   0.00000   0.00000   0.00000
-21.87735   0.00135   0.00000   0.00000   0.00000
-21.82728   0.00247   0.00000   0.00000   0.00000
-21.77722   0.00401   0.00000   0.00000   0.00000
-21.72716   0.00574   0.00000   0.00000   0.00000
-21.67710   0.00726   0.00000   0.00000   0.00000
-21.62703   0.00812   0.00000   0.00000   0.00000
-21.57697   0.00805   0.00000   0.00000   0.00000
-21.52691   0.00717   0.00000   0.00000   0.00000
-21.47685   0.00599   0.00001   0.00001   0.00001
-21.42678   0.00537   0.00003   0.00003   0.00003
-21.37672   0.00637   0.00008   0.00008   0.00008
-21.32666   0.01015   0.00017   0.00017   0.00017
-21.27660   0.01770   0.00034   0.00034   0.00034
-21.22653   0.02939   0.00057   0.00057   0.00057
-21.17647   0.04437   0.00088   0.00088   0.00088
-21.12641   0.06044   0.00122   0.00122   0.00122
-21.07635   0.07458   0.00153   0.00153   0.00153
-21.02628   0.08404   0.00177   0.00177   0.00177
-20.97622   0.08728   0.00190   0.00190   0.00190
-20.92616   0.08415   0.00189   0.00189   0.00189
-20.87610   0.07557   0.00175   0.00175   0.00175
-20.82603   0.06311   0.00151   0.00151   0.00151
-20.77597   0.04868   0.00119   0.00119   0.00119
-20.72591   0.03437   0.00086   0.00086   0.00086
-20.67584   0.02205   0.00056   0.00056   0.00056
-20.62578   0.01283   0.00033   0.00033   0.00033
-20.57572   0.00701   0.00019   0.00019   0.00019
-20.52566   0.00438   0.00015   0.00015   0.00015
-20.47559   0.00479   0.00021   0.00021   0.00021
-20.42553   0.00858   0.00042   0.00042   0.00042
-20.37547   0.01655   0.00083   0.00083   0.00083
-20.32541   0.02928   0.00147   0.00147   0.00147
-20.27534   0.04602   0.00231   0.00231   0.00231
-20.22528   0.06396   0.00321   0.00321   0.00321
-20.17522   0.07855   0.00395   0.00395   0.00395
-20.12516   0.08526   0.00428   0.00428   0.00428
-20.07509   0.08189   0.00412   0.00412   0.00412
-20.02503   0.06996   0.00353   0.00353   0.00353
-19.97497   0.05420   0.00277   0.00277   0.00277
-19.92491   0.04071   0.00217   0.00217   0.00217
-19.87484   0.03507   0.00204   0.00204   0.00204
-19.82478   0.04116   0.00264   0.00264   0.00264
-19.77472   0.06047   0.00407   0.00407   0.00407
-19.72466   0.09127   0.00625   0.00625   0.00625
-19.67459   0.12804   0.00881   0.00881   0.00881
-19.62453   0.16214   0.01119   0.01119   0.01119
-19.57447   0.18461   0.01277   0.01277   0.01277
-19.52441   0.18974   0.01318   0.01318   0.01318
-19.47434   0.17729   0.01237   0.01237   0.01237
-19.42428   0.15182   0.01066   0.01066   0.01066
-19.37422   0.12001   0.00848   0.00848   0.00848
-19.32416   0.08795   0.00626   0.00626   0.00626
-19.27409   0.05976   0.00428   0.00428   0.00428
-19.22403   0.03748   0.00270   0.00270   0.00270
-19.17397   0.02157   0.00156   0.00156   0.00156
-19.12390   0.01138   0.00083   0.00083   0.00083
-19.07384   0.00571   0.00043   0.00043   0.00043
-19.02378   0.00336   0.00028   0.00028   0.00028
-18.97372   0.00353   0.00033   0.00033   0.00033
-18.92365   0.00596   0.00059   0.00059   0.00059
-18.87359   0.01068   0.00107   0.00107   0.00107
-18.82353   0.01747   0.00176   0.00176   0.00176
-18.77347   0.02541   0.00255   0.00255   0.00255
-18.72340   0.03267   0.00329   0.00329   0.00329
-18.67334   0.03716   0.00374   0.00374   0.00374
-18.62328   0.03751   0.00378   0.00378   0.00378
-18.57322   0.03399   0.00343   0.00343   0.00343
-18.52315   0.02877   0.00293   0.00293   0.00293
-18.47309   0.02535   0.00264   0.00264   0.00264
-18.42303   0.02776   0.00299   0.00299   0.00299
-18.37297   0.03949   0.00438   0.00438   0.00438
-18.32290   0.06246   0.00701   0.00701   0.00701
-18.27284   0.09591   0.01084   0.01084   0.01084
-18.22278   0.13580   0.01542   0.01542   0.01542
-18.17272   0.17559   0.02006   0.02006   0.02006
-18.12265   0.20825   0.02398   0.02398   0.02398
-18.07259   0.22834   0.02653   0.02653   0.02653
-18.02253   0.23297   0.02733   0.02733   0.02733
-17.97247   0.22161   0.02625   0.02625   0.02625
-17.92240   0.19586   0.02339   0.02339   0.02339
-17.87234   0.15961   0.01919   0.01919   0.01919
-17.82228   0.11883   0.01436   0.01436   0.01436
-17.77222   0.08020   0.00973   0.00973   0.00973
-17.72215   0.04906   0.00597   0.00597   0.00597
-17.67209   0.02809   0.00344   0.00344   0.00344
-17.62203   0.01765   0.00221   0.00221   0.00221
-17.57196   0.01717   0.00222   0.00222   0.00222
-17.52190   0.02630   0.00347   0.00347   0.00347
-17.47184   0.04481   0.00595   0.00595   0.00595
-17.42178   0.07107   0.00944   0.00944   0.00944
-17.37171   0.10061   0.01337   0.01337   0.01337
-17.32165   0.12609   0.01675   0.01675   0.01675
-17.27159   0.13975   0.01857   0.01857   0.01857
-17.22153   0.13720   0.01823   0.01823   0.01823
-17.17146   0.12001   0.01595   0.01595   0.01595
-17.12140   0.09528   0.01267   0.01267   0.01267
-17.07134   0.07252   0.00968   0.00968   0.00968
-17.02128   0.05989   0.00811   0.00811   0.00811
-16.97121   0.06181   0.00861   0.00861   0.00861
-16.92115   0.07828   0.01125   0.01125   0.01125
-16.87109   0.10515   0.01551   0.01551   0.01551
-16.82103   0.13497   0.02034   0.02034   0.02034
-16.77096   0.15871   0.02434   0.02434   0.02434
-16.72090   0.16847   0.02623   0.02623   0.02623
-16.67084   0.16051   0.02531   0.02531   0.02531
-16.62078   0.13681   0.02180   0.02180   0.02180
-16.57071   0.10408   0.01673   0.01673   0.01673
-16.52065   0.07054   0.01141   0.01141   0.01141