 vasp.5.4.4.18Apr17-6-g9f103f2a35 (build Jan 05 2022 20:32:27) complex          
  
 executed on              Shaheen date 2024.03.21  11:19:47
 running on   64 total cores
 distrk:  each k-point on   64 cores,    1 groups
 distr:  one band on NCORES_PER_BAND=  16 cores,    4 groups


--------------------------------------------------------------------------------------------------------


 INCAR:
 POTCAR:    PAW_PBE Te 08Apr2002                  
 POTCAR:    PAW_PBE Mo 08Apr2002                  
 POTCAR:    PAW_PBE Te 08Apr2002                  
   VRHFIN =Te: s2p4                                                             
   LEXCH  = PE                                                                  
   EATOM  =   223.2721 eV,   16.4100 Ry                                         
                                                                                
   TITEL  = PAW_PBE Te 08Apr2002                                                
   LULTRA =        F    use ultrasoft PP ?                                      
   IUNSCR =        1    unscreen: 0-lin 1-nonlin 2-no                           
   RPACOR =    2.200    partial core radius                                     
   POMASS =  127.600; ZVAL   =    6.000    mass and valenz                      
   RCORE  =    2.300    outmost cutoff radius                                   
   RWIGS  =    2.900; RWIGS  =    1.535    wigner-seitz radius (au A)           
   ENMAX  =  174.982; ENMIN  =  131.236 eV                                      
   ICORE  =        3    local potential                                         
   LCOR   =        T    correct aug charges                                     
   LPAW   =        T    paw PP                                                  
   EAUG   =  368.792                                                            
   DEXC   =    0.000                                                            
   RMAX   =    2.345    core radius for proj-oper                               
   RAUG   =    1.300    factor for augmentation sphere                          
   RDEP   =    2.397    radius for radial grids                                 
   RDEPT  =    2.174    core radius for aug-charge                              
                                                                                
   Atomic configuration                                                         
   13 entries                                                                   
     n  l   j            E        occ.                                          
     1  0  0.50    -31621.2075   2.0000                                         
     2  0  0.50     -4848.7941   2.0000                                         
     2  1  1.50     -4352.1960   6.0000                                         
     3  0  0.50      -964.9612   2.0000                                         
     3  1  1.50      -803.6179   6.0000                                         
     3  2  2.50      -559.8710  10.0000                                         
     4  0  0.50      -164.3522   2.0000                                         
     4  1  1.50      -114.3756   6.0000                                         
     4  2  2.50       -41.6483  10.0000                                         
     5  0  0.50       -15.1072   2.0000                                         
     5  1  0.50        -5.9526   4.0000                                         
     5  2  1.50        -5.4423   0.0000                                         
     4  3  2.50        -5.4423   0.0000                                         
   Description                                                                  
     l       E           TYP  RCUT    TYP  RCUT                                 
     0    -15.1072389     23  2.300                                             
     0    -16.4678215     23  2.300                                             
     1     -5.9526306     23  2.300                                             
     1     -2.4873968     23  2.300                                             
     2     -5.4423304     23  2.300                                             
     3     -1.3605826     23  2.300                                             
  local pseudopotential read in
  partial core-charges read in
  partial kinetic energy density read in
  atomic valenz-charges read in
  non local Contribution for L=           0  read in
    real space projection operators read in
  non local Contribution for L=           0  read in
    real space projection operators read in
  non local Contribution for L=           1  read in
    real space projection operators read in
  non local Contribution for L=           1  read in
    real space projection operators read in
  non local Contribution for L=           2  read in
    real space projection operators read in
    PAW grid and wavefunctions read in
 
   number of l-projection  operators is LMAX  =           5
   number of lm-projection operators is LMMAX =          13
 
 POTCAR:    PAW_PBE Mo 08Apr2002                  
   VRHFIN =Mo: 4p5s4d                                                           
   LEXCH  = PE                                                                  
   EATOM  =   217.5176 eV,   15.9871 Ry                                         
                                                                                
   TITEL  = PAW_PBE Mo 08Apr2002                                                
   LULTRA =        F    use ultrasoft PP ?                                      
   IUNSCR =        1    unscreen: 0-lin 1-nonlin 2-no                           
   RPACOR =    2.200    partial core radius                                     
   POMASS =   95.940; ZVAL   =    6.000    mass and valenz                      
   RCORE  =    2.750    outmost cutoff radius                                   
   RWIGS  =    2.750; RWIGS  =    1.455    wigner-seitz radius (au A)           
   ENMAX  =  224.584; ENMIN  =  168.438 eV                                      
   RCLOC  =    2.111    cutoff for local pot                                    
   LCOR   =        T    correct aug charges                                     
   LPAW   =        T    paw PP                                                  
   EAUG   =  345.278                                                            
   DEXC   =    0.000                                                            
   RMAX   =    2.821    core radius for proj-oper                               
   RAUG   =    1.300    factor for augmentation sphere                          
   RDEP   =    2.815    radius for radial grids                                 
   RDEPT  =    2.211    core radius for aug-charge                              
                                                                                
   Atomic configuration                                                         
   12 entries                                                                   
     n  l   j            E        occ.                                          
     1  0  0.50    -19819.0341   2.0000                                         
     2  0  0.50     -2799.0127   2.0000                                         
     2  1  1.50     -2502.0276   6.0000                                         
     3  0  0.50      -476.4448   2.0000                                         
     3  1  1.50      -379.1496   6.0000                                         
     3  2  2.50      -220.9367  10.0000                                         
     4  0  0.50       -64.3378   2.0000                                         
     4  1  1.50       -38.4773   6.0000                                         
     4  2  2.50        -3.7535   5.0000                                         
     5  0  0.50        -4.0862   1.0000                                         
     5  1  0.50        -2.7701   0.0000                                         
     4  3  2.50        -1.3606   0.0000                                         
   Description                                                                  
     l       E           TYP  RCUT    TYP  RCUT                                 
     2     -3.7534765     23  2.500                                             
     2     -5.1140591     23  2.500                                             
     0     -4.0861560     23  2.600                                             
     0     13.6058260     23  2.600                                             
     1      5.4423304     23  2.750                                             
     1     27.2116520     23  2.750                                             
  local pseudopotential read in
  partial core-charges read in
  partial kinetic energy density read in
  atomic valenz-charges read in
  non local Contribution for L=           2  read in
    real space projection operators read in
  non local Contribution for L=           2  read in
    real space projection operators read in
  non local Contribution for L=           0  read in
    real space projection operators read in
  non local Contribution for L=           0  read in
    real space projection operators read in
  non local Contribution for L=           1  read in
    real space projection operators read in
  non local Contribution for L=           1  read in
    real space projection operators read in
    PAW grid and wavefunctions read in
 
   number of l-projection  operators is LMAX  =           6
   number of lm-projection operators is LMMAX =          18
 
  PAW_PBE Te 08Apr2002                  :
 energy of atom  1       EATOM= -223.2721
 kinetic energy error for atom=    0.0004 (will be added to EATOM!!)
  PAW_PBE Mo 08Apr2002                  :
 energy of atom  2       EATOM= -217.5176
 kinetic energy error for atom=    0.0005 (will be added to EATOM!!)
 
 
 POSCAR: Te Mo                                   
  positions in direct lattice
  No initial velocities read in
 exchange correlation table for  LEXCH =        8
   RHO(1)=    0.500       N(1)  =     2000
   RHO(2)=  100.500       N(2)  =     4000
 


--------------------------------------------------------------------------------------------------------


 ion  position               nearest neighbor table
   1  0.259  0.000  0.574-   6 2.70   6 2.70   5 2.72   3 3.62   3 3.62
   2  0.103  0.500  0.426-   5 2.70   5 2.70   6 2.72   4 3.62   4 3.62
   3  0.751  0.500  0.553-   5 2.82   5 2.82   6 2.84   4 3.54   4 3.54   1 3.62   1 3.62
   4  0.612  0.000  0.447-   6 2.82   6 2.82   5 2.84   3 3.54   3 3.54   2 3.62   2 3.62
   5  0.000  0.000  0.497-   2 2.70   2 2.70   1 2.72   3 2.82   3 2.82   4 2.84   6 2.89   6 2.89

   6  0.363  0.500  0.503-   1 2.70   1 2.70   2 2.72   4 2.82   4 2.82   3 2.84   5 2.89   5 2.89

 

IMPORTANT INFORMATION: All symmetrisations will be switched off!
NOSYMM: (Re-)initialisation of all symmetry stuff for point group C_1.

 
 
 KPOINTS: K-Spacing Value to Generate K-Mesh: 0.02

Automatic generation of k-mesh.
Space group operators:
 irot       det(A)        alpha          n_x          n_y          n_z        tau_x        tau_y        tau_z
    1     1.000000     0.000000     1.000000     0.000000     0.000000     0.000000     0.000000     0.000000
 
 Subroutine IBZKPT returns following result:
 ===========================================
 
 Found     68 irreducible k-points:
 
 Following reciprocal coordinates:
            Coordinates               Weight
  0.000000  0.000000  0.000000      1.000000
  0.111111  0.000000  0.000000      2.000000
  0.222222  0.000000  0.000000      2.000000
  0.333333  0.000000  0.000000      2.000000
  0.444444  0.000000  0.000000      2.000000
  0.000000  0.066667  0.000000      2.000000
  0.111111  0.066667  0.000000      2.000000
  0.222222  0.066667  0.000000      2.000000
  0.333333  0.066667  0.000000      2.000000
  0.444444  0.066667  0.000000      2.000000
 -0.444444  0.066667  0.000000      2.000000
 -0.333333  0.066667  0.000000      2.000000
 -0.222222  0.066667  0.000000      2.000000
 -0.111111  0.066667  0.000000      2.000000
  0.000000  0.133333  0.000000      2.000000
  0.111111  0.133333  0.000000      2.000000
  0.222222  0.133333  0.000000      2.000000
  0.333333  0.133333  0.000000      2.000000
  0.444444  0.133333  0.000000      2.000000
 -0.444444  0.133333  0.000000      2.000000
 -0.333333  0.133333  0.000000      2.000000
 -0.222222  0.133333  0.000000      2.000000
 -0.111111  0.133333  0.000000      2.000000
  0.000000  0.200000  0.000000      2.000000
  0.111111  0.200000  0.000000      2.000000
  0.222222  0.200000  0.000000      2.000000
  0.333333  0.200000  0.000000      2.000000
  0.444444  0.200000  0.000000      2.000000
 -0.444444  0.200000  0.000000      2.000000
 -0.333333  0.200000  0.000000      2.000000
 -0.222222  0.200000  0.000000      2.000000
 -0.111111  0.200000  0.000000      2.000000
  0.000000  0.266667  0.000000      2.000000
  0.111111  0.266667  0.000000      2.000000
  0.222222  0.266667  0.000000      2.000000
  0.333333  0.266667  0.000000      2.000000
  0.444444  0.266667  0.000000      2.000000
 -0.444444  0.266667  0.000000      2.000000
 -0.333333  0.266667  0.000000      2.000000
 -0.222222  0.266667  0.000000      2.000000
 -0.111111  0.266667  0.000000      2.000000
  0.000000  0.333333  0.000000      2.000000
  0.111111  0.333333  0.000000      2.000000
  0.222222  0.333333  0.000000      2.000000
  0.333333  0.333333  0.000000      2.000000
  0.444444  0.333333  0.000000      2.000000
 -0.444444  0.333333  0.000000      2.000000
 -0.333333  0.333333  0.000000      2.000000
 -0.222222  0.333333  0.000000      2.000000
 -0.111111  0.333333  0.000000      2.000000
  0.000000  0.400000  0.000000      2.000000
  0.111111  0.400000  0.000000      2.000000
  0.222222  0.400000  0.000000      2.000000
  0.333333  0.400000  0.000000      2.000000
  0.444444  0.400000  0.000000      2.000000
 -0.444444  0.400000  0.000000      2.000000
 -0.333333  0.400000  0.000000      2.000000
 -0.222222  0.400000  0.000000      2.000000
 -0.111111  0.400000  0.000000      2.000000
  0.000000  0.466667  0.000000      2.000000
  0.111111  0.466667  0.000000      2.000000
  0.222222  0.466667  0.000000      2.000000
  0.333333  0.466667  0.000000      2.000000
  0.444444  0.466667  0.000000      2.000000
 -0.444444  0.466667  0.000000      2.000000
 -0.333333  0.466667  0.000000      2.000000
 -0.222222  0.466667  0.000000      2.000000
 -0.111111  0.466667  0.000000      2.000000
 
 Following cartesian coordinates:
            Coordinates               Weight
  0.000000  0.000000  0.000000      1.000000
  0.017435  0.000000  0.000000      2.000000
  0.034870  0.000000  0.000000      2.000000
  0.052305  0.000000  0.000000      2.000000
  0.069740  0.000000  0.000000      2.000000
  0.000000  0.019333  0.000000      2.000000
  0.017435  0.019333  0.000000      2.000000
  0.034870  0.019333  0.000000      2.000000
  0.052305  0.019333  0.000000      2.000000
  0.069740  0.019333  0.000000      2.000000
 -0.069740  0.019333  0.000000      2.000000
 -0.052305  0.019333  0.000000      2.000000
 -0.034870  0.019333  0.000000      2.000000
 -0.017435  0.019333  0.000000      2.000000
  0.000000  0.038666  0.000000      2.000000
  0.017435  0.038666  0.000000      2.000000
  0.034870  0.038666  0.000000      2.000000
  0.052305  0.038666  0.000000      2.000000
  0.069740  0.038666  0.000000      2.000000
 -0.069740  0.038666  0.000000      2.000000
 -0.052305  0.038666  0.000000      2.000000
 -0.034870  0.038666  0.000000      2.000000
 -0.017435  0.038666  0.000000      2.000000
  0.000000  0.057999  0.000000      2.000000
  0.017435  0.057999  0.000000      2.000000
  0.034870  0.057999  0.000000      2.000000
  0.052305  0.057999  0.000000      2.000000
  0.069740  0.057999  0.000000      2.000000
 -0.069740  0.057999  0.000000      2.000000
 -0.052305  0.057999  0.000000      2.000000
 -0.034870  0.057999  0.000000      2.000000
 -0.017435  0.057999  0.000000      2.000000
  0.000000  0.077332  0.000000      2.000000
  0.017435  0.077332  0.000000      2.000000
  0.034870  0.077332  0.000000      2.000000
  0.052305  0.077332  0.000000      2.000000
  0.069740  0.077332  0.000000      2.000000
 -0.069740  0.077332  0.000000      2.000000
 -0.052305  0.077332  0.000000      2.000000
 -0.034870  0.077332  0.000000      2.000000
 -0.017435  0.077332  0.000000      2.000000
  0.000000  0.096665  0.000000      2.000000
  0.017435  0.096665  0.000000      2.000000
  0.034870  0.096665  0.000000      2.000000
  0.052305  0.096665  0.000000      2.000000
  0.069740  0.096665  0.000000      2.000000
 -0.069740  0.096665  0.000000      2.000000
 -0.052305  0.096665  0.000000      2.000000
 -0.034870  0.096665  0.000000      2.000000
 -0.017435  0.096665  0.000000      2.000000
  0.000000  0.115998  0.000000      2.000000
  0.017435  0.115998  0.000000      2.000000
  0.034870  0.115998  0.000000      2.000000
  0.052305  0.115998  0.000000      2.000000
  0.069740  0.115998  0.000000      2.000000
 -0.069740  0.115998  0.000000      2.000000
 -0.052305  0.115998  0.000000      2.000000
 -0.034870  0.115998  0.000000      2.000000
 -0.017435  0.115998  0.000000      2.000000
  0.000000  0.135331  0.000000      2.000000
  0.017435  0.135331  0.000000      2.000000
  0.034870  0.135331  0.000000      2.000000
  0.052305  0.135331  0.000000      2.000000
  0.069740  0.135331  0.000000      2.000000
 -0.069740  0.135331  0.000000      2.000000
 -0.052305  0.135331  0.000000      2.000000
 -0.034870  0.135331  0.000000      2.000000
 -0.017435  0.135331  0.000000      2.000000
 


--------------------------------------------------------------------------------------------------------




 Dimension of arrays:
   k-points           NKPTS =     68   k-points in BZ     NKDIM =     68   number of bands    NBANDS=     24
   number of dos      NEDOS =    301   number of ions     NIONS =      6
   non local maximal  LDIM  =      6   non local SUM 2l+1 LMDIM =     18
   total plane-waves  NPLWV = 338688
   max r-space proj   IRMAX =      1   max aug-charges    IRDMAX=  35535
   dimension x,y,z NGX =    54 NGY =   28 NGZ =  224
   dimension x,y,z NGXF=   108 NGYF=   56 NGZF=  448
   support grid    NGXF=   108 NGYF=   56 NGZF=  448
   ions per type =               4   2
   NGX,Y,Z   is equivalent  to a cutoff of  14.09, 13.50, 13.30 a.u.
   NGXF,Y,Z  is equivalent  to a cutoff of  28.17, 27.00, 26.60 a.u.

 SYSTEM =  XYZ                                     
 POSCAR =  Te Mo                                   

 Startparameter for this run:
   NWRITE =      2    write-flag & timer
   PREC   = accura    normal or accurate (medium, high low for compatibility)
   ISTART =      0    job   : 0-new  1-cont  2-samecut
   ICHARG =      2    charge: 1-file 2-atom 10-const
   ISPIN  =      1    spin polarized calculation?
   LNONCOLLINEAR =      F non collinear calculations
   LSORBIT =      F    spin-orbit coupling
   INIWAV =      1    electr: 0-lowe 1-rand  2-diag
   LASPH  =      F    aspherical Exc in radial PAW
   METAGGA=      F    non-selfconsistent MetaGGA calc.

 Electronic Relaxation 1
   ENCUT  =  600.0 eV  44.10 Ry    6.64 a.u.  12.73  6.89 55.92*2*pi/ulx,y,z
   ENINI  =  600.0     initial cutoff
   ENAUG  =  368.8 eV  augmentation charge cutoff
   NELM   =     60;   NELMIN=  2; NELMDL= -5     # of ELM steps 
   EDIFF  = 0.1E-05   stopping-criterion for ELM
   LREAL  =      F    real-space projection
   NLSPLINE    = F    spline interpolate recip. space projectors
   LCOMPAT=      F    compatible to vasp.4.4
   GGA_COMPAT  = T    GGA compatible to vasp.4.4-vasp.4.6
   LMAXPAW     = -100 max onsite density
   LMAXMIX     =    2 max onsite mixed and CHGCAR
   VOSKOWN=      0    Vosko Wilk Nusair interpolation
   ROPT   =    0.00000   0.00000
 Ionic relaxation
   EDIFFG = -.1E-02   stopping-criterion for IOM
   NSW    =    100    number of steps for IOM
   NBLOCK =      1;   KBLOCK =    100    inner block; outer block 
   IBRION =      2    ionic relax: 0-MD 1-quasi-New 2-CG
   NFREE  =      1    steps in history (QN), initial steepest desc. (CG)
   ISIF   =      2    stress and relaxation
   IWAVPR =     11    prediction:  0-non 1-charg 2-wave 3-comb
   ISYM   =      0    0-nonsym 1-usesym 2-fastsym
   LCORR  =      T    Harris-Foulkes like correction to forces

   POTIM  = 0.5000    time-step for ionic-motion
   TEIN   =    0.0    initial temperature
   TEBEG  =    0.0;   TEEND  =   0.0 temperature during run
   SMASS  =  -3.00    Nose mass-parameter (am)
   estimated Nose-frequenzy (Omega)   =  0.10E-29 period in steps =****** mass=  -0.928E-27a.u.
   SCALEE = 1.0000    scale energy and forces
   NPACO  =    256;   APACO  = 16.0  distance and # of slots for P.C.
   PSTRESS=    0.0 pullay stress

  Mass of Ions in am
   POMASS = 127.60 95.94
  Ionic Valenz
   ZVAL   =   6.00  6.00
  Atomic Wigner-Seitz radii
   RWIGS  =  -1.00 -1.00
  virtual crystal weights 
   VCA    =   1.00  1.00
   NELECT =      36.0000    total number of electrons
   NUPDOWN=      -1.0000    fix difference up-down

 DOS related values:
   EMIN   =  10.00;   EMAX   =-10.00  energy-range for DOS
   EFERMI =   0.00
   ISMEAR =     0;   SIGMA  =   0.10  broadening in eV -4-tet -1-fermi 0-gaus

 Electronic relaxation 2 (details)
   IALGO  =     38    algorithm
   LDIAG  =      T    sub-space diagonalisation (order eigenvalues)
   LSUBROT=      F    optimize rotation matrix (better conditioning)
   TURBO    =      0    0=normal 1=particle mesh
   IRESTART =      0    0=no restart 2=restart with 2 vectors
   NREBOOT  =      0    no. of reboots
   NMIN     =      0    reboot dimension
   EREF     =   0.00    reference energy to select bands
   IMIX   =      4    mixing-type and parameters
     AMIX     =   0.40;   BMIX     =  1.00
     AMIX_MAG =   1.60;   BMIX_MAG =  1.00
     AMIN     =   0.10
     WC   =   100.;   INIMIX=   1;  MIXPRE=   1;  MAXMIX= -45

 Intra band minimization:
   WEIMIN = 0.0010     energy-eigenvalue tresh-hold
   EBREAK =  0.10E-07  absolut break condition
   DEPER  =   0.30     relativ break condition  

   TIME   =   0.40     timestep for ELM

  volume/ion in A,a.u.               =     102.55       692.07
  Fermi-wavevector in a.u.,A,eV,Ry     =   0.635537  1.200992  5.495500  0.403908
  Thomas-Fermi vector in A             =   1.699904
 
 Write flags
   LWAVE        =      T    write WAVECAR
   LDOWNSAMPLE  =      F    k-point downsampling of WAVECAR
   LCHARG       =      T    write CHGCAR
   LVTOT        =      F    write LOCPOT, total local potential
   LVHAR        =      F    write LOCPOT, Hartree potential only
   LELF         =      F    write electronic localiz. function (ELF)
   LORBIT       =      0    0 simple, 1 ext, 2 COOP (PROOUT), +10 PAW based schemes


 Dipole corrections
   LMONO  =      F    monopole corrections only (constant potential shift)
   LDIPOL =      T    correct potential (dipole corrections)
   IDIPOL =      3    1-x, 2-y, 3-z, 4-all directions 
   EPSILON=  1.0000000 bulk dielectric constant

 Exchange correlation treatment:
   GGA     =    PE    GGA type
   LEXCH   =     8    internal setting for exchange type
   VOSKOWN=      0    Vosko Wilk Nusair interpolation
   LHFCALC =     F    Hartree Fock is set to
   LHFONE  =     F    Hartree Fock one center treatment
   AEXX    =    0.0000 exact exchange contribution

 Linear response parameters
   LEPSILON=     F    determine dielectric tensor
   LRPA    =     F    only Hartree local field effects (RPA)
   LNABLA  =     F    use nabla operator in PAW spheres
   LVEL    =     F    velocity operator in full k-point grid
   LINTERFAST=   F  fast interpolation
   KINTER  =     0    interpolate to denser k-point grid
   CSHIFT  =0.1000    complex shift for real part using Kramers Kronig
   OMEGAMAX=  -1.0    maximum frequency
   DEG_THRESHOLD= 0.2000000E-02 threshold for treating states as degnerate
   RTIME   =   -0.100 relaxation time in fs
  (WPLASMAI=    0.000 imaginary part of plasma frequency in eV, 0.658/RTIME)
   DFIELD  = 0.0000000 0.0000000 0.0000000 field for delta impulse in time
 
 Orbital magnetization related:
   ORBITALMAG=     F  switch on orbital magnetization
   LCHIMAG   =     F  perturbation theory with respect to B field
   DQ        =  0.001000  dq finite difference perturbation B field
   LLRAUG    =     F  two centre corrections for induced B field



--------------------------------------------------------------------------------------------------------


 conjugate gradient relaxation of ions
 charge density and potential will be updated during run
 non-spin polarized calculation
 Variant of blocked Davidson
 Davidson routine will perform the subspace rotation
 perform sub-space diagonalisation
    after iterative eigenvector-optimisation
 modified Broyden-mixing scheme, WC =      100.0
 initial mixing is a Kerker type mixing with AMIX =  0.4000 and BMIX =      1.0000
 Hartree-type preconditioning will be used
 using additional bands            6
 reciprocal scheme for non local part
 use partial core corrections
 calculate Harris-corrections to forces 
   (improved forces if not selfconsistent)
 use gradient corrections 
 use of overlap-Matrix (Vanderbilt PP)
 Gauss-broadening in eV      SIGMA  =   0.10


--------------------------------------------------------------------------------------------------------


  energy-cutoff  :      600.00
  volume of cell :      615.32
      direct lattice vectors                 reciprocal lattice vectors
     6.372892651  0.000000000  0.000000000     0.156914616  0.000000000  0.000000000
     0.000000000  3.448330687  0.000000000     0.000000000  0.289995389  0.000000000
     0.000000000  0.000000000 28.000000000     0.000000000  0.000000000  0.035714286

  length of vectors
     6.372892651  3.448330687 28.000000000     0.156914616  0.289995389  0.035714286


 
 k-points in units of 2pi/SCALE and weight: K-Spacing Value to Generate K-Mesh: 0.02
   0.00000000  0.00000000  0.00000000       0.007
   0.01743496  0.00000000  0.00000000       0.015
   0.03486991  0.00000000  0.00000000       0.015
   0.05230487  0.00000000  0.00000000       0.015
   0.06973983  0.00000000  0.00000000       0.015
   0.00000000  0.01933303  0.00000000       0.015
   0.01743496  0.01933303  0.00000000       0.015
   0.03486991  0.01933303  0.00000000       0.015
   0.05230487  0.01933303  0.00000000       0.015
   0.06973983  0.01933303  0.00000000       0.015
  -0.06973983  0.01933303  0.00000000       0.015
  -0.05230487  0.01933303  0.00000000       0.015
  -0.03486991  0.01933303  0.00000000       0.015
  -0.01743496  0.01933303  0.00000000       0.015
   0.00000000  0.03866605  0.00000000       0.015
   0.01743496  0.03866605  0.00000000       0.015
   0.03486991  0.03866605  0.00000000       0.015
   0.05230487  0.03866605  0.00000000       0.015
   0.06973983  0.03866605  0.00000000       0.015
  -0.06973983  0.03866605  0.00000000       0.015
  -0.05230487  0.03866605  0.00000000       0.015
  -0.03486991  0.03866605  0.00000000       0.015
  -0.01743496  0.03866605  0.00000000       0.015
   0.00000000  0.05799908  0.00000000       0.015
   0.01743496  0.05799908  0.00000000       0.015
   0.03486991  0.05799908  0.00000000       0.015
   0.05230487  0.05799908  0.00000000       0.015
   0.06973983  0.05799908  0.00000000       0.015
  -0.06973983  0.05799908  0.00000000       0.015
  -0.05230487  0.05799908  0.00000000       0.015
  -0.03486991  0.05799908  0.00000000       0.015
  -0.01743496  0.05799908  0.00000000       0.015
   0.00000000  0.07733210  0.00000000       0.015
   0.01743496  0.07733210  0.00000000       0.015
   0.03486991  0.07733210  0.00000000       0.015
   0.05230487  0.07733210  0.00000000       0.015
   0.06973983  0.07733210  0.00000000       0.015
  -0.06973983  0.07733210  0.00000000       0.015
  -0.05230487  0.07733210  0.00000000       0.015
  -0.03486991  0.07733210  0.00000000       0.015
  -0.01743496  0.07733210  0.00000000       0.015
   0.00000000  0.09666513  0.00000000       0.015
   0.01743496  0.09666513  0.00000000       0.015
   0.03486991  0.09666513  0.00000000       0.015
   0.05230487  0.09666513  0.00000000       0.015
   0.06973983  0.09666513  0.00000000       0.015
  -0.06973983  0.09666513  0.00000000       0.015
  -0.05230487  0.09666513  0.00000000       0.015
  -0.03486991  0.09666513  0.00000000       0.015
  -0.01743496  0.09666513  0.00000000       0.015
   0.00000000  0.11599816  0.00000000       0.015
   0.01743496  0.11599816  0.00000000       0.015
   0.03486991  0.11599816  0.00000000       0.015
   0.05230487  0.11599816  0.00000000       0.015
   0.06973983  0.11599816  0.00000000       0.015
  -0.06973983  0.11599816  0.00000000       0.015
  -0.05230487  0.11599816  0.00000000       0.015
  -0.03486991  0.11599816  0.00000000       0.015
  -0.01743496  0.11599816  0.00000000       0.015
   0.00000000  0.13533118  0.00000000       0.015
   0.01743496  0.13533118  0.00000000       0.015
   0.03486991  0.13533118  0.00000000       0.015
   0.05230487  0.13533118  0.00000000       0.015
   0.06973983  0.13533118  0.00000000       0.015
  -0.06973983  0.13533118  0.00000000       0.015
  -0.05230487  0.13533118  0.00000000       0.015
  -0.03486991  0.13533118  0.00000000       0.015
  -0.01743496  0.13533118  0.00000000       0.015
 
 k-points in reciprocal lattice and weights: K-Spacing Value to Generate K-Mesh: 0.02
   0.00000000  0.00000000  0.00000000       0.007
   0.11111111  0.00000000  0.00000000       0.015
   0.22222222  0.00000000  0.00000000       0.015
   0.33333333  0.00000000  0.00000000       0.015
   0.44444444  0.00000000  0.00000000       0.015
   0.00000000  0.06666667  0.00000000       0.015
   0.11111111  0.06666667  0.00000000       0.015
   0.22222222  0.06666667  0.00000000       0.015
   0.33333333  0.06666667  0.00000000       0.015
   0.44444444  0.06666667  0.00000000       0.015
  -0.44444444  0.06666667  0.00000000       0.015
  -0.33333333  0.06666667  0.00000000       0.015
  -0.22222222  0.06666667  0.00000000       0.015
  -0.11111111  0.06666667  0.00000000       0.015
   0.00000000  0.13333333  0.00000000       0.015
   0.11111111  0.13333333  0.00000000       0.015
   0.22222222  0.13333333  0.00000000       0.015
   0.33333333  0.13333333  0.00000000       0.015
   0.44444444  0.13333333  0.00000000       0.015
  -0.44444444  0.13333333  0.00000000       0.015
  -0.33333333  0.13333333  0.00000000       0.015
  -0.22222222  0.13333333  0.00000000       0.015
  -0.11111111  0.13333333  0.00000000       0.015
   0.00000000  0.20000000  0.00000000       0.015
   0.11111111  0.20000000  0.00000000       0.015
   0.22222222  0.20000000  0.00000000       0.015
   0.33333333  0.20000000  0.00000000       0.015
   0.44444444  0.20000000  0.00000000       0.015
  -0.44444444  0.20000000  0.00000000       0.015
  -0.33333333  0.20000000  0.00000000       0.015
  -0.22222222  0.20000000  0.00000000       0.015
  -0.11111111  0.20000000  0.00000000       0.015
   0.00000000  0.26666667  0.00000000       0.015
   0.11111111  0.26666667  0.00000000       0.015
   0.22222222  0.26666667  0.00000000       0.015
   0.33333333  0.26666667  0.00000000       0.015
   0.44444444  0.26666667  0.00000000       0.015
  -0.44444444  0.26666667  0.00000000       0.015
  -0.33333333  0.26666667  0.00000000       0.015
  -0.22222222  0.26666667  0.00000000       0.015
  -0.11111111  0.26666667  0.00000000       0.015
   0.00000000  0.33333333  0.00000000       0.015
   0.11111111  0.33333333  0.00000000       0.015
   0.22222222  0.33333333  0.00000000       0.015
   0.33333333  0.33333333  0.00000000       0.015
   0.44444444  0.33333333  0.00000000       0.015
  -0.44444444  0.33333333  0.00000000       0.015
  -0.33333333  0.33333333  0.00000000       0.015
  -0.22222222  0.33333333  0.00000000       0.015
  -0.11111111  0.33333333  0.00000000       0.015
   0.00000000  0.40000000  0.00000000       0.015
   0.11111111  0.40000000  0.00000000       0.015
   0.22222222  0.40000000  0.00000000       0.015
   0.33333333  0.40000000  0.00000000       0.015
   0.44444444  0.40000000  0.00000000       0.015
  -0.44444444  0.40000000  0.00000000       0.015
  -0.33333333  0.40000000  0.00000000       0.015
  -0.22222222  0.40000000  0.00000000       0.015
  -0.11111111  0.40000000  0.00000000       0.015
   0.00000000  0.46666667  0.00000000       0.015
   0.11111111  0.46666667  0.00000000       0.015
   0.22222222  0.46666667  0.00000000       0.015
   0.33333333  0.46666667  0.00000000       0.015
   0.44444444  0.46666667  0.00000000       0.015
  -0.44444444  0.46666667  0.00000000       0.015
  -0.33333333  0.46666667  0.00000000       0.015
  -0.22222222  0.46666667  0.00000000       0.015
  -0.11111111  0.46666667  0.00000000       0.015
 
 position of ions in fractional coordinates (direct lattice) 
   0.25920508  0.00000000  0.57376653
   0.10331734  0.50000000  0.42623347
   0.75068393  0.50000000  0.55284743
   0.61183846  0.00000000  0.44715257
   0.00000000  0.00000000  0.49665992
   0.36252242  0.50000000  0.50334010
 
 position of ions in cartesian coordinates  (Angst):
   1.65188614  0.00000000 16.06546273
   0.65843033  1.72416534 11.93453727
   4.78402813  1.72416534 15.47972801
   3.89918084  0.00000000 12.52027199
   0.00000000  0.00000000 13.90647768
   2.31031646  1.72416534 14.09352292
 


--------------------------------------------------------------------------------------------------------


 k-point  1 :   0.0000 0.0000 0.0000  plane waves:   20539
 k-point  2 :   0.1111 0.0000 0.0000  plane waves:   20527
 k-point  3 :   0.2222 0.0000 0.0000  plane waves:   20495
 k-point  4 :   0.3333 0.0000 0.0000  plane waves:   20478
 k-point  5 :   0.4444 0.0000 0.0000  plane waves:   20482
 k-point  6 :   0.0000 0.0667 0.0000  plane waves:   20519
 k-point  7 :   0.1111 0.0667 0.0000  plane waves:   20506
 k-point  8 :   0.2222 0.0667 0.0000  plane waves:   20489
 k-point  9 :   0.3333 0.0667 0.0000  plane waves:   20481
 k-point 10 :   0.4444 0.0667 0.0000  plane waves:   20465
 k-point 11 :  -0.4444 0.0667 0.0000  plane waves:   20465
 k-point 12 :  -0.3333 0.0667 0.0000  plane waves:   20481
 k-point 13 :  -0.2222 0.0667 0.0000  plane waves:   20489
 k-point 14 :  -0.1111 0.0667 0.0000  plane waves:   20506
 k-point 15 :   0.0000 0.1333 0.0000  plane waves:   20510
 k-point 16 :   0.1111 0.1333 0.0000  plane waves:   20505
 k-point 17 :   0.2222 0.1333 0.0000  plane waves:   20485
 k-point 18 :   0.3333 0.1333 0.0000  plane waves:   20480
 k-point 19 :   0.4444 0.1333 0.0000  plane waves:   20475
 k-point 20 :  -0.4444 0.1333 0.0000  plane waves:   20475
 k-point 21 :  -0.3333 0.1333 0.0000  plane waves:   20480
 k-point 22 :  -0.2222 0.1333 0.0000  plane waves:   20485
 k-point 23 :  -0.1111 0.1333 0.0000  plane waves:   20505
 k-point 24 :   0.0000 0.2000 0.0000  plane waves:   20542
 k-point 25 :   0.1111 0.2000 0.0000  plane waves:   20523
 k-point 26 :   0.2222 0.2000 0.0000  plane waves:   20515
 k-point 27 :   0.3333 0.2000 0.0000  plane waves:   20496
 k-point 28 :   0.4444 0.2000 0.0000  plane waves:   20520
 k-point 29 :  -0.4444 0.2000 0.0000  plane waves:   20520
 k-point 30 :  -0.3333 0.2000 0.0000  plane waves:   20496
 k-point 31 :  -0.2222 0.2000 0.0000  plane waves:   20515
 k-point 32 :  -0.1111 0.2000 0.0000  plane waves:   20523
 k-point 33 :   0.0000 0.2667 0.0000  plane waves:   20584
 k-point 34 :   0.1111 0.2667 0.0000  plane waves:   20545
 k-point 35 :   0.2222 0.2667 0.0000  plane waves:   20515
 k-point 36 :   0.3333 0.2667 0.0000  plane waves:   20518
 k-point 37 :   0.4444 0.2667 0.0000  plane waves:   20561
 k-point 38 :  -0.4444 0.2667 0.0000  plane waves:   20561
 k-point 39 :  -0.3333 0.2667 0.0000  plane waves:   20518
 k-point 40 :  -0.2222 0.2667 0.0000  plane waves:   20515
 k-point 41 :  -0.1111 0.2667 0.0000  plane waves:   20545
 k-point 42 :   0.0000 0.3333 0.0000  plane waves:   20548
 k-point 43 :   0.1111 0.3333 0.0000  plane waves:   20560
 k-point 44 :   0.2222 0.3333 0.0000  plane waves:   20558
 k-point 45 :   0.3333 0.3333 0.0000  plane waves:   20555
 k-point 46 :   0.4444 0.3333 0.0000  plane waves:   20559
 k-point 47 :  -0.4444 0.3333 0.0000  plane waves:   20559
 k-point 48 :  -0.3333 0.3333 0.0000  plane waves:   20555
 k-point 49 :  -0.2222 0.3333 0.0000  plane waves:   20558
 k-point 50 :  -0.1111 0.3333 0.0000  plane waves:   20560
 k-point 51 :   0.0000 0.4000 0.0000  plane waves:   20544
 k-point 52 :   0.1111 0.4000 0.0000  plane waves:   20547
 k-point 53 :   0.2222 0.4000 0.0000  plane waves:   20572
 k-point 54 :   0.3333 0.4000 0.0000  plane waves:   20587
 k-point 55 :   0.4444 0.4000 0.0000  plane waves:   20602
 k-point 56 :  -0.4444 0.4000 0.0000  plane waves:   20602
 k-point 57 :  -0.3333 0.4000 0.0000  plane waves:   20587
 k-point 58 :  -0.2222 0.4000 0.0000  plane waves:   20572
 k-point 59 :  -0.1111 0.4000 0.0000  plane waves:   20547
 k-point 60 :   0.0000 0.4667 0.0000  plane waves:   20572
 k-point 61 :   0.1111 0.4667 0.0000  plane waves:   20561
 k-point 62 :   0.2222 0.4667 0.0000  plane waves:   20581
 k-point 63 :   0.3333 0.4667 0.0000  plane waves:   20601
 k-point 64 :   0.4444 0.4667 0.0000  plane waves:   20600
 k-point 65 :  -0.4444 0.4667 0.0000  plane waves:   20600
 k-point 66 :  -0.3333 0.4667 0.0000  plane waves:   20601
 k-point 67 :  -0.2222 0.4667 0.0000  plane waves:   20581
 k-point 68 :  -0.1111 0.4667 0.0000  plane waves:   20561

 maximum and minimum number of plane-waves per node :      1334     1239

 maximum number of plane-waves:     20602
 maximum index in each direction: 
   IXMAX=   13   IYMAX=    6   IZMAX=   55
   IXMIN=  -13   IYMIN=   -7   IZMIN=  -55


 parallel 3D FFT for wavefunctions:
    minimum data exchange during FFTs selected (reduces bandwidth)
 parallel 3D FFT for charge:
    minimum data exchange during FFTs selected (reduces bandwidth)


 total amount of memory used by VASP MPI-rank0    70305. kBytes
=======================================================================

   base      :      30000. kBytes
   nonl-proj :      25505. kBytes
   fftplans  :       2371. kBytes
   grid      :       3824. kBytes
   one-center:         15. kBytes
   wavefun   :       8590. kBytes
 
     INWAV:  cpu time    0.0000: real time    0.0000
 Broyden mixing: mesh for mixing (old mesh)
   NGX = 25   NGY = 13   NGZ =111
  (NGX  =108   NGY  = 56   NGZ  =448)
  gives a total of  36075 points

 initial charge density was supplied:
 charge density of overlapping atoms calculated
 number of electron      36.0000000 magnetization 
 keeping initial charge density in first step


--------------------------------------------------------------------------------------------------------


 Maximum index for augmentation-charges         1232 (set IRDMAX)


--------------------------------------------------------------------------------------------------------


 First call to EWALD:  gamma=   0.208
 Maximum number of real-space cells 4x 6x 1
 Maximum number of reciprocal cells 2x 1x 8

    FEWALD:  cpu time    0.0016: real time    0.0016


--------------------------------------- Iteration      1(   1)  ---------------------------------------


    POTLOK:  cpu time    0.0510: real time    0.0550
    SETDIJ:  cpu time    0.0034: real time    0.0035
     EDDAV:  cpu time    2.1467: real time    2.1759
       DOS:  cpu time    0.0018: real time    0.0018
    --------------------------------------------
      LOOP:  cpu time    2.2029: real time    2.2363

 eigenvalue-minimisations  :  3264
 total energy-change (2. order) : 0.2660317E+03  (-0.1142525E+04)
 number of electron      36.0000000 magnetization 
 augmentation part       36.0000000 magnetization 

 DIPCOR: dipole corrections for dipol
 direction  3 min pos     1,
 dipolmoment           0.000000      0.000000     -0.000000 electrons x Angstroem
 Tr[quadrupol]      -140.837387

 energy correction for charged system         0.000000 eV
 dipol+quadrupol energy correction           -0.000000 eV
 added-field ion interaction          0.000000 eV  (added to PSCEN)


 Free energy of the ion-electron system (eV)
  ---------------------------------------------------
  alpha Z        PSCENC =        14.39951365
  Ewald energy   TEWEN  =      6735.07817695
  -Hartree energ DENC   =     -7920.90534442
  -exchange      EXHF   =         0.00000000
  -V(xc)+E(xc)   XCENC  =      -233.78510726
  PAW double counting   =      1362.14282323    -1065.87210056
  entropy T*S    EENTRO =        -0.01899446
  eigenvalues    EBANDS =        46.87195224
  atomic energy  EATOM  =      1328.12079387
  Solvation  Ediel_sol  =         0.00000000
  ---------------------------------------------------
  free energy    TOTEN  =       266.03171324 eV

  energy without entropy =      266.05070770  energy(sigma->0) =      266.04121047


--------------------------------------------------------------------------------------------------------




--------------------------------------- Iteration      1(   2)  ---------------------------------------


     EDDAV:  cpu time    3.0740: real time    3.0742
       DOS:  cpu time    0.0019: real time    0.0019
    --------------------------------------------
      LOOP:  cpu time    3.0759: real time    3.0760

 eigenvalue-minimisations  :  5272
 total energy-change (2. order) :-0.2673073E+03  (-0.2587063E+03)
 number of electron      36.0000000 magnetization 
 augmentation part       36.0000000 magnetization 

 DIPCOR: dipole corrections for dipol
 direction  3 min pos     1,
 dipolmoment           0.000000      0.000000     -0.000000 electrons x Angstroem
 Tr[quadrupol]      -140.837387

 energy correction for charged system         0.000000 eV
 dipol+quadrupol energy correction           -0.000000 eV
 added-field ion interaction          0.000000 eV  (added to PSCEN)


 Free energy of the ion-electron system (eV)
  ---------------------------------------------------
  alpha Z        PSCENC =        14.39951365
  Ewald energy   TEWEN  =      6735.07817695
  -Hartree energ DENC   =     -7920.90534442
  -exchange      EXHF   =         0.00000000
  -V(xc)+E(xc)   XCENC  =      -233.78510726
  PAW double counting   =      1362.14282323    -1065.87210056
  entropy T*S    EENTRO =        -0.00561675
  eigenvalues    EBANDS =      -220.44872984
  atomic energy  EATOM  =      1328.12079387
  Solvation  Ediel_sol  =         0.00000000
  ---------------------------------------------------
  free energy    TOTEN  =        -1.27559113 eV

  energy without entropy =       -1.26997438  energy(sigma->0) =       -1.27278275


--------------------------------------------------------------------------------------------------------




--------------------------------------- Iteration      1(   3)  ---------------------------------------


     EDDAV:  cpu time    2.6041: real time    2.6042
       DOS:  cpu time    0.0018: real time    0.0018
    --------------------------------------------
      LOOP:  cpu time    2.6059: real time    2.6060

 eigenvalue-minimisations  :  4360
 total energy-change (2. order) :-0.3470942E+02  (-0.3427894E+02)
 number of electron      36.0000000 magnetization 
 augmentation part       36.0000000 magnetization 

 DIPCOR: dipole corrections for dipol
 direction  3 min pos     1,
 dipolmoment           0.000000      0.000000     -0.000000 electrons x Angstroem
 Tr[quadrupol]      -140.837387

 energy correction for charged system         0.000000 eV
 dipol+quadrupol energy correction           -0.000000 eV
 added-field ion interaction          0.000000 eV  (added to PSCEN)


 Free energy of the ion-electron system (eV)
  ---------------------------------------------------
  alpha Z        PSCENC =        14.39951365
  Ewald energy   TEWEN  =      6735.07817695
  -Hartree energ DENC   =     -7920.90534442
  -exchange      EXHF   =         0.00000000
  -V(xc)+E(xc)   XCENC  =      -233.78510726
  PAW double counting   =      1362.14282323    -1065.87210056
  entropy T*S    EENTRO =        -0.00616324
  eigenvalues    EBANDS =      -255.15759934
  atomic energy  EATOM  =      1328.12079387
  Solvation  Ediel_sol  =         0.00000000
  ---------------------------------------------------
  free energy    TOTEN  =       -35.98500712 eV

  energy without entropy =      -35.97884388  energy(sigma->0) =      -35.98192550


--------------------------------------------------------------------------------------------------------




--------------------------------------- Iteration      1(   4)  ---------------------------------------


     EDDAV:  cpu time    2.9297: real time    2.9298
       DOS:  cpu time    0.0018: real time    0.0018
    --------------------------------------------
      LOOP:  cpu time    2.9315: real time    2.9316

 eigenvalue-minimisations  :  5120
 total energy-change (2. order) :-0.1407648E+01  (-0.1399571E+01)
 number of electron      36.0000000 magnetization 
 augmentation part       36.0000000 magnetization 

 DIPCOR: dipole corrections for dipol
 direction  3 min pos     1,
 dipolmoment           0.000000      0.000000     -0.000000 electrons x Angstroem
 Tr[quadrupol]      -140.837387

 energy correction for charged system         0.000000 eV
 dipol+quadrupol energy correction           -0.000000 eV
 added-field ion interaction          0.000000 eV  (added to PSCEN)


 Free energy of the ion-electron system (eV)
  ---------------------------------------------------
  alpha Z        PSCENC =        14.39951365
  Ewald energy   TEWEN  =      6735.07817695
  -Hartree energ DENC   =     -7920.90534442
  -exchange      EXHF   =         0.00000000
  -V(xc)+E(xc)   XCENC  =      -233.78510726
  PAW double counting   =      1362.14282323    -1065.87210056
  entropy T*S    EENTRO =        -0.00600132
  eigenvalues    EBANDS =      -256.56540898
  atomic energy  EATOM  =      1328.12079387
  Solvation  Ediel_sol  =         0.00000000
  ---------------------------------------------------
  free energy    TOTEN  =       -37.39265484 eV

  energy without entropy =      -37.38665351  energy(sigma->0) =      -37.38965417


--------------------------------------------------------------------------------------------------------




--------------------------------------- Iteration      1(   5)  ---------------------------------------


     EDDAV:  cpu time    2.7548: real time    2.7549
       DOS:  cpu time    0.0018: real time    0.0018
    CHARGE:  cpu time    0.1276: real time    0.1276
    MIXING:  cpu time    0.0014: real time    0.0016
    --------------------------------------------
      LOOP:  cpu time    2.8856: real time    2.8860

 eigenvalue-minimisations  :  4720
 total energy-change (2. order) :-0.2589497E-01  (-0.2586100E-01)
 number of electron      35.9999998 magnetization 
 augmentation part       -2.7698221 magnetization 

 DIPCOR: dipole corrections for dipol
 direction  3 min pos     1,
 dipolmoment           0.000000      0.000000     -0.000000 electrons x Angstroem
 Tr[quadrupol]      -140.837387

 energy correction for charged system         0.000000 eV
 dipol+quadrupol energy correction           -0.000000 eV
 added-field ion interaction          0.000000 eV  (added to PSCEN)


 Broyden mixing:
  rms(total) = 0.21220E+01    rms(broyden)= 0.21220E+01
  rms(prec ) = 0.21340E+01
  weight for this iteration     100.00

 Free energy of the ion-electron system (eV)
  ---------------------------------------------------
  alpha Z        PSCENC =        14.39951365
  Ewald energy   TEWEN  =      6735.07817695
  -Hartree energ DENC   =     -7920.90534442
  -exchange      EXHF   =         0.00000000
  -V(xc)+E(xc)   XCENC  =      -233.78510726
  PAW double counting   =      1362.14282323    -1065.87210056
  entropy T*S    EENTRO =        -0.00600952
  eigenvalues    EBANDS =      -256.59129574
  atomic energy  EATOM  =      1328.12079387
  Solvation  Ediel_sol  =         0.00000000
  ---------------------------------------------------
  free energy    TOTEN  =       -37.41854980 eV

  energy without entropy =      -37.41254028  energy(sigma->0) =      -37.41554504


--------------------------------------------------------------------------------------------------------




--------------------------------------- Iteration      1(   6)  ---------------------------------------


    POTLOK:  cpu time    0.0420: real time    0.0420
    SETDIJ:  cpu time    0.0030: real time    0.0030
     EDDAV:  cpu time    2.6829: real time    2.6831
       DOS:  cpu time    0.0020: real time    0.0020
    CHARGE:  cpu time    0.1257: real time    0.1257
    MIXING:  cpu time    0.0009: real time    0.0010
    --------------------------------------------
      LOOP:  cpu time    2.8565: real time    2.8568

 eigenvalue-minimisations  :  4584
 total energy-change (2. order) : 0.9358555E+00  (-0.4397871E+00)
 number of electron      35.9999998 magnetization 
 augmentation part       -2.1579307 magnetization 

 DIPCOR: dipole corrections for dipol
 direction  3 min pos     1,
 dipolmoment           0.000000      0.000000     -0.000001 electrons x Angstroem
 Tr[quadrupol]      -141.133797

 energy correction for charged system         0.000000 eV
 dipol+quadrupol energy correction           -0.000000 eV
 added-field ion interaction          0.000000 eV  (added to PSCEN)


 Broyden mixing:
  rms(total) = 0.85405E+00    rms(broyden)= 0.85405E+00
  rms(prec ) = 0.87241E+00
  weight for this iteration     100.00

 eigenvalues of (default mixing * dielectric matrix)
  average eigenvalue GAMMA=   1.4646
  1.4646

 Free energy of the ion-electron system (eV)
  ---------------------------------------------------
  alpha Z        PSCENC =        14.39951365
  Ewald energy   TEWEN  =      6735.07817695
  -Hartree energ DENC   =     -7921.26169506
  -exchange      EXHF   =         0.00000000
  -V(xc)+E(xc)   XCENC  =      -233.09779425
  PAW double counting   =      1860.28813120    -1565.32888442
  entropy T*S    EENTRO =        -0.00693216
  eigenvalues    EBANDS =      -254.67400411
  atomic energy  EATOM  =      1328.12079387
  Solvation  Ediel_sol  =         0.00000000
  ---------------------------------------------------
  free energy    TOTEN  =       -36.48269433 eV

  energy without entropy =      -36.47576217  energy(sigma->0) =      -36.47922825


--------------------------------------------------------------------------------------------------------




--------------------------------------- Iteration      1(   7)  ---------------------------------------


    POTLOK:  cpu time    0.0409: real time    0.0409
    SETDIJ:  cpu time    0.0027: real time    0.0027
     EDDAV:  cpu time    2.5537: real time    2.5541
       DOS:  cpu time    0.0019: real time    0.0019
    CHARGE:  cpu time    0.1255: real time    0.1255
    MIXING:  cpu time    0.0009: real time    0.0009
    --------------------------------------------
      LOOP:  cpu time    2.7257: real time    2.7261

 eigenvalue-minimisations  :  4248
 total energy-change (2. order) :-0.6097225E-01  (-0.6257001E+00)
 number of electron      35.9999998 magnetization 
 augmentation part       -2.8020844 magnetization 

 DIPCOR: dipole corrections for dipol
 direction  3 min pos     1,
 dipolmoment           0.000000      0.000000     -0.000214 electrons x Angstroem
 Tr[quadrupol]      -142.004334

 energy correction for charged system         0.000000 eV
 dipol+quadrupol energy correction           -0.000000 eV
 added-field ion interaction          0.000000 eV  (added to PSCEN)


 Broyden mixing:
  rms(total) = 0.65264E+00    rms(broyden)= 0.65264E+00
  rms(prec ) = 0.68699E+00
  weight for this iteration     100.00

 eigenvalues of (default mixing * dielectric matrix)
  average eigenvalue GAMMA=   1.0922
  1.7187  0.4656

 Free energy of the ion-electron system (eV)
  ---------------------------------------------------
  alpha Z        PSCENC =        14.39951364
  Ewald energy   TEWEN  =      6735.07817695
  -Hartree energ DENC   =     -7941.15324894
  -exchange      EXHF   =         0.00000000
  -V(xc)+E(xc)   XCENC  =      -232.93158255
  PAW double counting   =      2312.64254312    -2018.50655050
  entropy T*S    EENTRO =        -0.00792139
  eigenvalues    EBANDS =      -234.18539078
  atomic energy  EATOM  =      1328.12079387
  Solvation  Ediel_sol  =         0.00000000
  ---------------------------------------------------
  free energy    TOTEN  =       -36.54366658 eV

  energy without entropy =      -36.53574519  energy(sigma->0) =      -36.53970588


--------------------------------------------------------------------------------------------------------




--------------------------------------- Iteration      1(   8)  ---------------------------------------


    POTLOK:  cpu time    0.0409: real time    0.0409
    SETDIJ:  cpu time    0.0027: real time    0.0027
     EDDAV:  cpu time    2.6057: real time    2.6058
       DOS:  cpu time    0.0019: real time    0.0019
    CHARGE:  cpu time    0.1256: real time    0.1256
    MIXING:  cpu time    0.0009: real time    0.0009
    --------------------------------------------
      LOOP:  cpu time    2.7779: real time    2.7779

 eigenvalue-minimisations  :  4352
 total energy-change (2. order) : 0.5401894E+00  (-0.1493171E+00)
 number of electron      35.9999998 magnetization 
 augmentation part       -2.5054871 magnetization 

 DIPCOR: dipole corrections for dipol
 direction  3 min pos     1,
 dipolmoment           0.000000      0.000000      0.000022 electrons x Angstroem
 Tr[quadrupol]      -141.915336

 energy correction for charged system         0.000000 eV
 dipol+quadrupol energy correction           -0.000000 eV
 added-field ion interaction         -0.000000 eV  (added to PSCEN)


 Broyden mixing:
  rms(total) = 0.23356E+00    rms(broyden)= 0.23356E+00
  rms(prec ) = 0.23887E+00
  weight for this iteration     100.00

 eigenvalues of (default mixing * dielectric matrix)
  average eigenvalue GAMMA=   1.1130
  2.1196  0.7206  0.4988

 Free energy of the ion-electron system (eV)
  ---------------------------------------------------
  alpha Z        PSCENC =        14.39951365
  Ewald energy   TEWEN  =      6735.07817695
  -Hartree energ DENC   =     -7936.64740660
  -exchange      EXHF   =         0.00000000
  -V(xc)+E(xc)   XCENC  =      -232.60883868
  PAW double counting   =      2466.24069297    -2172.40091857
  entropy T*S    EENTRO =        -0.00682082
  eigenvalues    EBANDS =      -238.17866995
  atomic energy  EATOM  =      1328.12079387
  Solvation  Ediel_sol  =         0.00000000
  ---------------------------------------------------
  free energy    TOTEN  =       -36.00347719 eV

  energy without entropy =      -35.99665637  energy(sigma->0) =      -36.00006678


--------------------------------------------------------------------------------------------------------




--------------------------------------- Iteration      1(   9)  ---------------------------------------


    POTLOK:  cpu time    0.0409: real time    0.0409
    SETDIJ:  cpu time    0.0027: real time    0.0027
     EDDAV:  cpu time    2.8753: real time    2.8754
       DOS:  cpu time    0.0018: real time    0.0018
    CHARGE:  cpu time    0.1256: real time    0.1256
    MIXING:  cpu time    0.0010: real time    0.0010
    --------------------------------------------
      LOOP:  cpu time    3.0472: real time    3.0474

 eigenvalue-minimisations  :  4944
 total energy-change (2. order) : 0.1067051E-01  (-0.4248500E-01)
 number of electron      35.9999998 magnetization 
 augmentation part       -2.3344771 magnetization 

 DIPCOR: dipole corrections for dipol
 direction  3 min pos     1,
 dipolmoment           0.000000      0.000000      0.000031 electrons x Angstroem
 Tr[quadrupol]      -142.012860

 energy correction for charged system         0.000000 eV
 dipol+quadrupol energy correction           -0.000000 eV
 added-field ion interaction         -0.000000 eV  (added to PSCEN)


 Broyden mixing:
  rms(total) = 0.12477E+00    rms(broyden)= 0.12477E+00
  rms(prec ) = 0.12857E+00
  weight for this iteration     100.00

 eigenvalues of (default mixing * dielectric matrix)
  average eigenvalue GAMMA=   1.0930
  2.0679  1.1181  0.5929  0.5929

 Free energy of the ion-electron system (eV)
  ---------------------------------------------------
  alpha Z        PSCENC =        14.39951365
  Ewald energy   TEWEN  =      6735.07817695
  -Hartree energ DENC   =     -7937.52188190
  -exchange      EXHF   =         0.00000000
  -V(xc)+E(xc)   XCENC  =      -232.41258907
  PAW double counting   =      2599.41346507    -2305.78883501
  entropy T*S    EENTRO =        -0.00682124
  eigenvalues    EBANDS =      -237.27462901
  atomic energy  EATOM  =      1328.12079387
  Solvation  Ediel_sol  =         0.00000000
  ---------------------------------------------------
  free energy    TOTEN  =       -35.99280668 eV

  energy without entropy =      -35.98598544  energy(sigma->0) =      -35.98939606


--------------------------------------------------------------------------------------------------------




--------------------------------------- Iteration      1(  10)  ---------------------------------------


    POTLOK:  cpu time    0.0412: real time    0.0412
    SETDIJ:  cpu time    0.0027: real time    0.0027
     EDDAV:  cpu time    2.6103: real time    2.6104
       DOS:  cpu time    0.0019: real time    0.0019
    CHARGE:  cpu time    0.1256: real time    0.1256
    MIXING:  cpu time    0.0010: real time    0.0010
    --------------------------------------------
      LOOP:  cpu time    2.7827: real time    2.7828

 eigenvalue-minimisations  :  4336
 total energy-change (2. order) : 0.9480249E-02  (-0.4970263E-02)
 number of electron      35.9999998 magnetization 
 augmentation part       -2.3920914 magnetization 

 DIPCOR: dipole corrections for dipol
 direction  3 min pos     1,
 dipolmoment           0.000000      0.000000      0.000055 electrons x Angstroem
 Tr[quadrupol]      -142.120906

 energy correction for charged system         0.000000 eV
 dipol+quadrupol energy correction           -0.000000 eV
 added-field ion interaction         -0.000000 eV  (added to PSCEN)


 Broyden mixing:
  rms(total) = 0.49474E-01    rms(broyden)= 0.49474E-01
  rms(prec ) = 0.50437E-01
  weight for this iteration     100.00

 eigenvalues of (default mixing * dielectric matrix)
  average eigenvalue GAMMA=   1.4042
  2.8692  1.4791  1.4791  0.5969  0.5969

 Free energy of the ion-electron system (eV)
  ---------------------------------------------------
  alpha Z        PSCENC =        14.39951365
  Ewald energy   TEWEN  =      6735.07817695
  -Hartree energ DENC   =     -7939.82635368
  -exchange      EXHF   =         0.00000000
  -V(xc)+E(xc)   XCENC  =      -232.39952814
  PAW double counting   =      2630.45530484    -2336.86319368
  entropy T*S    EENTRO =        -0.00678933
  eigenvalues    EBANDS =      -234.94125092
  atomic energy  EATOM  =      1328.12079387
  Solvation  Ediel_sol  =         0.00000000
  ---------------------------------------------------
  free energy    TOTEN  =       -35.98332644 eV

  energy without entropy =      -35.97653710  energy(sigma->0) =      -35.97993177


--------------------------------------------------------------------------------------------------------




--------------------------------------- Iteration      1(  11)  ---------------------------------------


    POTLOK:  cpu time    0.0411: real time    0.0411
    SETDIJ:  cpu time    0.0027: real time    0.0027
     EDDAV:  cpu time    2.7121: real time    2.7127
       DOS:  cpu time    0.0019: real time    0.0019
    CHARGE:  cpu time    0.1263: real time    0.1263
    MIXING:  cpu time    0.0010: real time    0.0010
    --------------------------------------------
      LOOP:  cpu time    2.8852: real time    2.8857

 eigenvalue-minimisations  :  4680
 total energy-change (2. order) : 0.9703343E-03  (-0.9609108E-03)
 number of electron      35.9999998 magnetization 
 augmentation part       -2.3671826 magnetization 

 DIPCOR: dipole corrections for dipol
 direction  3 min pos     1,
 dipolmoment           0.000000      0.000000     -0.000056 electrons x Angstroem
 Tr[quadrupol]      -142.284785

 energy correction for charged system         0.000000 eV
 dipol+quadrupol energy correction           -0.000000 eV
 added-field ion interaction          0.000000 eV  (added to PSCEN)


 Broyden mixing:
  rms(total) = 0.33802E-01    rms(broyden)= 0.33802E-01
  rms(prec ) = 0.35999E-01
  weight for this iteration     100.00

 eigenvalues of (default mixing * dielectric matrix)
  average eigenvalue GAMMA=   1.2908
  2.5631  1.7986  1.2633  0.5904  0.5904  0.9389

 Free energy of the ion-electron system (eV)
  ---------------------------------------------------
  alpha Z        PSCENC =        14.39951365
  Ewald energy   TEWEN  =      6735.07817695
  -Hartree energ DENC   =     -7942.47827359
  -exchange      EXHF   =         0.00000000
  -V(xc)+E(xc)   XCENC  =      -232.29905571
  PAW double counting   =      2714.20434910    -2420.69010774
  entropy T*S    EENTRO =        -0.00680198
  eigenvalues    EBANDS =      -232.31095065
  atomic energy  EATOM  =      1328.12079387
  Solvation  Ediel_sol  =         0.00000000
  ---------------------------------------------------
  free energy    TOTEN  =       -35.98235610 eV

  energy without entropy =      -35.97555412  energy(sigma->0) =      -35.97895511


--------------------------------------------------------------------------------------------------------




--------------------------------------- Iteration      1(  12)  ---------------------------------------


    POTLOK:  cpu time    0.0412: real time    0.0412
    SETDIJ:  cpu time    0.0027: real time    0.0027
     EDDAV:  cpu time    2.6706: real time    2.6707
       DOS:  cpu time    0.0019: real time    0.0019
    CHARGE:  cpu time    0.1262: real time    0.1262
    MIXING:  cpu time    0.0010: real time    0.0010
    --------------------------------------------
      LOOP:  cpu time    2.8437: real time    2.8438

 eigenvalue-minimisations  :  4608
 total energy-change (2. order) : 0.1189628E-02  (-0.5388034E-03)
 number of electron      35.9999998 magnetization 
 augmentation part       -2.3882561 magnetization 

 DIPCOR: dipole corrections for dipol
 direction  3 min pos     1,
 dipolmoment           0.000000      0.000000      0.000038 electrons x Angstroem
 Tr[quadrupol]      -142.316463

 energy correction for charged system         0.000000 eV
 dipol+quadrupol energy correction           -0.000000 eV
 added-field ion interaction         -0.000000 eV  (added to PSCEN)


 Broyden mixing:
  rms(total) = 0.55468E-02    rms(broyden)= 0.55468E-02
  rms(prec ) = 0.71423E-02
  weight for this iteration     100.00

 eigenvalues of (default mixing * dielectric matrix)
  average eigenvalue GAMMA=   1.2102
  2.4304  2.0189  1.0978  1.0978  0.5886  0.5886  0.6489

 Free energy of the ion-electron system (eV)
  ---------------------------------------------------
  alpha Z        PSCENC =        14.39951365
  Ewald energy   TEWEN  =      6735.07817695
  -Hartree energ DENC   =     -7943.16798196
  -exchange      EXHF   =         0.00000000
  -V(xc)+E(xc)   XCENC  =      -232.31602464
  PAW double counting   =      2698.48410193    -2404.94498705
  entropy T*S    EENTRO =        -0.00679796
  eigenvalues    EBANDS =      -231.62796126
  atomic energy  EATOM  =      1328.12079387
  Solvation  Ediel_sol  =         0.00000000
  ---------------------------------------------------
  free energy    TOTEN  =       -35.98116647 eV

  energy without entropy =      -35.97436851  energy(sigma->0) =      -35.97776749


--------------------------------------------------------------------------------------------------------




--------------------------------------- Iteration      1(  13)  ---------------------------------------


    POTLOK:  cpu time    0.0418: real time    0.0418
    SETDIJ:  cpu time    0.0027: real time    0.0027
     EDDAV:  cpu time    2.6420: real time    2.6421
       DOS:  cpu time    0.0019: real time    0.0019
    CHARGE:  cpu time    0.1262: real time    0.1262
    MIXING:  cpu time    0.0011: real time    0.0011
    --------------------------------------------
      LOOP:  cpu time    2.8157: real time    2.8158

 eigenvalue-minimisations  :  4504
 total energy-change (2. order) : 0.3506415E-04  (-0.5565752E-04)
 number of electron      35.9999998 magnetization 
 augmentation part       -2.3911005 magnetization 

 DIPCOR: dipole corrections for dipol
 direction  3 min pos     1,
 dipolmoment           0.000000      0.000000      0.000017 electrons x Angstroem
 Tr[quadrupol]      -142.351900

 energy correction for charged system         0.000000 eV
 dipol+quadrupol energy correction           -0.000000 eV
 added-field ion interaction         -0.000000 eV  (added to PSCEN)


 Broyden mixing:
  rms(total) = 0.71648E-02    rms(broyden)= 0.71648E-02
  rms(prec ) = 0.82096E-02
  weight for this iteration     100.00

 eigenvalues of (default mixing * dielectric matrix)
  average eigenvalue GAMMA=   1.1510
  2.3337  2.1386  1.0961  1.0961  0.5812  0.5812  0.6904  0.6904

 Free energy of the ion-electron system (eV)
  ---------------------------------------------------
  alpha Z        PSCENC =        14.39951365
  Ewald energy   TEWEN  =      6735.07817695
  -Hartree energ DENC   =     -7943.77374992
  -exchange      EXHF   =         0.00000000
  -V(xc)+E(xc)   XCENC  =      -232.31272168
  PAW double counting   =      2693.33229013    -2399.78544800
  entropy T*S    EENTRO =        -0.00680100
  eigenvalues    EBANDS =      -231.03318542
  atomic energy  EATOM  =      1328.12079387
  Solvation  Ediel_sol  =         0.00000000
  ---------------------------------------------------
  free energy    TOTEN  =       -35.98113141 eV

  energy without entropy =      -35.97433041  energy(sigma->0) =      -35.97773091


--------------------------------------------------------------------------------------------------------




--------------------------------------- Iteration      1(  14)  ---------------------------------------


    POTLOK:  cpu time    0.0415: real time    0.0415
    SETDIJ:  cpu time    0.0027: real time    0.0027
     EDDAV:  cpu time    2.6914: real time    2.6915
       DOS:  cpu time    0.0019: real time    0.0019
    CHARGE:  cpu time    0.1260: real time    0.1260
    MIXING:  cpu time    0.0011: real time    0.0011
    --------------------------------------------
      LOOP:  cpu time    2.8646: real time    2.8647

 eigenvalue-minimisations  :  4640
 total energy-change (2. order) : 0.6782058E-04  (-0.2039227E-04)
 number of electron      35.9999998 magnetization 
 augmentation part       -2.3903355 magnetization 

 DIPCOR: dipole corrections for dipol
 direction  3 min pos     1,
 dipolmoment           0.000000      0.000000     -0.000019 electrons x Angstroem
 Tr[quadrupol]      -142.386917

 energy correction for charged system         0.000000 eV
 dipol+quadrupol energy correction           -0.000000 eV
 added-field ion interaction          0.000000 eV  (added to PSCEN)


 Broyden mixing:
  rms(total) = 0.56075E-02    rms(broyden)= 0.56075E-02
  rms(prec ) = 0.65143E-02
  weight for this iteration     100.00

 eigenvalues of (default mixing * dielectric matrix)
  average eigenvalue GAMMA=   1.3724
  2.7811  2.7811  1.7528  1.5428  1.1214  0.8265  0.5888  0.5888  0.3686

 Free energy of the ion-electron system (eV)
  ---------------------------------------------------
  alpha Z        PSCENC =        14.39951365
  Ewald energy   TEWEN  =      6735.07817695
  -Hartree energ DENC   =     -7944.36410577
  -exchange      EXHF   =         0.00000000
  -V(xc)+E(xc)   XCENC  =      -232.30702510
  PAW double counting   =      2690.32176498    -2396.77160957
  entropy T*S    EENTRO =        -0.00680399
  eigenvalues    EBANDS =      -230.45176861
  atomic energy  EATOM  =      1328.12079387
  Solvation  Ediel_sol  =         0.00000000
  ---------------------------------------------------
  free energy    TOTEN  =       -35.98106359 eV

  energy without entropy =      -35.97425960  energy(sigma->0) =      -35.97766159


--------------------------------------------------------------------------------------------------------




--------------------------------------- Iteration      1(  15)  ---------------------------------------


    POTLOK:  cpu time    0.0408: real time    0.0408
    SETDIJ:  cpu time    0.0027: real time    0.0027
     EDDAV:  cpu time    2.4024: real time    2.4025
       DOS:  cpu time    0.0018: real time    0.0018
    CHARGE:  cpu time    0.1263: real time    0.1263
    MIXING:  cpu time    0.0011: real time    0.0011
    --------------------------------------------
      LOOP:  cpu time    2.5751: real time    2.5752

 eigenvalue-minimisations  :  3992
 total energy-change (2. order) : 0.5999468E-04  (-0.6291249E-04)
 number of electron      35.9999998 magnetization 
 augmentation part       -2.3858742 magnetization 

 DIPCOR: dipole corrections for dipol
 direction  3 min pos     1,
 dipolmoment           0.000000      0.000000      0.000024 electrons x Angstroem
 Tr[quadrupol]      -142.474204

 energy correction for charged system         0.000000 eV
 dipol+quadrupol energy correction           -0.000000 eV
 added-field ion interaction         -0.000000 eV  (added to PSCEN)


 Broyden mixing:
  rms(total) = 0.46577E-02    rms(broyden)= 0.46577E-02
  rms(prec ) = 0.48534E-02
  weight for this iteration     100.00

 eigenvalues of (default mixing * dielectric matrix)
  average eigenvalue GAMMA=   1.3486
  3.4075  2.6796  1.5731  1.5731  0.9513  0.9513  0.5884  0.5884  0.8109  0.3623

 Free energy of the ion-electron system (eV)
  ---------------------------------------------------
  alpha Z        PSCENC =        14.39951365
  Ewald energy   TEWEN  =      6735.07817695
  -Hartree energ DENC   =     -7945.82778327
  -exchange      EXHF   =         0.00000000
  -V(xc)+E(xc)   XCENC  =      -232.28937959
  PAW double counting   =      2686.76256755    -2393.21002972
  entropy T*S    EENTRO =        -0.00681238
  eigenvalues    EBANDS =      -229.00805066
  atomic energy  EATOM  =      1328.12079387
  Solvation  Ediel_sol  =         0.00000000
  ---------------------------------------------------
  free energy    TOTEN  =       -35.98100359 eV

  energy without entropy =      -35.97419122  energy(sigma->0) =      -35.97759741


--------------------------------------------------------------------------------------------------------




--------------------------------------- Iteration      1(  16)  ---------------------------------------


    POTLOK:  cpu time    0.0413: real time    0.0413
    SETDIJ:  cpu time    0.0027: real time    0.0027
     EDDAV:  cpu time    2.7657: real time    2.7658
       DOS:  cpu time    0.0019: real time    0.0019
    CHARGE:  cpu time    0.1264: real time    0.1264
    MIXING:  cpu time    0.0012: real time    0.0012
    --------------------------------------------
      LOOP:  cpu time    2.9393: real time    2.9394

 eigenvalue-minimisations  :  4800
 total energy-change (2. order) :-0.5251657E-04  (-0.3647225E-05)
 number of electron      35.9999998 magnetization 
 augmentation part       -2.3852501 magnetization 

 DIPCOR: dipole corrections for dipol
 direction  3 min pos     1,
 dipolmoment           0.000000      0.000000     -0.000015 electrons x Angstroem
 Tr[quadrupol]      -142.490018

 energy correction for charged system         0.000000 eV
 dipol+quadrupol energy correction           -0.000000 eV
 added-field ion interaction          0.000000 eV  (added to PSCEN)


 Broyden mixing:
  rms(total) = 0.36136E-02    rms(broyden)= 0.36136E-02
  rms(prec ) = 0.37838E-02
  weight for this iteration     100.00

 eigenvalues of (default mixing * dielectric matrix)
  average eigenvalue GAMMA=   1.3124
  3.3467  2.6084  1.4974  1.4974  1.2083  1.2083  0.5887  0.5887  0.8322  0.6971
  0.3638

 Free energy of the ion-electron system (eV)
  ---------------------------------------------------
  alpha Z        PSCENC =        14.39951365
  Ewald energy   TEWEN  =      6735.07817695
  -Hartree energ DENC   =     -7946.09992254
  -exchange      EXHF   =         0.00000000
  -V(xc)+E(xc)   XCENC  =      -232.28666534
  PAW double counting   =      2686.88913590    -2393.33526167
  entropy T*S    EENTRO =        -0.00681335
  eigenvalues    EBANDS =      -228.74001358
  atomic energy  EATOM  =      1328.12079387
  Solvation  Ediel_sol  =         0.00000000
  ---------------------------------------------------
  free energy    TOTEN  =       -35.98105611 eV

  energy without entropy =      -35.97424276  energy(sigma->0) =      -35.97764944


--------------------------------------------------------------------------------------------------------




--------------------------------------- Iteration      1(  17)  ---------------------------------------


    POTLOK:  cpu time    0.0414: real time    0.0414
    SETDIJ:  cpu time    0.0027: real time    0.0027
     EDDAV:  cpu time    2.2599: real time    2.2600
       DOS:  cpu time    0.0019: real time    0.0019
    CHARGE:  cpu time    0.1263: real time    0.1263
    MIXING:  cpu time    0.0012: real time    0.0012
    --------------------------------------------
      LOOP:  cpu time    2.4334: real time    2.4335

 eigenvalue-minimisations  :  3576
 total energy-change (2. order) :-0.7851838E-04  (-0.5531036E-06)
 number of electron      35.9999998 magnetization 
 augmentation part       -2.3857368 magnetization 

 DIPCOR: dipole corrections for dipol
 direction  3 min pos     1,
 dipolmoment           0.000000      0.000000     -0.000002 electrons x Angstroem
 Tr[quadrupol]      -142.494767

 energy correction for charged system         0.000000 eV
 dipol+quadrupol energy correction           -0.000000 eV
 added-field ion interaction          0.000000 eV  (added to PSCEN)


 Broyden mixing:
  rms(total) = 0.17018E-02    rms(broyden)= 0.17018E-02
  rms(prec ) = 0.19522E-02
  weight for this iteration     100.00

 eigenvalues of (default mixing * dielectric matrix)
  average eigenvalue GAMMA=   1.4604
  3.3969  2.7511  2.5483  1.8954  1.7490  1.0280  1.0280  0.5886  0.5886  0.7930
  0.7930  0.3650

 Free energy of the ion-electron system (eV)
  ---------------------------------------------------
  alpha Z        PSCENC =        14.39951365
  Ewald energy   TEWEN  =      6735.07817695
  -Hartree energ DENC   =     -7946.19382254
  -exchange      EXHF   =         0.00000000
  -V(xc)+E(xc)   XCENC  =      -232.28574870
  PAW double counting   =      2688.96818918    -2395.41463673
  entropy T*S    EENTRO =        -0.00681306
  eigenvalues    EBANDS =      -228.64678725
  atomic energy  EATOM  =      1328.12079387
  Solvation  Ediel_sol  =         0.00000000
  ---------------------------------------------------
  free energy    TOTEN  =       -35.98113463 eV

  energy without entropy =      -35.97432157  energy(sigma->0) =      -35.97772810


--------------------------------------------------------------------------------------------------------




--------------------------------------- Iteration      1(  18)  ---------------------------------------


    POTLOK:  cpu time    0.0420: real time    0.0420
    SETDIJ:  cpu time    0.0027: real time    0.0027
     EDDAV:  cpu time    2.4307: real time    2.4308
       DOS:  cpu time    0.0018: real time    0.0018
    CHARGE:  cpu time    0.1265: real time    0.1265
    MIXING:  cpu time    0.0012: real time    0.0012
    --------------------------------------------
      LOOP:  cpu time    2.6050: real time    2.6051

 eigenvalue-minimisations  :  3992
 total energy-change (2. order) :-0.2321753E-03  (-0.3872519E-05)
 number of electron      35.9999998 magnetization 
 augmentation part       -2.3864228 magnetization 

 DIPCOR: dipole corrections for dipol
 direction  3 min pos     1,
 dipolmoment           0.000000      0.000000     -0.000005 electrons x Angstroem
 Tr[quadrupol]      -142.519491

 energy correction for charged system         0.000000 eV
 dipol+quadrupol energy correction           -0.000000 eV
 added-field ion interaction          0.000000 eV  (added to PSCEN)


 Broyden mixing:
  rms(total) = 0.29406E-02    rms(broyden)= 0.29406E-02
  rms(prec ) = 0.29702E-02
  weight for this iteration     100.00

 eigenvalues of (default mixing * dielectric matrix)
  average eigenvalue GAMMA=   1.5164
  5.2947  2.6721  2.3387  1.5810  1.5810  1.1132  1.1132  0.8820  0.8820  0.5886
  0.5886  0.7126  0.3649

 Free energy of the ion-electron system (eV)
  ---------------------------------------------------
  alpha Z        PSCENC =        14.39951365
  Ewald energy   TEWEN  =      6735.07817695
  -Hartree energ DENC   =     -7946.66544665
  -exchange      EXHF   =         0.00000000
  -V(xc)+E(xc)   XCENC  =      -232.28245282
  PAW double counting   =      2691.61498305    -2398.06131341
  entropy T*S    EENTRO =        -0.00681309
  eigenvalues    EBANDS =      -228.17880835
  atomic energy  EATOM  =      1328.12079387
  Solvation  Ediel_sol  =         0.00000000
  ---------------------------------------------------
  free energy    TOTEN  =       -35.98136680 eV

  energy without entropy =      -35.97455371  energy(sigma->0) =      -35.97796026


--------------------------------------------------------------------------------------------------------




--------------------------------------- Iteration      1(  19)  ---------------------------------------


    POTLOK:  cpu time    0.0424: real time    0.0424
    SETDIJ:  cpu time    0.0027: real time    0.0027
     EDDAV:  cpu time    2.5146: real time    2.5150
       DOS:  cpu time    0.0019: real time    0.0019
    CHARGE:  cpu time    0.1263: real time    0.1263
    MIXING:  cpu time    0.0013: real time    0.0013
    --------------------------------------------
      LOOP:  cpu time    2.6892: real time    2.6896

 eigenvalue-minimisations  :  4152
 total energy-change (2. order) :-0.3010167E-04  (-0.5620835E-06)
 number of electron      35.9999998 magnetization 
 augmentation part       -2.3861760 magnetization 

 DIPCOR: dipole corrections for dipol
 direction  3 min pos     1,
 dipolmoment           0.000000      0.000000      0.000001 electrons x Angstroem
 Tr[quadrupol]      -142.526230

 energy correction for charged system         0.000000 eV
 dipol+quadrupol energy correction           -0.000000 eV
 added-field ion interaction         -0.000000 eV  (added to PSCEN)


 Broyden mixing:
  rms(total) = 0.14461E-02    rms(broyden)= 0.14461E-02
  rms(prec ) = 0.14812E-02
  weight for this iteration     100.00

 eigenvalues of (default mixing * dielectric matrix)
  average eigenvalue GAMMA=   1.6202
  5.8286  3.0811  2.4260  1.7489  1.7489  1.4021  1.4021  0.5885  0.5885  0.9383
  0.9383  0.8836  0.7423  0.3649

 Free energy of the ion-electron system (eV)
  ---------------------------------------------------
  alpha Z        PSCENC =        14.39951365
  Ewald energy   TEWEN  =      6735.07817695
  -Hartree energ DENC   =     -7946.79815159
  -exchange      EXHF   =         0.00000000
  -V(xc)+E(xc)   XCENC  =      -232.28184173
  PAW double counting   =      2690.04746824    -2396.49376357
  entropy T*S    EENTRO =        -0.00681378
  eigenvalues    EBANDS =      -228.04677895
  atomic energy  EATOM  =      1328.12079387
  Solvation  Ediel_sol  =         0.00000000
  ---------------------------------------------------
  free energy    TOTEN  =       -35.98139691 eV

  energy without entropy =      -35.97458313  energy(sigma->0) =      -35.97799002


[...]
      2     -12.6357      2.00000
      3     -12.4790      2.00000
      4     -12.0761      2.00000
      5      -7.2068      2.00000
      6      -6.7239      2.00000
      7      -6.4551      2.00000
      8      -5.9936      2.00000
      9      -5.1988      2.00000
     10      -5.0611      2.00000
     11      -4.7024      2.00000
     12      -4.4670      2.00000
     13      -3.8468      2.00000
     14      -3.6826      2.00000
     15      -3.5024      2.00000
     16      -3.2891      2.00000
     17      -2.9478      2.00000
     18      -2.6655      2.00000
     19      -0.8709      0.00000
     20      -0.5723      0.00000
     21      -0.1526      0.00000
     22       0.0420      0.00000
     23       0.4157      0.00000
     24       0.7268      0.00000

 k-point    58 :      -0.2222    0.4000    0.0000
  band No.  band energies     occupation 
      1     -12.9264      2.00000
      2     -12.6664      2.00000
      3     -12.3922      2.00000
      4     -12.0487      2.00000
      5      -7.0815      2.00000
      6      -6.5198      2.00000
      7      -6.4165      2.00000
      8      -5.9326      2.00000
      9      -5.3716      2.00000
     10      -4.9844      2.00000
     11      -4.8512      2.00000
     12      -4.6067      2.00000
     13      -4.0119      2.00000
     14      -3.7629      2.00000
     15      -3.4622      2.00000
     16      -3.2116      2.00000
     17      -3.1666      2.00000
     18      -2.6991      2.00000
     19      -0.8779      0.00000
     20      -0.5570      0.00000
     21      -0.2010      0.00000
     22      -0.0468      0.00000
     23       0.3918      0.00000
     24       0.4620      0.00000

 k-point    59 :      -0.1111    0.4000    0.0000
  band No.  band energies     occupation 
      1     -12.9799      2.00000
      2     -12.6937      2.00000
      3     -12.3263      2.00000
      4     -12.0323      2.00000
      5      -6.8658      2.00000
      6      -6.4664      2.00000
      7      -6.3540      2.00000
      8      -5.8573      2.00000
      9      -5.4424      2.00000
     10      -5.0805      2.00000
     11      -4.9079      2.00000
     12      -4.7282      2.00000
     13      -4.1507      2.00000
     14      -3.8624      2.00000
     15      -3.4590      2.00000
     16      -3.3964      2.00000
     17      -3.0766      2.00000
     18      -2.6743      2.00000
     19      -0.8786      0.00000
     20      -0.5960      0.00000
     21      -0.2644      0.00000
     22      -0.0883      0.00000
     23       0.1904      0.00000
     24       0.4234      0.00000

 k-point    60 :       0.0000    0.4667    0.0000
  band No.  band energies     occupation 
      1     -12.6401      2.00000
      2     -12.5504      2.00000
      3     -12.2745      2.00000
      4     -12.1586      2.00000
      5      -6.7177      2.00000
      6      -6.6167      2.00000
      7      -6.4193      2.00000
      8      -6.2722      2.00000
      9      -5.4459      2.00000
     10      -5.4419      2.00000
     11      -4.5708      2.00000
     12      -4.4420      2.00000
     13      -4.2365      2.00000
     14      -4.1394      2.00000
     15      -3.4389      2.00000
     16      -3.3377      2.00000
     17      -3.1669      2.00000
     18      -3.0094      2.00000
     19      -0.6286      0.00000
     20      -0.5693      0.00000
     21      -0.2601      0.00000
     22      -0.2590      0.00000
     23       0.1293      0.00000
     24       0.3182      0.00000

 k-point    61 :       0.1111    0.4667    0.0000
  band No.  band energies     occupation 
      1     -12.6378      2.00000
      2     -12.5464      2.00000
      3     -12.2802      2.00000
      4     -12.1484      2.00000
      5      -6.9033      2.00000
      6      -6.6816      2.00000
      7      -6.4428      2.00000
      8      -6.2471      2.00000
      9      -5.4091      2.00000
     10      -5.2848      2.00000
     11      -4.5865      2.00000
     12      -4.4173      2.00000
     13      -4.1943      2.00000
     14      -4.1061      2.00000
     15      -3.3840      2.00000
     16      -3.3059      2.00000
     17      -3.2076      2.00000
     18      -2.9758      2.00000
     19      -0.6414      0.00000
     20      -0.5459      0.00000
     21      -0.2163      0.00000
     22      -0.2023      0.00000
     23       0.1576      0.00000
     24       0.3163      0.00000

 k-point    62 :       0.2222    0.4667    0.0000
  band No.  band energies     occupation 
      1     -12.6294      2.00000
      2     -12.5413      2.00000
      3     -12.2858      2.00000
      4     -12.1286      2.00000
      5      -7.1595      2.00000
      6      -6.9340      2.00000
      7      -6.4534      2.00000
      8      -6.2638      2.00000
      9      -5.2302      2.00000
     10      -5.0945      2.00000
     11      -4.6082      2.00000
     12      -4.4088      2.00000
     13      -4.0245      2.00000
     14      -3.9611      2.00000
     15      -3.4364      2.00000
     16      -3.3316      2.00000
     17      -3.0730      2.00000
     18      -2.8643      2.00000
     19      -0.6580      0.00000
     20      -0.5388      0.00000
     21      -0.0932      0.00000
     22      -0.0738      0.00000
     23       0.2623      0.00000
     24       0.3281      0.00000

 k-point    63 :       0.3333    0.4667    0.0000
  band No.  band energies     occupation 
      1     -12.6137      2.00000
      2     -12.5466      2.00000
      3     -12.2798      2.00000
      4     -12.1131      2.00000
      5      -7.3545      2.00000
      6      -7.1733      2.00000
      7      -6.4785      2.00000
      8      -6.3063      2.00000
      9      -5.0919      2.00000
     10      -5.0313      2.00000
     11      -4.4959      2.00000
     12      -4.3489      2.00000
     13      -3.8622      2.00000
     14      -3.8378      2.00000
     15      -3.5066      2.00000
     16      -3.4293      2.00000
     17      -2.8249      2.00000
     18      -2.7084      2.00000
     19      -0.6760      0.00000
     20      -0.5625      0.00000
     21      -0.0232      0.00000
     22       0.0974      0.00000
     23       0.3403      0.00000
     24       0.4830      0.00000

 k-point    64 :       0.4444    0.4667    0.0000
  band No.  band energies     occupation 
      1     -12.5937      2.00000
      2     -12.5627      2.00000
      3     -12.2696      2.00000
      4     -12.1063      2.00000
      5      -7.4511      2.00000
      6      -7.3167      2.00000
      7      -6.4963      2.00000
      8      -6.3355      2.00000
      9      -5.0754      2.00000
     10      -5.0221      2.00000
     11      -4.2940      2.00000
     12      -4.2174      2.00000
     13      -3.9713      2.00000
     14      -3.8257      2.00000
     15      -3.4638      2.00000
     16      -3.4478      2.00000
     17      -2.6498      2.00000
     18      -2.5923      2.00000
     19      -0.6908      0.00000
     20      -0.5866      0.00000
     21       0.0004      0.00000
     22       0.2024      0.00000
     23       0.3874      0.00000
     24       0.6444      0.00000

 k-point    65 :      -0.4444    0.4667    0.0000
  band No.  band energies     occupation 
      1     -12.5937      2.00000
      2     -12.5627      2.00000
      3     -12.2696      2.00000
      4     -12.1063      2.00000
      5      -7.4511      2.00000
      6      -7.3167      2.00000
      7      -6.4963      2.00000
      8      -6.3355      2.00000
      9      -5.0754      2.00000
     10      -5.0221      2.00000
     11      -4.2940      2.00000
     12      -4.2174      2.00000
     13      -3.9713      2.00000
     14      -3.8257      2.00000
     15      -3.4638      2.00000
     16      -3.4478      2.00000
     17      -2.6498      2.00000
     18      -2.5923      2.00000
     19      -0.6908      0.00000
     20      -0.5866      0.00000
     21       0.0004      0.00000
     22       0.2024      0.00000
     23       0.3874      0.00000
     24       0.6444      0.00000

 k-point    66 :      -0.3333    0.4667    0.0000
  band No.  band energies     occupation 
      1     -12.6137      2.00000
      2     -12.5466      2.00000
      3     -12.2798      2.00000
      4     -12.1131      2.00000
      5      -7.3545      2.00000
      6      -7.1733      2.00000
      7      -6.4785      2.00000
      8      -6.3063      2.00000
      9      -5.0919      2.00000
     10      -5.0313      2.00000
     11      -4.4959      2.00000
     12      -4.3489      2.00000
     13      -3.8622      2.00000
     14      -3.8378      2.00000
     15      -3.5066      2.00000
     16      -3.4293      2.00000
     17      -2.8249      2.00000
     18      -2.7084      2.00000
     19      -0.6760      0.00000
     20      -0.5625      0.00000
     21      -0.0232      0.00000
     22       0.0974      0.00000
     23       0.3403      0.00000
     24       0.4830      0.00000

 k-point    67 :      -0.2222    0.4667    0.0000
  band No.  band energies     occupation 
      1     -12.6294      2.00000
      2     -12.5413      2.00000
      3     -12.2858      2.00000
      4     -12.1286      2.00000
      5      -7.1595      2.00000
      6      -6.9340      2.00000
      7      -6.4534      2.00000
      8      -6.2638      2.00000
      9      -5.2302      2.00000
     10      -5.0945      2.00000
     11      -4.6082      2.00000
     12      -4.4088      2.00000
     13      -4.0245      2.00000
     14      -3.9611      2.00000
     15      -3.4364      2.00000
     16      -3.3316      2.00000
     17      -3.0730      2.00000
     18      -2.8643      2.00000
     19      -0.6580      0.00000
     20      -0.5388      0.00000
     21      -0.0932      0.00000
     22      -0.0738      0.00000
     23       0.2623      0.00000
     24       0.3281      0.00000

 k-point    68 :      -0.1111    0.4667    0.0000
  band No.  band energies     occupation 
      1     -12.6378      2.00000
      2     -12.5464      2.00000
      3     -12.2802      2.00000
      4     -12.1484      2.00000
      5      -6.9033      2.00000
      6      -6.6816      2.00000
      7      -6.4428      2.00000
      8      -6.2471      2.00000
      9      -5.4091      2.00000
     10      -5.2848      2.00000
     11      -4.5865      2.00000
     12      -4.4173      2.00000
     13      -4.1943      2.00000
     14      -4.1061      2.00000
     15      -3.3840      2.00000
     16      -3.3059      2.00000
     17      -3.2076      2.00000
     18      -2.9758      2.00000
     19      -0.6414      0.00000
     20      -0.5459      0.00000
     21      -0.2163      0.00000
     22      -0.2023      0.00000
     23       0.1576      0.00000
     24       0.3163      0.00000


--------------------------------------------------------------------------------------------------------


 soft charge-density along one line, spin component           1
         0         1         2         3         4         5         6         7         8         9
 total charge-density along one line
 
 pseudopotential strength for first ion, spin component:           1
 54.811  59.632   0.000  -0.065   0.004   0.000  -0.094   0.006
 59.632  64.879   0.000  -0.071   0.005   0.000  -0.103   0.007
  0.000   0.000  13.392   0.000  -0.000  19.311   0.000  -0.000
 -0.065  -0.071   0.000  13.382  -0.001   0.000  19.295  -0.001
  0.004   0.005  -0.000  -0.001  13.388  -0.000  -0.001  19.304
  0.000   0.000  19.311   0.000  -0.000  27.854   0.000  -0.000
 -0.094  -0.103   0.000  19.295  -0.001   0.000  27.832  -0.001
  0.006   0.007  -0.000  -0.001  19.304  -0.000  -0.001  27.844
 -0.000  -0.000  -0.000   0.000   0.000  -0.000   0.000   0.000
  0.000   0.000  -0.015   0.000   0.000  -0.022   0.000   0.000
 -0.007  -0.008  -0.000  -0.019  -0.000  -0.000  -0.028  -0.001
 -0.001  -0.001   0.000   0.000  -0.014   0.000   0.001  -0.021
 -0.004  -0.004  -0.000   0.000   0.001  -0.000   0.000   0.002
 total augmentation occupancy for first ion, spin component:           1
  7.501  -5.497   0.000   3.591  -0.077   0.000  -0.946  -0.009   0.000   0.000   0.001  -0.016   0.071
 -5.497   5.409  -0.000  -3.212   0.047  -0.000   0.931   0.019  -0.000  -0.000   0.008   0.015  -0.066
  0.000  -0.000   3.353  -0.000  -0.000  -0.940  -0.000   0.000   0.041  -0.185   0.000  -0.000  -0.000
  3.591  -3.212  -0.000   3.944   0.080   0.000  -1.092  -0.032  -0.000  -0.000  -0.151  -0.011   0.017
 -0.077   0.047  -0.000   0.080   3.010   0.000  -0.033  -0.733  -0.000   0.000  -0.012  -0.168  -0.038
  0.000  -0.000  -0.940   0.000   0.000   0.314  -0.000  -0.000  -0.003   0.045  -0.000   0.000   0.000
 -0.946   0.931  -0.000  -1.092  -0.033  -0.000   0.337   0.014   0.000   0.000   0.056   0.004  -0.001
 -0.009   0.019   0.000  -0.032  -0.733  -0.000   0.014   0.228   0.000  -0.000   0.003   0.039   0.001
  0.000  -0.000   0.041  -0.000  -0.000  -0.003   0.000   0.000   0.017   0.001   0.000  -0.000   0.000
  0.000  -0.000  -0.185  -0.000   0.000   0.045   0.000  -0.000   0.001   0.019   0.000  -0.000  -0.000
  0.001   0.008   0.000  -0.151  -0.012  -0.000   0.056   0.003   0.000   0.000   0.023   0.000   0.003
 -0.016   0.015  -0.000  -0.011  -0.168   0.000   0.004   0.039  -0.000  -0.000   0.000   0.014  -0.000
  0.071  -0.066  -0.000   0.017  -0.038   0.000  -0.001   0.001   0.000  -0.000   0.003  -0.000   0.019


------------------------ aborting loop because EDIFF is reached ----------------------------------------


    CHARGE:  cpu time    0.1283: real time    0.1283
    FORLOC:  cpu time    0.0022: real time    0.0022
    FORNL :  cpu time    0.2865: real time    0.2865
    STRESS:  cpu time    0.7482: real time    0.7483
    FORCOR:  cpu time    0.0427: real time    0.0427
    FORHAR:  cpu time    0.0113: real time    0.0113
    MIXING:  cpu time    0.0007: real time    0.0007
    OFIELD:  cpu time    0.0000: real time    0.0000

  FORCE on cell =-STRESS in cart. coord.  units (eV):
  Direction    XX          YY          ZZ          XY          YZ          ZX
  --------------------------------------------------------------------------------------
  Alpha Z    14.39951    14.39951    14.39951
  Ewald    7722.26241  7765.75200 -8752.71241     0.00000     0.00000     4.11776
  Hartree  7884.80433  7910.33140 -7847.92527     0.00000     0.00000     4.40493
  E(xc)    -150.77751  -149.35000  -152.33870    -0.00000    -0.00000    -0.46102
  Local  -16150.91812-16206.18695 16050.75837     0.00000     0.00000   -12.28374
  n-local   401.78973   393.58737   410.26646    -0.00000    -0.00000    -1.59659
  augment   -86.39635   -84.14018   -88.10169     0.00000     0.00000     0.42993
  Kinetic   364.85594   355.62344   365.64263    -0.00000    -0.00000     5.38530
  Fock        0.00000     0.00000     0.00000     0.00000     0.00000     0.00000
  -------------------------------------------------------------------------------------
  Total       0.01994     0.01660    -0.01109    -0.00000     0.00000    -0.00342
  in kB       0.05193     0.04321    -0.02887    -0.00000     0.00000    -0.00891
  external pressure =        0.02 kB  Pullay stress =        0.00 kB


 VOLUME and BASIS-vectors are now :
 -----------------------------------------------------------------------------
  energy-cutoff  :      600.00
  volume of cell :      615.32
      direct lattice vectors                 reciprocal lattice vectors
     6.372892651  0.000000000  0.000000000     0.156914616  0.000000000  0.000000000
     0.000000000  3.448330687  0.000000000     0.000000000  0.289995389  0.000000000
     0.000000000  0.000000000 28.000000000     0.000000000  0.000000000  0.035714286

  length of vectors
     6.372892651  3.448330687 28.000000000     0.156914616  0.289995389  0.035714286


 FORCES acting on ions
    electron-ion (+dipol)            ewald-force                    non-local-force                 convergence-correction
 -----------------------------------------------------------------------------------------------
   -.464E+01 -.152E-06 -.513E+03   0.396E+01 -.169E-06 0.517E+03   0.682E+00 0.654E-06 -.407E+01   0.420E-03 -.192E-06 -.114E-02
   0.464E+01 0.337E-06 0.513E+03   -.396E+01 -.189E-06 -.517E+03   -.682E+00 -.523E-06 0.407E+01   0.472E-03 0.190E-06 0.836E-03
   0.613E+01 -.369E-06 -.382E+03   -.624E+01 -.591E-07 0.388E+03   0.114E+00 0.640E-07 -.655E+01   -.544E-03 0.883E-07 -.419E-03
   -.613E+01 0.899E-06 0.382E+03   0.624E+01 -.425E-07 -.388E+03   -.114E+00 -.418E-06 0.655E+01   -.653E-03 -.111E-06 0.800E-03
   0.339E+02 0.405E-06 0.184E+02   -.335E+02 0.245E-06 -.183E+02   -.424E+00 -.429E-07 -.708E-01   0.477E-03 -.319E-06 -.351E-03
   -.339E+02 -.821E-06 -.184E+02   0.335E+02 0.214E-06 0.183E+02   0.424E+00 0.183E-06 0.708E-01   0.274E-03 0.239E-06 0.519E-03
 -----------------------------------------------------------------------------------------------
   -.521E-03 0.299E-06 -.229E-03   0.142E-13 0.386E-14 -.711E-13   0.106E-03 -.828E-07 -.250E-04   0.446E-03 -.105E-06 0.248E-03
 
 
 POSITION                                       TOTAL-FORCE (eV/Angst)
 -----------------------------------------------------------------------------------
      1.65168      0.00000     16.06530        -0.000923      0.000000      0.000173
      0.65863      1.72417     11.93470         0.000897     -0.000000     -0.000143
      4.78434      1.72417     15.47962         0.000453     -0.000000      0.000575
      3.89887     -0.00000     12.52038        -0.000392      0.000000     -0.000585
     -0.00060     -0.00000     13.90659         0.000473      0.000000      0.000281
      2.31092      1.72417     14.09342        -0.000508     -0.000000     -0.000301
 -----------------------------------------------------------------------------------
    total drift:                                0.000031      0.000000     -0.000007


--------------------------------------------------------------------------------------------------------



  FREE ENERGIE OF THE ION-ELECTRON SYSTEM (eV)
  ---------------------------------------------------
  free  energy   TOTEN  =       -35.98158115 eV

  energy  without entropy=      -35.97475938  energy(sigma->0) =      -35.97817027
 
 d Force = 0.1884970E-06[ 0.489E-07, 0.328E-06]  d Energy = 0.4414028E-06-0.253E-06
 d Force =-0.8392362E-01[-0.839E-01,-0.839E-01]  d Ewald  =-0.8392362E-01 0.909E-10


--------------------------------------------------------------------------------------------------------


    POTLOK:  cpu time    0.0458: real time    0.0458


--------------------------------------------------------------------------------------------------------




--------------------------------------------------------------------------------------------------------


  
 reached required accuracy - stopping structural energy minimisation
 writing wavefunctions
     LOOP+:  cpu time    7.9334: real time    8.1882
    4ORBIT:  cpu time    0.0000: real time    0.0000

 total amount of memory used by VASP MPI-rank0    70305. kBytes
=======================================================================

   base      :      30000. kBytes
   nonl-proj :      25505. kBytes
   fftplans  :       2371. kBytes
   grid      :       3824. kBytes
   one-center:         15. kBytes
   wavefun   :       8590. kBytes
 
  
  
 General timing and accounting informations for this job:
 ========================================================
  
                  Total CPU time used (sec):      121.749
                            User time (sec):      117.817
                          System time (sec):        3.932
                         Elapsed time (sec):      123.708
  
                   Maximum memory used (kb):       83008.
                   Average memory used (kb):           0.
  
                          Minor page faults:        19070
                          Major page faults:           17
                 Voluntary context switches:          659
