 running on  192 total cores
 distrk:  each k-point on  192 cores,    1 groups
 distr:  one band on   24 cores,    8 groups
 using from now: INCAR     
 vasp.5.4.4.18Apr17-6-g9f103f2a35 (build Oct 01 2024 10:11:53) complex          
  
 POSCAR found type information on POSCAR  Mo S  Te
 POSCAR found :  3 types and       6 ions
 scaLAPACK will be used
 LDA part: xc-table for Pade appr. of Perdew
 WARNING: stress and forces are not correct
 POSCAR, INCAR and KPOINTS ok, starting setup
 FFT: planning ...
 WAVECAR not read
 charge-density read from file: unknown                                 
 WARNING: random wavefunctions but no delay for mixing, default for NELMDL
 entering main loop
       N       E                     dE             d eps       ncg     rms          rms(c)
DAV:   1     0.261426430051E+03    0.26143E+03   -0.12949E+04  3840   0.124E+03
DAV:   2    -0.518607083660E+01   -0.26661E+03   -0.25799E+03  5944   0.206E+02
DAV:   3    -0.382799932746E+02   -0.33094E+02   -0.32727E+02  5048   0.824E+01
DAV:   4    -0.393961988164E+02   -0.11162E+01   -0.11101E+01  5824   0.177E+01
DAV:   5    -0.394239852420E+02   -0.27786E-01   -0.27762E-01  5696   0.264E+00
DAV:   6    -0.394244999895E+02   -0.51475E-03   -0.51451E-03  5888   0.323E-01
DAV:   7    -0.394245136964E+02   -0.13707E-04   -0.13705E-04  5768   0.529E-02
DAV:   8    -0.394245140497E+02   -0.35325E-06   -0.35320E-06  5936   0.729E-03
DAV:   9    -0.394245140584E+02   -0.87002E-08   -0.87323E-08  3880   0.124E-03
   1 F= -.39424514E+02 E0= -.39424514E+02  d E =0.000000E+00
