 vasp.5.4.4.18Apr17-6-g9f103f2a35 (build Oct 01 2024 10:11:53) complex          
  
 executed on              Shaheen date 2025.02.19  15:19:55
 running on  192 total cores
 distrk:  each k-point on  192 cores,    1 groups
 distr:  one band on NCORES_PER_BAND=  24 cores,    8 groups


--------------------------------------------------------------------------------------------------------


 INCAR:
 POTCAR:    PAW_PBE Mo 08Apr2002                  
 POTCAR:    PAW_PBE S 06Sep2000                   
 POTCAR:    PAW_PBE Te 08Apr2002                  
 POTCAR:    PAW_PBE Mo 08Apr2002                  
   VRHFIN =Mo: 4p5s4d                                                           
   LEXCH  = PE                                                                  
   EATOM  =   217.5176 eV,   15.9871 Ry                                         
                                                                                
   TITEL  = PAW_PBE Mo 08Apr2002                                                
   LULTRA =        F    use ultrasoft PP ?                                      
   IUNSCR =        1    unscreen: 0-lin 1-nonlin 2-no                           
   RPACOR =    2.200    partial core radius                                     
   POMASS =   95.940; ZVAL   =    6.000    mass and valenz                      
   RCORE  =    2.750    outmost cutoff radius                                   
   RWIGS  =    2.750; RWIGS  =    1.455    wigner-seitz radius (au A)           
   ENMAX  =  224.584; ENMIN  =  168.438 eV                                      
   RCLOC  =    2.111    cutoff for local pot                                    
   LCOR   =        T    correct aug charges                                     
   LPAW   =        T    paw PP                                                  
   EAUG   =  345.278                                                            
   DEXC   =    0.000                                                            
   RMAX   =    2.821    core radius for proj-oper                               
   RAUG   =    1.300    factor for augmentation sphere                          
   RDEP   =    2.815    radius for radial grids                                 
   RDEPT  =    2.211    core radius for aug-charge                              
                                                                                
   Atomic configuration                                                         
   12 entries                                                                   
     n  l   j            E        occ.                                          
     1  0  0.50    -19819.0341   2.0000                                         
     2  0  0.50     -2799.0127   2.0000                                         
     2  1  1.50     -2502.0276   6.0000                                         
     3  0  0.50      -476.4448   2.0000                                         
     3  1  1.50      -379.1496   6.0000                                         
     3  2  2.50      -220.9367  10.0000                                         
     4  0  0.50       -64.3378   2.0000                                         
     4  1  1.50       -38.4773   6.0000                                         
     4  2  2.50        -3.7535   5.0000                                         
     5  0  0.50        -4.0862   1.0000                                         
     5  1  0.50        -2.7701   0.0000                                         
     4  3  2.50        -1.3606   0.0000                                         
   Description                                                                  
     l       E           TYP  RCUT    TYP  RCUT                                 
     2     -3.7534765     23  2.500                                             
     2     -5.1140591     23  2.500                                             
     0     -4.0861560     23  2.600                                             
     0     13.6058260     23  2.600                                             
     1      5.4423304     23  2.750                                             
     1     27.2116520     23  2.750                                             
  local pseudopotential read in
  partial core-charges read in
  partial kinetic energy density read in
  atomic valenz-charges read in
  non local Contribution for L=           2  read in
    real space projection operators read in
  non local Contribution for L=           2  read in
    real space projection operators read in
  non local Contribution for L=           0  read in
    real space projection operators read in
  non local Contribution for L=           0  read in
    real space projection operators read in
  non local Contribution for L=           1  read in
    real space projection operators read in
  non local Contribution for L=           1  read in
    real space projection operators read in
    PAW grid and wavefunctions read in
 
   number of l-projection  operators is LMAX  =           6
   number of lm-projection operators is LMMAX =          18
 
 POTCAR:    PAW_PBE S 06Sep2000                   
   VRHFIN =S : s2p4                                                             
   LEXCH  = PE                                                                  
   EATOM  =   276.8230 eV,   20.3459 Ry                                         
                                                                                
   TITEL  = PAW_PBE S 06Sep2000                                                 
   LULTRA =        F    use ultrasoft PP ?                                      
   IUNSCR =        1    unscreen: 0-lin 1-nonlin 2-no                           
   RPACOR =    1.500    partial core radius                                     
   POMASS =   32.066; ZVAL   =    6.000    mass and valenz                      
   RCORE  =    1.900    outmost cutoff radius                                   
   RWIGS  =    2.200; RWIGS  =    1.164    wigner-seitz radius (au A)           
   ENMAX  =  258.689; ENMIN  =  194.016 eV                                      
   ICORE  =        2    local potential                                         
   LCOR   =        T    correct aug charges                                     
   LPAW   =        T    paw PP                                                  
   EAUG   =  335.092                                                            
   DEXC   =    0.000                                                            
   RMAX   =    1.942    core radius for proj-oper                               
   RAUG   =    1.300    factor for augmentation sphere                          
   RDEP   =    1.954    radius for radial grids                                 
   RDEPT  =    1.744    core radius for aug-charge                              
                                                                                
   Atomic configuration                                                         
    6 entries                                                                   
     n  l   j            E        occ.                                          
     1  0  0.50     -2405.8406   2.0000                                         
     2  0  0.50      -211.7007   2.0000                                         
     2  1  1.50      -156.4958   6.0000                                         
     3  0  0.50       -17.2562   2.0000                                         
     3  1  0.50        -7.0085   4.0000                                         
     3  2  1.50        -6.8029   0.0000                                         
   Description                                                                  
     l       E           TYP  RCUT    TYP  RCUT                                 
     0    -17.2561641     23  1.900                                             
     0    -15.8743224     23  1.900                                             
     1     -7.0085400     23  1.900                                             
     1     -2.7779785     23  1.900                                             
     2     -6.8029130     23  1.900                                             
  local pseudopotential read in
  partial core-charges read in
  partial kinetic energy density read in
  atomic valenz-charges read in
  non local Contribution for L=           0  read in
    real space projection operators read in
  non local Contribution for L=           0  read in
    real space projection operators read in
  non local Contribution for L=           1  read in
    real space projection operators read in
  non local Contribution for L=           1  read in
    real space projection operators read in
    PAW grid and wavefunctions read in
 
   number of l-projection  operators is LMAX  =           4
   number of lm-projection operators is LMMAX =           8
 
 POTCAR:    PAW_PBE Te 08Apr2002                  
   VRHFIN =Te: s2p4                                                             
   LEXCH  = PE                                                                  
   EATOM  =   223.2721 eV,   16.4100 Ry                                         
                                                                                
   TITEL  = PAW_PBE Te 08Apr2002                                                
   LULTRA =        F    use ultrasoft PP ?                                      
   IUNSCR =        1    unscreen: 0-lin 1-nonlin 2-no                           
   RPACOR =    2.200    partial core radius                                     
   POMASS =  127.600; ZVAL   =    6.000    mass and valenz                      
   RCORE  =    2.300    outmost cutoff radius                                   
   RWIGS  =    2.900; RWIGS  =    1.535    wigner-seitz radius (au A)           
   ENMAX  =  174.982; ENMIN  =  131.236 eV                                      
   ICORE  =        3    local potential                                         
   LCOR   =        T    correct aug charges                                     
   LPAW   =        T    paw PP                                                  
   EAUG   =  368.792                                                            
   DEXC   =    0.000                                                            
   RMAX   =    2.345    core radius for proj-oper                               
   RAUG   =    1.300    factor for augmentation sphere                          
   RDEP   =    2.397    radius for radial grids                                 
   RDEPT  =    2.174    core radius for aug-charge                              
                                                                                
   Atomic configuration                                                         
   13 entries                                                                   
     n  l   j            E        occ.                                          
     1  0  0.50    -31621.2075   2.0000                                         
     2  0  0.50     -4848.7941   2.0000                                         
     2  1  1.50     -4352.1960   6.0000                                         
     3  0  0.50      -964.9612   2.0000                                         
     3  1  1.50      -803.6179   6.0000                                         
     3  2  2.50      -559.8710  10.0000                                         
     4  0  0.50      -164.3522   2.0000                                         
     4  1  1.50      -114.3756   6.0000                                         
     4  2  2.50       -41.6483  10.0000                                         
     5  0  0.50       -15.1072   2.0000                                         
     5  1  0.50        -5.9526   4.0000                                         
     5  2  1.50        -5.4423   0.0000                                         
     4  3  2.50        -5.4423   0.0000                                         
   Description                                                                  
     l       E           TYP  RCUT    TYP  RCUT                                 
     0    -15.1072389     23  2.300                                             
     0    -16.4678215     23  2.300                                             
     1     -5.9526306     23  2.300                                             
     1     -2.4873968     23  2.300                                             
     2     -5.4423304     23  2.300                                             
     3     -1.3605826     23  2.300                                             
  local pseudopotential read in
  partial core-charges read in
  partial kinetic energy density read in
  atomic valenz-charges read in
  non local Contribution for L=           0  read in
    real space projection operators read in
  non local Contribution for L=           0  read in
    real space projection operators read in
  non local Contribution for L=           1  read in
    real space projection operators read in
  non local Contribution for L=           1  read in
    real space projection operators read in
  non local Contribution for L=           2  read in
    real space projection operators read in
    PAW grid and wavefunctions read in
 
   number of l-projection  operators is LMAX  =           5
   number of lm-projection operators is LMMAX =          13
 
  PAW_PBE Mo 08Apr2002                  :
 energy of atom  1       EATOM= -217.5176
 kinetic energy error for atom=    0.0005 (will be added to EATOM!!)
  PAW_PBE S 06Sep2000                   :
 energy of atom  2       EATOM= -276.8230
 kinetic energy error for atom=    0.0009 (will be added to EATOM!!)
  PAW_PBE Te 08Apr2002                  :
 energy of atom  3       EATOM= -223.2721
 kinetic energy error for atom=    0.0004 (will be added to EATOM!!)
 
 
 POSCAR: Generated by VASPKIT code               
  positions in direct lattice
  velocities in cartesian coordinates
 exchange correlation table for  LEXCH =        8
   RHO(1)=    0.500       N(1)  =     2000
   RHO(2)=  100.500       N(2)  =     4000
 


--------------------------------------------------------------------------------------------------------


 ion  position               nearest neighbor table
   1  0.500  0.167  0.507-   4 2.44   4 2.44   3 2.44   6 2.72   6 2.72   5 2.72   2 3.37   2 3.37
                             2 3.37   2 3.37
   2  1.000  0.667  0.507-   3 2.44   3 2.44   4 2.44   5 2.72   5 2.72   6 2.72   1 3.37   1 3.37
                             1 3.37   1 3.37
   3  0.500  0.833  0.580-   2 2.44   2 2.44   1 2.44
   4  1.000  0.333  0.580-   1 2.44   1 2.44   2 2.44
   5  0.500  0.833  0.413-   2 2.72   2 2.72   1 2.72   6 3.37   6 3.37   6 3.37   6 3.37
   6  1.000  0.333  0.413-   1 2.72   1 2.72   2 2.72   5 3.37   5 3.37   5 3.37   5 3.37
 

IMPORTANT INFORMATION: All symmetrisations will be switched off!
NOSYMM: (Re-)initialisation of all symmetry stuff for point group C_1.

 
 
 KPOINTS: K-Spacing Value to Generate K-Mesh: 0.01

Automatic generation of k-mesh.
Space group operators:
 irot       det(A)        alpha          n_x          n_y          n_z        tau_x        tau_y        tau_z
    1     1.000000     0.000000     1.000000     0.000000     0.000000     0.000000     0.000000     0.000000
 
 Subroutine IBZKPT returns following result:
 ===========================================
 
 Found     10 irreducible k-points:
 
 Following reciprocal coordinates:
            Coordinates               Weight
  0.000000  0.000000  0.000000      1.000000
  0.052632  0.000000  0.000000      2.000000
  0.105263  0.000000  0.000000      2.000000
  0.157895  0.000000  0.000000      2.000000
  0.210526  0.000000  0.000000      2.000000
  0.263158  0.000000  0.000000      2.000000
  0.315789  0.000000  0.000000      2.000000
  0.368421  0.000000  0.000000      2.000000
  0.421053  0.000000  0.000000      2.000000
  0.473684  0.000000  0.000000      2.000000
 
 Following cartesian coordinates:
            Coordinates               Weight
  0.000000  0.000000  0.000000      1.000000
  0.015647  0.000000  0.000000      2.000000
  0.031295  0.000000  0.000000      2.000000
  0.046942  0.000000  0.000000      2.000000
  0.062590  0.000000  0.000000      2.000000
  0.078237  0.000000  0.000000      2.000000
  0.093884  0.000000  0.000000      2.000000
  0.109532  0.000000  0.000000      2.000000
  0.125179  0.000000  0.000000      2.000000
  0.140827  0.000000  0.000000      2.000000
 


--------------------------------------------------------------------------------------------------------




 Dimension of arrays:
   k-points           NKPTS =     80   k-points in BZ     NKDIM =     80   number of bands    NBANDS=     24
   number of dos      NEDOS =    301   number of ions     NIONS =      6
   non local maximal  LDIM  =      6   non local SUM 2l+1 LMDIM =     18
   total plane-waves  NPLWV = 217728
   max r-space proj   IRMAX =      1   max aug-charges    IRDMAX=  35348
   dimension x,y,z NGX =    28 NGY =   48 NGZ =  162
   dimension x,y,z NGXF=    56 NGYF=   96 NGZF=  324
   support grid    NGXF=    56 NGYF=   96 NGZF=  324
   ions per type =               2   2   2
   NGX,Y,Z   is equivalent  to a cutoff of  13.84, 13.67, 13.30 a.u.
   NGXF,Y,Z  is equivalent  to a cutoff of  27.68, 27.34, 26.60 a.u.

 SYSTEM =  unknown system                          
 POSCAR =  Generated by VASPKIT code               

 Startparameter for this run:
   NWRITE =      2    write-flag & timer
   PREC   = accura    normal or accurate (medium, high low for compatibility)
   ISTART =      0    job   : 0-new  1-cont  2-samecut
   ICHARG =     11    charge: 1-file 2-atom 10-const
   ISPIN  =      1    spin polarized calculation?
   LNONCOLLINEAR =      F non collinear calculations
   LSORBIT =      F    spin-orbit coupling
   INIWAV =      1    electr: 0-lowe 1-rand  2-diag
   LASPH  =      F    aspherical Exc in radial PAW
   METAGGA=      F    non-selfconsistent MetaGGA calc.

 Electronic Relaxation 1
   ENCUT  =  600.0 eV  44.10 Ry    6.64 a.u.   6.72 11.66 40.45*2*pi/ulx,y,z
   ENINI  =  600.0     initial cutoff
   ENAUG  =  368.8 eV  augmentation charge cutoff
   NELM   =     60;   NELMIN=  2; NELMDL=  0     # of ELM steps 
   EDIFF  = 0.1E-06   stopping-criterion for ELM
   LREAL  =      F    real-space projection
   NLSPLINE    = F    spline interpolate recip. space projectors
   LCOMPAT=      F    compatible to vasp.4.4
   GGA_COMPAT  = T    GGA compatible to vasp.4.4-vasp.4.6
   LMAXPAW     = -100 max onsite density
   LMAXMIX     =    2 max onsite mixed and CHGCAR
   VOSKOWN=      0    Vosko Wilk Nusair interpolation
   ROPT   =    0.00000   0.00000   0.00000
 Ionic relaxation
   EDIFFG = -.1E-02   stopping-criterion for IOM
   NSW    =      0    number of steps for IOM
   NBLOCK =      1;   KBLOCK =      1    inner block; outer block 
   IBRION =     -1    ionic relax: 0-MD 1-quasi-New 2-CG
   NFREE  =      0    steps in history (QN), initial steepest desc. (CG)
   ISIF   =      2    stress and relaxation
   IWAVPR =     10    prediction:  0-non 1-charg 2-wave 3-comb
   ISYM   =      0    0-nonsym 1-usesym 2-fastsym
   LCORR  =      T    Harris-Foulkes like correction to forces

   POTIM  = 0.5000    time-step for ionic-motion
   TEIN   =    0.0    initial temperature
   TEBEG  =    0.0;   TEEND  =   0.0 temperature during run
   SMASS  =  -3.00    Nose mass-parameter (am)
   estimated Nose-frequenzy (Omega)   =  0.10E-29 period in steps =****** mass=  -0.259E-27a.u.
   SCALEE = 1.0000    scale energy and forces
   NPACO  =    256;   APACO  = 16.0  distance and # of slots for P.C.
   PSTRESS=    0.0 pullay stress

  Mass of Ions in am
   POMASS =  95.94 32.07127.60
  Ionic Valenz
   ZVAL   =   6.00  6.00  6.00
  Atomic Wigner-Seitz radii
   RWIGS  =  -1.00 -1.00 -1.00
  virtual crystal weights 
   VCA    =   1.00  1.00  1.00
   NELECT =      36.0000    total number of electrons
   NUPDOWN=      -1.0000    fix difference up-down

 DOS related values:
   EMIN   =  10.00;   EMAX   =-10.00  energy-range for DOS
   EFERMI =   0.00
   ISMEAR =     0;   SIGMA  =   0.00  broadening in eV -4-tet -1-fermi 0-gaus

 Electronic relaxation 2 (details)
   IALGO  =     38    algorithm
   LDIAG  =      T    sub-space diagonalisation (order eigenvalues)
   LSUBROT=      F    optimize rotation matrix (better conditioning)
   TURBO    =      0    0=normal 1=particle mesh
   IRESTART =      0    0=no restart 2=restart with 2 vectors
   NREBOOT  =      0    no. of reboots
   NMIN     =      0    reboot dimension
   EREF     =   0.00    reference energy to select bands
   IMIX   =      4    mixing-type and parameters
     AMIX     =   0.40;   BMIX     =  1.00
     AMIX_MAG =   1.60;   BMIX_MAG =  1.00
     AMIN     =   0.10
     WC   =   100.;   INIMIX=   1;  MIXPRE=   1;  MAXMIX= -45

 Intra band minimization:
   WEIMIN = 0.0000     energy-eigenvalue tresh-hold
   EBREAK =  0.10E-08  absolut break condition
   DEPER  =   0.30     relativ break condition  

   TIME   =   0.40     timestep for ELM

  volume/ion in A,a.u.               =      66.28       447.26
  Fermi-wavevector in a.u.,A,eV,Ry     =   0.735083  1.389106  7.351872  0.540347
  Thomas-Fermi vector in A             =   1.828193
 
 Write flags
   LWAVE        =      F    write WAVECAR
   LDOWNSAMPLE  =      F    k-point downsampling of WAVECAR
   LCHARG       =      T    write CHGCAR
   LVTOT        =      F    write LOCPOT, total local potential
   LVHAR        =      F    write LOCPOT, Hartree potential only
   LELF         =      F    write electronic localiz. function (ELF)
   LORBIT       =      0    0 simple, 1 ext, 2 COOP (PROOUT), +10 PAW based schemes


 Dipole corrections
   LMONO  =      F    monopole corrections only (constant potential shift)
   LDIPOL =      T    correct potential (dipole corrections)
   IDIPOL =      3    1-x, 2-y, 3-z, 4-all directions 
   EPSILON=  1.0000000 bulk dielectric constant

 Exchange correlation treatment:
   GGA     =    PE    GGA type
   LEXCH   =     8    internal setting for exchange type
   VOSKOWN=      0    Vosko Wilk Nusair interpolation
   LHFCALC =     F    Hartree Fock is set to
   LHFONE  =     F    Hartree Fock one center treatment
   AEXX    =    0.0000 exact exchange contribution

 Parameters for Berry phase evaluation:
   LBERRY =      T    evaluation of Berry phase?
   IGPAR  =      2    parallel direction
   NPPSTR =      8    k-mesh size in direction IGPAR
 Linear response parameters
   LEPSILON=     F    determine dielectric tensor
   LRPA    =     F    only Hartree local field effects (RPA)
   LNABLA  =     F    use nabla operator in PAW spheres
   LVEL    =     F    velocity operator in full k-point grid
   LINTERFAST=   F  fast interpolation
   KINTER  =     0    interpolate to denser k-point grid
   CSHIFT  =0.1000    complex shift for real part using Kramers Kronig
   OMEGAMAX=  -1.0    maximum frequency
   DEG_THRESHOLD= 0.2000000E-02 threshold for treating states as degnerate
   RTIME   =   -0.100 relaxation time in fs
  (WPLASMAI=    0.000 imaginary part of plasma frequency in eV, 0.658/RTIME)
   DFIELD  = 0.0000000 0.0000000 0.0000000 field for delta impulse in time
 
 Orbital magnetization related:
   ORBITALMAG=     F  switch on orbital magnetization
   LCHIMAG   =     F  perturbation theory with respect to B field
   DQ        =  0.001000  dq finite difference perturbation B field
   LLRAUG    =     F  two centre corrections for induced B field



--------------------------------------------------------------------------------------------------------


 Static calculation
 charge density and potential remain constant during run
 non-spin polarized calculation
 Variant of blocked Davidson
 Davidson routine will perform the subspace rotation
 perform sub-space diagonalisation
    after iterative eigenvector-optimisation
 no mixing
 using additional bands            6
 reciprocal scheme for non local part
 use partial core corrections
 calculate Harris-corrections to forces 
   (improved forces if not selfconsistent)
 use gradient corrections 
 WARNING: stress and forces are not correct
  (second derivative of E(xc) not defined)
 use of overlap-Matrix (Vanderbilt PP)
 Gauss-broadening in eV      SIGMA  =   0.00


--------------------------------------------------------------------------------------------------------


  energy-cutoff  :      600.00
  volume of cell :      397.67
      direct lattice vectors                 reciprocal lattice vectors
     3.363599539  0.000000000  0.000000000     0.297300552  0.000000000  0.000000000
     0.000000000  5.837577679  0.000000000     0.000000000  0.171303930  0.000000000
     0.000000000  0.000000000 20.252588272     0.000000000  0.000000000  0.049376405

  length of vectors
     3.363599539  5.837577679 20.252588272     0.297300552  0.171303930  0.049376405


 
 k-points in units of 2pi/SCALE and weight: K-Spacing Value to Generate K-Mesh: 0.01
   0.00000000  0.00000000  0.00000000       0.007
   0.00000000  0.02141299  0.00000000       0.007
   0.00000000  0.04282598  0.00000000       0.007
   0.00000000  0.06423897  0.00000000       0.007
   0.00000000  0.08565197  0.00000000       0.007
   0.00000000  0.10706496  0.00000000       0.007
   0.00000000  0.12847795  0.00000000       0.007
   0.00000000  0.14989094  0.00000000       0.007
   0.01564740  0.00000000  0.00000000       0.013
   0.01564740  0.02141299  0.00000000       0.013
   0.01564740  0.04282598  0.00000000       0.013
   0.01564740  0.06423897  0.00000000       0.013
   0.01564740  0.08565197  0.00000000       0.013
   0.01564740  0.10706496  0.00000000       0.013
   0.01564740  0.12847795  0.00000000       0.013
   0.01564740  0.14989094  0.00000000       0.013
   0.03129479  0.00000000  0.00000000       0.013
   0.03129479  0.02141299  0.00000000       0.013
   0.03129479  0.04282598  0.00000000       0.013
   0.03129479  0.06423897  0.00000000       0.013
   0.03129479  0.08565197  0.00000000       0.013
   0.03129479  0.10706496  0.00000000       0.013
   0.03129479  0.12847795  0.00000000       0.013
   0.03129479  0.14989094  0.00000000       0.013
   0.04694219  0.00000000  0.00000000       0.013
   0.04694219  0.02141299  0.00000000       0.013
   0.04694219  0.04282598  0.00000000       0.013
   0.04694219  0.06423897  0.00000000       0.013
   0.04694219  0.08565197  0.00000000       0.013
   0.04694219  0.10706496  0.00000000       0.013
   0.04694219  0.12847795  0.00000000       0.013
   0.04694219  0.14989094  0.00000000       0.013
   0.06258959  0.00000000  0.00000000       0.013
   0.06258959  0.02141299  0.00000000       0.013
   0.06258959  0.04282598  0.00000000       0.013
   0.06258959  0.06423897  0.00000000       0.013
   0.06258959  0.08565197  0.00000000       0.013
   0.06258959  0.10706496  0.00000000       0.013
   0.06258959  0.12847795  0.00000000       0.013
   0.06258959  0.14989094  0.00000000       0.013
   0.07823699  0.00000000  0.00000000       0.013
   0.07823699  0.02141299  0.00000000       0.013
   0.07823699  0.04282598  0.00000000       0.013
   0.07823699  0.06423897  0.00000000       0.013
   0.07823699  0.08565197  0.00000000       0.013
   0.07823699  0.10706496  0.00000000       0.013
   0.07823699  0.12847795  0.00000000       0.013
   0.07823699  0.14989094  0.00000000       0.013
   0.09388438  0.00000000  0.00000000       0.013
   0.09388438  0.02141299  0.00000000       0.013
   0.09388438  0.04282598  0.00000000       0.013
   0.09388438  0.06423897  0.00000000       0.013
   0.09388438  0.08565197  0.00000000       0.013
   0.09388438  0.10706496  0.00000000       0.013
   0.09388438  0.12847795  0.00000000       0.013
   0.09388438  0.14989094  0.00000000       0.013
   0.10953178  0.00000000  0.00000000       0.013
   0.10953178  0.02141299  0.00000000       0.013
   0.10953178  0.04282598  0.00000000       0.013
   0.10953178  0.06423897  0.00000000       0.013
   0.10953178  0.08565197  0.00000000       0.013
   0.10953178  0.10706496  0.00000000       0.013
   0.10953178  0.12847795  0.00000000       0.013
   0.10953178  0.14989094  0.00000000       0.013
   0.12517918  0.00000000  0.00000000       0.013
   0.12517918  0.02141299  0.00000000       0.013
   0.12517918  0.04282598  0.00000000       0.013
   0.12517918  0.06423897  0.00000000       0.013
   0.12517918  0.08565197  0.00000000       0.013
   0.12517918  0.10706496  0.00000000       0.013
   0.12517918  0.12847795  0.00000000       0.013
   0.12517918  0.14989094  0.00000000       0.013
   0.14082658  0.00000000  0.00000000       0.013
   0.14082658  0.02141299  0.00000000       0.013
   0.14082658  0.04282598  0.00000000       0.013
   0.14082658  0.06423897  0.00000000       0.013
   0.14082658  0.08565197  0.00000000       0.013
   0.14082658  0.10706496  0.00000000       0.013
   0.14082658  0.12847795  0.00000000       0.013
   0.14082658  0.14989094  0.00000000       0.013
 
 k-points in reciprocal lattice and weights: K-Spacing Value to Generate K-Mesh: 0.01
   0.00000000  0.00000000  0.00000000       0.007
   0.00000000  0.12500000  0.00000000       0.007
   0.00000000  0.25000000  0.00000000       0.007
   0.00000000  0.37500000  0.00000000       0.007
   0.00000000  0.50000000  0.00000000       0.007
   0.00000000  0.62500000  0.00000000       0.007
   0.00000000  0.75000000  0.00000000       0.007
   0.00000000  0.87500000  0.00000000       0.007
   0.05263158  0.00000000  0.00000000       0.013
   0.05263158  0.12500000  0.00000000       0.013
   0.05263158  0.25000000  0.00000000       0.013
   0.05263158  0.37500000  0.00000000       0.013
   0.05263158  0.50000000  0.00000000       0.013
   0.05263158  0.62500000  0.00000000       0.013
   0.05263158  0.75000000  0.00000000       0.013
   0.05263158  0.87500000  0.00000000       0.013
   0.10526316  0.00000000  0.00000000       0.013
   0.10526316  0.12500000  0.00000000       0.013
   0.10526316  0.25000000  0.00000000       0.013
   0.10526316  0.37500000  0.00000000       0.013
   0.10526316  0.50000000  0.00000000       0.013
   0.10526316  0.62500000  0.00000000       0.013
   0.10526316  0.75000000  0.00000000       0.013
   0.10526316  0.87500000  0.00000000       0.013
   0.15789474  0.00000000  0.00000000       0.013
   0.15789474  0.12500000  0.00000000       0.013
   0.15789474  0.25000000  0.00000000       0.013
   0.15789474  0.37500000  0.00000000       0.013
   0.15789474  0.50000000  0.00000000       0.013
   0.15789474  0.62500000  0.00000000       0.013
   0.15789474  0.75000000  0.00000000       0.013
   0.15789474  0.87500000  0.00000000       0.013
   0.21052632  0.00000000  0.00000000       0.013
   0.21052632  0.12500000  0.00000000       0.013
   0.21052632  0.25000000  0.00000000       0.013
   0.21052632  0.37500000  0.00000000       0.013
   0.21052632  0.50000000  0.00000000       0.013
   0.21052632  0.62500000  0.00000000       0.013
   0.21052632  0.75000000  0.00000000       0.013
   0.21052632  0.87500000  0.00000000       0.013
   0.26315789  0.00000000  0.00000000       0.013
   0.26315789  0.12500000  0.00000000       0.013
   0.26315789  0.25000000  0.00000000       0.013
   0.26315789  0.37500000  0.00000000       0.013
   0.26315789  0.50000000  0.00000000       0.013
   0.26315789  0.62500000  0.00000000       0.013
   0.26315789  0.75000000  0.00000000       0.013
   0.26315789  0.87500000  0.00000000       0.013
   0.31578947  0.00000000  0.00000000       0.013
   0.31578947  0.12500000  0.00000000       0.013
   0.31578947  0.25000000  0.00000000       0.013
   0.31578947  0.37500000  0.00000000       0.013
   0.31578947  0.50000000  0.00000000       0.013
   0.31578947  0.62500000  0.00000000       0.013
   0.31578947  0.75000000  0.00000000       0.013
   0.31578947  0.87500000  0.00000000       0.013
   0.36842105  0.00000000  0.00000000       0.013
   0.36842105  0.12500000  0.00000000       0.013
   0.36842105  0.25000000  0.00000000       0.013
   0.36842105  0.37500000  0.00000000       0.013
   0.36842105  0.50000000  0.00000000       0.013
   0.36842105  0.62500000  0.00000000       0.013
   0.36842105  0.75000000  0.00000000       0.013
   0.36842105  0.87500000  0.00000000       0.013
   0.42105263  0.00000000  0.00000000       0.013
   0.42105263  0.12500000  0.00000000       0.013
   0.42105263  0.25000000  0.00000000       0.013
   0.42105263  0.37500000  0.00000000       0.013
   0.42105263  0.50000000  0.00000000       0.013
   0.42105263  0.62500000  0.00000000       0.013
   0.42105263  0.75000000  0.00000000       0.013
   0.42105263  0.87500000  0.00000000       0.013
   0.47368421  0.00000000  0.00000000       0.013
   0.47368421  0.12500000  0.00000000       0.013
   0.47368421  0.25000000  0.00000000       0.013
   0.47368421  0.37500000  0.00000000       0.013
   0.47368421  0.50000000  0.00000000       0.013
   0.47368421  0.62500000  0.00000000       0.013
   0.47368421  0.75000000  0.00000000       0.013
   0.47368421  0.87500000  0.00000000       0.013
 
 position of ions in fractional coordinates (direct lattice) 
   0.49999999  0.16657780  0.50703765
   0.99999999  0.66657819  0.50703754
   0.49999999  0.83338391  0.57971141
   0.99999999  0.33338279  0.57971120
   0.49999999  0.83337178  0.41325102
   0.99999999  0.33337157  0.41325107
 
 position of ions in cartesian coordinates  (Angst):
   1.68179974  0.97241083 10.26882469
   3.36359950  3.89120197 10.26882258
   1.68179972  4.86494332 11.74065641
   3.36359950  1.94614791 11.74065222
   1.68179974  4.86487250  8.36940272
   3.36359951  1.94608241  8.36940380
 


--------------------------------------------------------------------------------------------------------


 k-point  1 :   0.0000 0.0000 0.0000  plane waves:   13287
 k-point  2 :   0.0000 0.1250 0.0000  plane waves:   13307
 k-point  3 :   0.0000 0.2500 0.0000  plane waves:   13281
 k-point  4 :   0.0000 0.3750 0.0000  plane waves:   13258
 k-point  5 :   0.0000 0.5000 0.0000  plane waves:   13272
 k-point  6 :   0.0000 0.6250 0.0000  plane waves:   13258
 k-point  7 :   0.0000 0.7500 0.0000  plane waves:   13281
 k-point  8 :   0.0000 0.8750 0.0000  plane waves:   13307
 k-point  9 :   0.0526 0.0000 0.0000  plane waves:   13297
 k-point 10 :   0.0526 0.1250 0.0000  plane waves:   13314
 k-point 11 :   0.0526 0.2500 0.0000  plane waves:   13287
 k-point 12 :   0.0526 0.3750 0.0000  plane waves:   13276
 k-point 13 :   0.0526 0.5000 0.0000  plane waves:   13252
 k-point 14 :   0.0526 0.6250 0.0000  plane waves:   13276
 k-point 15 :   0.0526 0.7500 0.0000  plane waves:   13287
 k-point 16 :   0.0526 0.8750 0.0000  plane waves:   13314
 k-point 17 :   0.1053 0.0000 0.0000  plane waves:   13301
 k-point 18 :   0.1053 0.1250 0.0000  plane waves:   13295
 k-point 19 :   0.1053 0.2500 0.0000  plane waves:   13278
 k-point 20 :   0.1053 0.3750 0.0000  plane waves:   13274
 k-point 21 :   0.1053 0.5000 0.0000  plane waves:   13252
 k-point 22 :   0.1053 0.6250 0.0000  plane waves:   13274
 k-point 23 :   0.1053 0.7500 0.0000  plane waves:   13278
 k-point 24 :   0.1053 0.8750 0.0000  plane waves:   13295
 k-point 25 :   0.1579 0.0000 0.0000  plane waves:   13307
 k-point 26 :   0.1579 0.1250 0.0000  plane waves:   13277
 k-point 27 :   0.1579 0.2500 0.0000  plane waves:   13266
 k-point 28 :   0.1579 0.3750 0.0000  plane waves:   13265
 k-point 29 :   0.1579 0.5000 0.0000  plane waves:   13242
 k-point 30 :   0.1579 0.6250 0.0000  plane waves:   13265
 k-point 31 :   0.1579 0.7500 0.0000  plane waves:   13266
 k-point 32 :   0.1579 0.8750 0.0000  plane waves:   13277
 k-point 33 :   0.2105 0.0000 0.0000  plane waves:   13283
 k-point 34 :   0.2105 0.1250 0.0000  plane waves:   13280
 k-point 35 :   0.2105 0.2500 0.0000  plane waves:   13265
 k-point 36 :   0.2105 0.3750 0.0000  plane waves:   13252
 k-point 37 :   0.2105 0.5000 0.0000  plane waves:   13260
 k-point 38 :   0.2105 0.6250 0.0000  plane waves:   13252
 k-point 39 :   0.2105 0.7500 0.0000  plane waves:   13265
 k-point 40 :   0.2105 0.8750 0.0000  plane waves:   13280
 k-point 41 :   0.2632 0.0000 0.0000  plane waves:   13261
 k-point 42 :   0.2632 0.1250 0.0000  plane waves:   13274
 k-point 43 :   0.2632 0.2500 0.0000  plane waves:   13251
 k-point 44 :   0.2632 0.3750 0.0000  plane waves:   13248
 k-point 45 :   0.2632 0.5000 0.0000  plane waves:   13272
 k-point 46 :   0.2632 0.6250 0.0000  plane waves:   13248
 k-point 47 :   0.2632 0.7500 0.0000  plane waves:   13251
 k-point 48 :   0.2632 0.8750 0.0000  plane waves:   13274
 k-point 49 :   0.3158 0.0000 0.0000  plane waves:   13270
 k-point 50 :   0.3158 0.1250 0.0000  plane waves:   13261
 k-point 51 :   0.3158 0.2500 0.0000  plane waves:   13247
 k-point 52 :   0.3158 0.3750 0.0000  plane waves:   13262
 k-point 53 :   0.3158 0.5000 0.0000  plane waves:   13258
 k-point 54 :   0.3158 0.6250 0.0000  plane waves:   13262
 k-point 55 :   0.3158 0.7500 0.0000  plane waves:   13247
 k-point 56 :   0.3158 0.8750 0.0000  plane waves:   13261
 k-point 57 :   0.3684 0.0000 0.0000  plane waves:   13264
 k-point 58 :   0.3684 0.1250 0.0000  plane waves:   13267
 k-point 59 :   0.3684 0.2500 0.0000  plane waves:   13264
 k-point 60 :   0.3684 0.3750 0.0000  plane waves:   13275
 k-point 61 :   0.3684 0.5000 0.0000  plane waves:   13260
 k-point 62 :   0.3684 0.6250 0.0000  plane waves:   13275
 k-point 63 :   0.3684 0.7500 0.0000  plane waves:   13264
 k-point 64 :   0.3684 0.8750 0.0000  plane waves:   13267
 k-point 65 :   0.4211 0.0000 0.0000  plane waves:   13272
 k-point 66 :   0.4211 0.1250 0.0000  plane waves:   13255
 k-point 67 :   0.4211 0.2500 0.0000  plane waves:   13294
 k-point 68 :   0.4211 0.3750 0.0000  plane waves:   13275
 k-point 69 :   0.4211 0.5000 0.0000  plane waves:   13284
 k-point 70 :   0.4211 0.6250 0.0000  plane waves:   13275
 k-point 71 :   0.4211 0.7500 0.0000  plane waves:   13294
 k-point 72 :   0.4211 0.8750 0.0000  plane waves:   13255
 k-point 73 :   0.4737 0.0000 0.0000  plane waves:   13242
 k-point 74 :   0.4737 0.1250 0.0000  plane waves:   13259
 k-point 75 :   0.4737 0.2500 0.0000  plane waves:   13275
 k-point 76 :   0.4737 0.3750 0.0000  plane waves:   13289
 k-point 77 :   0.4737 0.5000 0.0000  plane waves:   13324
 k-point 78 :   0.4737 0.6250 0.0000  plane waves:   13289
 k-point 79 :   0.4737 0.7500 0.0000  plane waves:   13275
 k-point 80 :   0.4737 0.8750 0.0000  plane waves:   13259

 maximum and minimum number of plane-waves per node :       577      527

 maximum number of plane-waves:     13324
 maximum index in each direction: 
   IXMAX=    6   IYMAX=   11   IZMAX=   40
   IXMIN=   -7   IYMIN=  -12   IZMIN=  -40


 parallel 3D FFT for wavefunctions:
    minimum data exchange during FFTs selected (reduces bandwidth)
 parallel 3D FFT for charge:
    minimum data exchange during FFTs selected (reduces bandwidth)


 total amount of memory used by VASP MPI-rank0    55685. kBytes
=======================================================================

   base      :      30000. kBytes
   nonl-proj :      19407. kBytes
   fftplans  :       1398. kBytes
   grid      :       2623. kBytes
   one-center:         15. kBytes
   wavefun   :       2242. kBytes
 
     INWAV:  cpu time    0.0000: real time    0.0000
 initial charge density was supplied:
 number of electron      36.0000000 magnetization 
 keeping initial charge density in first step


--------------------------------------------------------------------------------------------------------


 Maximum index for augmentation-charges         1249 (set IRDMAX)


--------------------------------------------------------------------------------------------------------


 First call to EWALD:  gamma=   0.241
 Maximum number of real-space cells 5x 3x 1
 Maximum number of reciprocal cells 2x 2x 7

    FEWALD:  cpu time    0.0015: real time    0.0015


--------------------------------------- Iteration      1(   1)  ---------------------------------------


    POTLOK:  cpu time    0.0198: real time    0.0729
    SETDIJ:  cpu time    0.0052: real time    0.0052
     EDDAV:  cpu time    0.9096: real time    0.9104
       DOS:  cpu time    0.0009: real time    0.0009
    --------------------------------------------
      LOOP:  cpu time    0.9356: real time    0.9895

 eigenvalue-minimisations  :  3840
 total energy-change (2. order) : 0.2614264E+03  (-0.1294865E+04)
 number of electron      36.0000000 magnetization 
 augmentation part       36.0000000 magnetization 

 DIPCOR: dipole corrections for dipol
 direction  3 min pos     1,
 dipolmoment           0.000000      0.000000      0.159160 electrons x Angstroem
 Tr[quadrupol]      -126.227958

 energy correction for charged system         0.000000 eV
 dipol+quadrupol energy correction           -0.005763 eV
 added-field ion interaction          0.000001 eV  (added to PSCEN)


 Free energy of the ion-electron system (eV)
  ---------------------------------------------------
  alpha Z        PSCENC =        26.04640947
  Ewald energy   TEWEN  =      4171.54514307
  -Hartree energ DENC   =     -5515.40978711
  -exchange      EXHF   =         0.00000000
  -V(xc)+E(xc)   XCENC  =      -151.29133290
  PAW double counting   =      2974.50364673    -2751.75161504
  entropy T*S    EENTRO =        -0.00000074
  eigenvalues    EBANDS =        72.56222351
  atomic energy  EATOM  =      1435.22174307
  Solvation  Ediel_sol  =         0.00000000
  ---------------------------------------------------
  free energy    TOTEN  =       261.42643005 eV

  energy without entropy =      261.42643079  energy(sigma->0) =      261.42643042


--------------------------------------------------------------------------------------------------------




--------------------------------------- Iteration      1(   2)  ---------------------------------------


     EDDAV:  cpu time    1.0752: real time    1.0754
       DOS:  cpu time    0.0006: real time    0.0006
    --------------------------------------------
      LOOP:  cpu time    1.0758: real time    1.0760

 eigenvalue-minimisations  :  5944
 total energy-change (2. order) :-0.2666125E+03  (-0.2579850E+03)
 number of electron      36.0000000 magnetization 
 augmentation part       36.0000000 magnetization 

 DIPCOR: dipole corrections for dipol
 direction  3 min pos     1,
 dipolmoment           0.000000      0.000000      0.159160 electrons x Angstroem
 Tr[quadrupol]      -126.227958

 energy correction for charged system         0.000000 eV
 dipol+quadrupol energy correction           -0.005763 eV
 added-field ion interaction          0.000001 eV  (added to PSCEN)


 Free energy of the ion-electron system (eV)
  ---------------------------------------------------
  alpha Z        PSCENC =        26.04640947
  Ewald energy   TEWEN  =      4171.54514307
  -Hartree energ DENC   =     -5515.40978711
  -exchange      EXHF   =         0.00000000
  -V(xc)+E(xc)   XCENC  =      -151.29133290
  PAW double counting   =      2974.50364673    -2751.75161504
  entropy T*S    EENTRO =         0.00000000
  eigenvalues    EBANDS =      -194.05027812
  atomic energy  EATOM  =      1435.22174307
  Solvation  Ediel_sol  =         0.00000000
  ---------------------------------------------------
  free energy    TOTEN  =        -5.18607084 eV

  energy without entropy =       -5.18607084  energy(sigma->0) =       -5.18607084


--------------------------------------------------------------------------------------------------------




--------------------------------------- Iteration      1(   3)  ---------------------------------------


     EDDAV:  cpu time    0.9775: real time    0.9777
       DOS:  cpu time    0.0006: real time    0.0006
    --------------------------------------------
      LOOP:  cpu time    0.9781: real time    0.9783

 eigenvalue-minimisations  :  5048
 total energy-change (2. order) :-0.3309392E+02  (-0.3272664E+02)
 number of electron      36.0000000 magnetization 
 augmentation part       36.0000000 magnetization 

 DIPCOR: dipole corrections for dipol
 direction  3 min pos     1,
 dipolmoment           0.000000      0.000000      0.159160 electrons x Angstroem
 Tr[quadrupol]      -126.227958

 energy correction for charged system         0.000000 eV
 dipol+quadrupol energy correction           -0.005763 eV
 added-field ion interaction          0.000001 eV  (added to PSCEN)


 Free energy of the ion-electron system (eV)
  ---------------------------------------------------
  alpha Z        PSCENC =        26.04640947
  Ewald energy   TEWEN  =      4171.54514307
  -Hartree energ DENC   =     -5515.40978711
  -exchange      EXHF   =         0.00000000
  -V(xc)+E(xc)   XCENC  =      -151.29133290
  PAW double counting   =      2974.50364673    -2751.75161504
  entropy T*S    EENTRO =         0.00000000
  eigenvalues    EBANDS =      -227.14420056
  atomic energy  EATOM  =      1435.22174307
  Solvation  Ediel_sol  =         0.00000000
  ---------------------------------------------------
  free energy    TOTEN  =       -38.27999327 eV

  energy without entropy =      -38.27999327  energy(sigma->0) =      -38.27999327


--------------------------------------------------------------------------------------------------------




--------------------------------------- Iteration      1(   4)  ---------------------------------------


     EDDAV:  cpu time    1.0566: real time    1.0568
       DOS:  cpu time    0.0006: real time    0.0006
    --------------------------------------------
      LOOP:  cpu time    1.0572: real time    1.0574

 eigenvalue-minimisations  :  5824
 total energy-change (2. order) :-0.1116206E+01  (-0.1110084E+01)
 number of electron      36.0000000 magnetization 
 augmentation part       36.0000000 magnetization 

 DIPCOR: dipole corrections for dipol
 direction  3 min pos     1,
 dipolmoment           0.000000      0.000000      0.159160 electrons x Angstroem
 Tr[quadrupol]      -126.227958

 energy correction for charged system         0.000000 eV
 dipol+quadrupol energy correction           -0.005763 eV
 added-field ion interaction          0.000001 eV  (added to PSCEN)


 Free energy of the ion-electron system (eV)
  ---------------------------------------------------
  alpha Z        PSCENC =        26.04640947
  Ewald energy   TEWEN  =      4171.54514307
  -Hartree energ DENC   =     -5515.40978711
  -exchange      EXHF   =         0.00000000
  -V(xc)+E(xc)   XCENC  =      -151.29133290
  PAW double counting   =      2974.50364673    -2751.75161504
  entropy T*S    EENTRO =         0.00000000
  eigenvalues    EBANDS =      -228.26040610
  atomic energy  EATOM  =      1435.22174307
  Solvation  Ediel_sol  =         0.00000000
  ---------------------------------------------------
  free energy    TOTEN  =       -39.39619882 eV

  energy without entropy =      -39.39619882  energy(sigma->0) =      -39.39619882


--------------------------------------------------------------------------------------------------------




--------------------------------------- Iteration      1(   5)  ---------------------------------------


     EDDAV:  cpu time    1.0385: real time    1.0387
       DOS:  cpu time    0.0006: real time    0.0006
    --------------------------------------------
      LOOP:  cpu time    1.0391: real time    1.0393

 eigenvalue-minimisations  :  5696
 total energy-change (2. order) :-0.2778643E-01  (-0.2776199E-01)
 number of electron      36.0000000 magnetization 
 augmentation part       36.0000000 magnetization 

 DIPCOR: dipole corrections for dipol
 direction  3 min pos     1,
 dipolmoment           0.000000      0.000000      0.159160 electrons x Angstroem
 Tr[quadrupol]      -126.227958

 energy correction for charged system         0.000000 eV
 dipol+quadrupol energy correction           -0.005763 eV
 added-field ion interaction          0.000001 eV  (added to PSCEN)


 Free energy of the ion-electron system (eV)
  ---------------------------------------------------
  alpha Z        PSCENC =        26.04640947
  Ewald energy   TEWEN  =      4171.54514307
  -Hartree energ DENC   =     -5515.40978711
  -exchange      EXHF   =         0.00000000
  -V(xc)+E(xc)   XCENC  =      -151.29133290
  PAW double counting   =      2974.50364673    -2751.75161504
  entropy T*S    EENTRO =         0.00000000
  eigenvalues    EBANDS =      -228.28819253
  atomic energy  EATOM  =      1435.22174307
  Solvation  Ediel_sol  =         0.00000000
  ---------------------------------------------------
  free energy    TOTEN  =       -39.42398524 eV

  energy without entropy =      -39.42398524  energy(sigma->0) =      -39.42398524


--------------------------------------------------------------------------------------------------------




--------------------------------------- Iteration      1(   6)  ---------------------------------------


     EDDAV:  cpu time    1.0688: real time    1.0691
       DOS:  cpu time    0.0006: real time    0.0006
    --------------------------------------------
      LOOP:  cpu time    1.0695: real time    1.0698

 eigenvalue-minimisations  :  5888
 total energy-change (2. order) :-0.5147475E-03  (-0.5145084E-03)
 number of electron      36.0000000 magnetization 
 augmentation part       36.0000000 magnetization 

 DIPCOR: dipole corrections for dipol
 direction  3 min pos     1,
 dipolmoment           0.000000      0.000000      0.159160 electrons x Angstroem
 Tr[quadrupol]      -126.227958

 energy correction for charged system         0.000000 eV
 dipol+quadrupol energy correction           -0.005763 eV
 added-field ion interaction          0.000001 eV  (added to PSCEN)


 Free energy of the ion-electron system (eV)
  ---------------------------------------------------
  alpha Z        PSCENC =        26.04640947
  Ewald energy   TEWEN  =      4171.54514307
  -Hartree energ DENC   =     -5515.40978711
  -exchange      EXHF   =         0.00000000
  -V(xc)+E(xc)   XCENC  =      -151.29133290
  PAW double counting   =      2974.50364673    -2751.75161504
  entropy T*S    EENTRO =         0.00000000
  eigenvalues    EBANDS =      -228.28870727
  atomic energy  EATOM  =      1435.22174307
  Solvation  Ediel_sol  =         0.00000000
  ---------------------------------------------------
  free energy    TOTEN  =       -39.42449999 eV

  energy without entropy =      -39.42449999  energy(sigma->0) =      -39.42449999


--------------------------------------------------------------------------------------------------------




--------------------------------------- Iteration      1(   7)  ---------------------------------------


     EDDAV:  cpu time    1.0393: real time    1.0395
       DOS:  cpu time    0.0005: real time    0.0005
    --------------------------------------------
      LOOP:  cpu time    1.0397: real time    1.0399

 eigenvalue-minimisations  :  5768
 total energy-change (2. order) :-0.1370694E-04  (-0.1370543E-04)
 number of electron      36.0000000 magnetization 
 augmentation part       36.0000000 magnetization 

 DIPCOR: dipole corrections for dipol
 direction  3 min pos     1,
 dipolmoment           0.000000      0.000000      0.159160 electrons x Angstroem
 Tr[quadrupol]      -126.227958

 energy correction for charged system         0.000000 eV
 dipol+quadrupol energy correction           -0.005763 eV
 added-field ion interaction          0.000001 eV  (added to PSCEN)


 Free energy of the ion-electron system (eV)
  ---------------------------------------------------
  alpha Z        PSCENC =        26.04640947
  Ewald energy   TEWEN  =      4171.54514307
  -Hartree energ DENC   =     -5515.40978711
  -exchange      EXHF   =         0.00000000
  -V(xc)+E(xc)   XCENC  =      -151.29133290
  PAW double counting   =      2974.50364673    -2751.75161504
  entropy T*S    EENTRO =         0.00000000
  eigenvalues    EBANDS =      -228.28872098
  atomic energy  EATOM  =      1435.22174307
  Solvation  Ediel_sol  =         0.00000000
  ---------------------------------------------------
  free energy    TOTEN  =       -39.42451370 eV

  energy without entropy =      -39.42451370  energy(sigma->0) =      -39.42451370


--------------------------------------------------------------------------------------------------------




--------------------------------------- Iteration      1(   8)  ---------------------------------------


     EDDAV:  cpu time    1.0643: real time    1.0648
       DOS:  cpu time    0.0006: real time    0.0006
    --------------------------------------------
      LOOP:  cpu time    1.0649: real time    1.0654

 eigenvalue-minimisations  :  5936
 total energy-change (2. order) :-0.3532450E-06  (-0.3531992E-06)
 number of electron      36.0000000 magnetization 
 augmentation part       36.0000000 magnetization 

 DIPCOR: dipole corrections for dipol
 direction  3 min pos     1,
 dipolmoment           0.000000      0.000000      0.159160 electrons x Angstroem
 Tr[quadrupol]      -126.227958

 energy correction for charged system         0.000000 eV
 dipol+quadrupol energy correction           -0.005763 eV
 added-field ion interaction          0.000001 eV  (added to PSCEN)


 Free energy of the ion-electron system (eV)
  ---------------------------------------------------
  alpha Z        PSCENC =        26.04640947
  Ewald energy   TEWEN  =      4171.54514307
  -Hartree energ DENC   =     -5515.40978711
  -exchange      EXHF   =         0.00000000
  -V(xc)+E(xc)   XCENC  =      -151.29133290
  PAW double counting   =      2974.50364673    -2751.75161504
  entropy T*S    EENTRO =         0.00000000
  eigenvalues    EBANDS =      -228.28872133
  atomic energy  EATOM  =      1435.22174307
  Solvation  Ediel_sol  =         0.00000000
  ---------------------------------------------------
  free energy    TOTEN  =       -39.42451405 eV

  energy without entropy =      -39.42451405  energy(sigma->0) =      -39.42451405


--------------------------------------------------------------------------------------------------------




--------------------------------------- Iteration      1(   9)  ---------------------------------------


     EDDAV:  cpu time    0.8588: real time    0.8591
       DOS:  cpu time    0.0005: real time    0.0005
    --------------------------------------------
      LOOP:  cpu time    0.8594: real time    0.8596

 eigenvalue-minimisations  :  3880
 total energy-change (2. order) :-0.8700226E-08  (-0.8732284E-08)
 number of electron      36.0000000 magnetization 
 augmentation part       36.0000000 magnetization 

 DIPCOR: dipole corrections for dipol
 direction  3 min pos     1,
 dipolmoment           0.000000      0.000000      0.159160 electrons x Angstroem
 Tr[quadrupol]      -126.227958

 energy correction for charged system         0.000000 eV
 dipol+quadrupol energy correction           -0.005763 eV
 added-field ion interaction          0.000001 eV  (added to PSCEN)


 Free energy of the ion-electron system (eV)
  ---------------------------------------------------
  alpha Z        PSCENC =        26.04640947
  Ewald energy   TEWEN  =      4171.54514307
  -Hartree energ DENC   =     -5515.40978711
  -exchange      EXHF   =         0.00000000
  -V(xc)+E(xc)   XCENC  =      -151.29133290
  PAW double counting   =      2974.50364673    -2751.75161504
  entropy T*S    EENTRO =         0.00000000
  eigenvalues    EBANDS =      -228.28872134
  atomic energy  EATOM  =      1435.22174307
  Solvation  Ediel_sol  =         0.00000000
  ---------------------------------------------------
  free energy    TOTEN  =       -39.42451406 eV

  energy without entropy =      -39.42451406  energy(sigma->0) =      -39.42451406


--------------------------------------------------------------------------------------------------------




 average (electrostatic) potential at core
  the test charge radii are     1.2296  0.9698  1.1897
  (the norm of the test charge is              1.0000)
       1 -45.0160       2 -45.0162       3 -92.8792       4 -92.8792       5 -95.9710
       6 -95.9710
 
 
 
 E-fermi :  -1.4216     XC(G=0):  -3.9328     alpha+bet : -3.9518


 k-point     1 :       0.0000    0.0000    0.0000
  band No.  band energies     occupation 
      1     -15.0697      2.00000
      2     -14.0619      2.00000
      3     -13.7262      2.00000
      4     -12.2563      2.00000
      5      -7.4697      2.00000
      6      -6.8959      2.00000
      7      -6.2704      2.00000
      8      -5.2539      2.00000
      9      -4.5027      2.00000
     10      -4.2071      2.00000
     11      -4.1915      2.00000
     12      -3.9391      2.00000
     13      -3.4915      2.00000
     14      -2.5077      2.00000
     15      -2.4935      2.00000
     16      -2.2342      2.00000
     17      -2.1146      2.00000
     18      -1.4259      2.00000
     19       0.0810      0.00000
     20       0.2470      0.00000
     21       1.0354      0.00000
     22       1.0461      0.00000
     23       1.6314      0.00000
     24       2.0941      0.00000

 k-point     2 :       0.0000    0.1250    0.0000
  band No.  band energies     occupation 
      1     -15.0188      2.00000
      2     -14.0258      2.00000
      3     -13.7734      2.00000
      4     -12.3962      2.00000
      5      -7.2597      2.00000
      6      -6.8365      2.00000
      7      -6.1954      2.00000
      8      -5.2490      2.00000
      9      -4.4700      2.00000
     10      -4.3948      2.00000
     11      -4.1662      2.00000
     12      -3.8569      2.00000
     13      -3.4916      2.00000
     14      -2.5839      2.00000
     15      -2.5439      2.00000
     16      -2.2979      2.00000
     17      -2.1641      2.00000
     18      -1.4429      2.00000
     19       0.1055      0.00000
     20       0.1551      0.00000
     21       0.9517      0.00000
     22       1.0795      0.00000
     23       1.6562      0.00000
     24       1.6855      0.00000

 k-point     3 :       0.0000    0.2500    0.0000
  band No.  band energies     occupation 
      1     -14.8718      2.00000
      2     -13.9169      2.00000
      3     -13.9099      2.00000
      4     -12.7334      2.00000
      5      -6.7640      2.00000
      6      -6.6679      2.00000
      7      -5.9534      2.00000
      8      -5.2580      2.00000
      9      -4.7324      2.00000
     10      -4.3783      2.00000
     11      -4.1094      2.00000
     12      -3.8443      2.00000
     13      -3.4759      2.00000
     14      -2.7926      2.00000
     15      -2.6534      2.00000
     16      -2.3880      2.00000
     17      -2.3037      2.00000
     18      -1.5397      2.00000
     19      -0.0183      0.00000
     20       0.1964      0.00000
     21       0.7591      0.00000
     22       1.0039      0.00000
     23       1.0951      0.00000
     24       1.5853      0.00000

 k-point     4 :       0.0000    0.3750    0.0000
  band No.  band energies     occupation 
      1     -14.6475      2.00000
      2     -14.1212      2.00000
      3     -13.7328      2.00000
      4     -13.1230      2.00000
      5      -6.4270      2.00000
      6      -6.3184      2.00000
      7      -5.5936      2.00000
      8      -5.1691      2.00000
      9      -5.1011      2.00000
     10      -4.2497      2.00000
     11      -4.0778      2.00000
     12      -4.0646      2.00000
     13      -3.4082      2.00000
     14      -3.0615      2.00000
     15      -2.7218      2.00000
     16      -2.4956      2.00000
     17      -2.3374      2.00000
     18      -1.7776      2.00000
     19      -0.1437      0.00000
     20       0.2137      0.00000
     21       0.3776      0.00000
     22       0.9201      0.00000
     23       0.9271      0.00000
     24       1.3651      0.00000

 k-point     5 :       0.0000    0.5000    0.0000
  band No.  band energies     occupation 
      1     -14.3813      2.00000
      2     -14.3813      2.00000
      3     -13.4679      2.00000
      4     -13.4679      2.00000
      5      -6.2230      2.00000
      6      -6.2230      2.00000
      7      -5.4144      2.00000
      8      -5.4144      2.00000
      9      -4.5944      2.00000
     10      -4.5943      2.00000
     11      -4.1295      2.00000
     12      -4.1294      2.00000
     13      -3.2741      2.00000
     14      -3.2740      2.00000
     15      -2.6637      2.00000
     16      -2.6637      2.00000
     17      -2.0982      2.00000
     18      -2.0982      2.00000
     19      -0.1094      0.00000
     20      -0.1094      0.00000
     21       0.6412      0.00000
     22       0.6412      0.00000
     23       1.1054      0.00000
     24       1.1055      0.00000

 k-point     6 :       0.0000    0.6250    0.0000
  band No.  band energies     occupation 
      1     -14.6475      2.00000
      2     -14.1212      2.00000
      3     -13.7328      2.00000
      4     -13.1230      2.00000
      5      -6.4270      2.00000
      6      -6.3184      2.00000
      7      -5.5936      2.00000
      8      -5.1691      2.00000
      9      -5.1011      2.00000
     10      -4.2497      2.00000
     11      -4.0778      2.00000
     12      -4.0646      2.00000
     13      -3.4082      2.00000
     14      -3.0615      2.00000
     15      -2.7218      2.00000
     16      -2.4956      2.00000
     17      -2.3374      2.00000
     18      -1.7776      2.00000
     19      -0.1437      0.00000
     20       0.2137      0.00000
     21       0.3776      0.00000
     22       0.9201      0.00000
     23       0.9272      0.00000
     24       1.3653      0.00000

 k-point     7 :       0.0000    0.7500    0.0000
  band No.  band energies     occupation 
      1     -14.8718      2.00000
      2     -13.9169      2.00000
      3     -13.9099      2.00000
      4     -12.7334      2.00000
      5      -6.7640      2.00000
      6      -6.6679      2.00000
      7      -5.9534      2.00000
      8      -5.2580      2.00000
      9      -4.7324      2.00000
     10      -4.3783      2.00000
     11      -4.1094      2.00000
     12      -3.8443      2.00000
     13      -3.4759      2.00000
     14      -2.7926      2.00000
     15      -2.6534      2.00000
     16      -2.3880      2.00000
     17      -2.3037      2.00000
     18      -1.5397      2.00000
     19      -0.0183      0.00000
     20       0.1964      0.00000
     21       0.7591      0.00000
     22       1.0039      0.00000
     23       1.0951      0.00000
     24       1.5842      0.00000

 k-point     8 :       0.0000    0.8750    0.0000
  band No.  band energies     occupation 
      1     -15.0188      2.00000
      2     -14.0258      2.00000
      3     -13.7734      2.00000
      4     -12.3962      2.00000
      5      -7.2597      2.00000
      6      -6.8365      2.00000
      7      -6.1954      2.00000
      8      -5.2490      2.00000
      9      -4.4700      2.00000
     10      -4.3948      2.00000
     11      -4.1662      2.00000
     12      -3.8569      2.00000
     13      -3.4916      2.00000
     14      -2.5839      2.00000
     15      -2.5439      2.00000
     16      -2.2979      2.00000
     17      -2.1641      2.00000
     18      -1.4429      2.00000
     19       0.1055      0.00000
     20       0.1551      0.00000
     21       0.9517      0.00000
     22       1.0795      0.00000
     23       1.6563      0.00000
     24       1.6856      0.00000

 k-point     9 :       0.0526    0.0000    0.0000
  band No.  band energies     occupation 
      1     -15.0423      2.00000
      2     -14.0425      2.00000
      3     -13.7186      2.00000
      4     -12.2385      2.00000
      5      -7.4352      2.00000
      6      -6.8640      2.00000
      7      -6.2650      2.00000
      8      -5.2513      2.00000
      9      -4.5253      2.00000
     10      -4.3067      2.00000
     11      -4.1931      2.00000
     12      -3.8801      2.00000
     13      -3.4833      2.00000
     14      -2.5690      2.00000
     15      -2.5401      2.00000
     16      -2.5306      2.00000
     17      -1.9538      2.00000
     18      -1.4332      2.00000
     19       0.0537      0.00000
     20       0.3048      0.00000
     21       0.9974      0.00000
     22       1.0551      0.00000
     23       1.6727      0.00000
     24       1.8877      0.00000

 k-point    10 :       0.0526    0.1250    0.0000
  band No.  band energies     occupation 
      1     -14.9919      2.00000
      2     -14.0064      2.00000
      3     -13.7651      2.00000
      4     -12.3772      2.00000
      5      -7.2285      2.00000
      6      -6.8054      2.00000
      7      -6.1893      2.00000
      8      -5.2448      2.00000
      9      -4.5042      2.00000
     10      -4.4633      2.00000
     11      -4.1619      2.00000
     12      -3.8369      2.00000
     13      -3.4712      2.00000
     14      -2.6221      2.00000
     15      -2.6119      2.00000
     16      -2.5699      2.00000
     17      -2.0125      2.00000
     18      -1.4542      2.00000
     19       0.0572      0.00000
     20       0.2198      0.00000
     21       0.9200      0.00000
     22       1.0836      0.00000
     23       1.5382      0.00000
     24       1.6640      0.00000

 k-point    11 :       0.0526    0.2500    0.0000
  band No.  band energies     occupation 
      1     -14.8465      2.00000
      2     -13.8994      2.00000
      3     -13.8973      2.00000
      4     -12.7125      2.00000
      5      -6.7416      2.00000
      6      -6.6389      2.00000
      7      -5.9440      2.00000
      8      -5.2526      2.00000
      9      -4.7732      2.00000
     10      -4.4395      2.00000
     11      -4.1264      2.00000
     12      -3.8336      2.00000
     13      -3.4268      2.00000
     14      -2.8503      2.00000
     15      -2.6916      2.00000
     16      -2.6528      2.00000
     17      -2.1300      2.00000
     18      -1.5511      2.00000
     19      -0.0499      0.00000
     20       0.2105      0.00000
     21       0.7488      0.00000
     22       0.8704      0.00000
     23       1.1275      0.00000
     24       1.5394      0.00000

 k-point    12 :       0.0526    0.3750    0.0000
  band No.  band energies     occupation 
      1     -14.6250      2.00000
      2     -14.1071      2.00000
      3     -13.7126      2.00000
      4     -13.1014      2.00000
      5      -6.4010      2.00000
      6      -6.3033      2.00000
      7      -5.5815      2.00000
      8      -5.1698      2.00000
      9      -5.1241      2.00000
     10      -4.3316      2.00000
     11      -4.1641      2.00000
     12      -4.0125      2.00000
     13      -3.3391      2.00000
     14      -3.1006      2.00000
     15      -2.7370      2.00000
     16      -2.7339      2.00000
     17      -2.1848      2.00000
     18      -1.7696      2.00000
     19      -0.1711      0.00000
     20       0.1859      0.00000
     21       0.3508      0.00000
     22       0.8356      0.00000
     23       0.9188      0.00000
     24       1.3044      0.00000

 k-point    13 :       0.0526    0.5000    0.0000
  band No.  band energies     occupation 
      1     -14.3628      2.00000
      2     -14.3628      2.00000
      3     -13.4468      2.00000
      4     -13.4468      2.00000
      5      -6.2017      2.00000
      6      -6.2017      2.00000
      7      -5.4222      2.00000
      8      -5.4221      2.00000
      9      -4.5960      2.00000
     10      -4.5959      2.00000
     11      -4.2016      2.00000
     12      -4.2016      2.00000
     13      -3.2339      2.00000
     14      -3.2339      2.00000
     15      -2.7638      2.00000
     16      -2.7638      2.00000
     17      -2.0426      2.00000
     18      -2.0426      2.00000
     19      -0.1324      0.00000
     20      -0.1323      0.00000
     21       0.5878      0.00000
     22       0.5879      0.00000
     23       1.0503      0.00000
     24       1.0503      0.00000

 k-point    14 :       0.0526    0.6250    0.0000
  band No.  band energies     occupation 
      1     -14.6250      2.00000
      2     -14.1071      2.00000
      3     -13.7126      2.00000
      4     -13.1014      2.00000
      5      -6.4010      2.00000
      6      -6.3033      2.00000
      7      -5.5815      2.00000
      8      -5.1698      2.00000
      9      -5.1241      2.00000
     10      -4.3316      2.00000
     11      -4.1641      2.00000
     12      -4.0125      2.00000
     13      -3.3391      2.00000
     14      -3.1006      2.00000
     15      -2.7370      2.00000
     16      -2.7339      2.00000
     17      -2.1848      2.00000
     18      -1.7696      2.00000
     19      -0.1711      0.00000
     20       0.1859      0.00000
     21       0.3508      0.00000
     22       0.8356      0.00000
     23       0.9188      0.00000
     24       1.3044      0.00000

 k-point    15 :       0.0526    0.7500    0.0000
  band No.  band energies     occupation 
      1     -14.8465      2.00000
      2     -13.8994      2.00000
      3     -13.8973      2.00000
      4     -12.7125      2.00000
      5      -6.7416      2.00000
      6      -6.6389      2.00000
      7      -5.9440      2.00000
      8      -5.2526      2.00000
      9      -4.7732      2.00000
     10      -4.4395      2.00000
     11      -4.1264      2.00000
     12      -3.8336      2.00000
     13      -3.4268      2.00000
     14      -2.8503      2.00000
     15      -2.6916      2.00000
     16      -2.6528      2.00000
     17      -2.1300      2.00000
     18      -1.5511      2.00000
     19      -0.0499      0.00000
     20       0.2105      0.00000
     21       0.7488      0.00000
     22       0.8704      0.00000
     23       1.1275      0.00000
     24       1.5390      0.00000

 k-point    16 :       0.0526    0.8750    0.0000
  band No.  band energies     occupation 
      1     -14.9919      2.00000
      2     -14.0064      2.00000
      3     -13.7651      2.00000
      4     -12.3772      2.00000
      5      -7.2285      2.00000
      6      -6.8054      2.00000
      7      -6.1893      2.00000
      8      -5.2448      2.00000
      9      -4.5042      2.00000
     10      -4.4633      2.00000
     11      -4.1619      2.00000
     12      -3.8369      2.00000
     13      -3.4712      2.00000
     14      -2.6221      2.00000
     15      -2.6119      2.00000
     16      -2.5699      2.00000
     17      -2.0125      2.00000
     18      -1.4542      2.00000
     19       0.0572      0.00000
     20       0.2198      0.00000
     21       0.9200      0.00000
     22       1.0836      0.00000
     23       1.5382      0.00000
     24       1.6634      0.00000

 k-point    17 :       0.1053    0.0000    0.0000
  band No.  band energies     occupation 
      1     -14.9619      2.00000
      2     -13.9843      2.00000
      3     -13.6970      2.00000
      4     -12.1871      2.00000
      5      -7.3332      2.00000
      6      -6.7708      2.00000
      7      -6.2546      2.00000
      8      -5.2456      2.00000
      9      -4.5757      2.00000
     10      -4.5293      2.00000
     11      -4.1605      2.00000
     12      -3.8231      2.00000
     13      -3.4727      2.00000
     14      -3.1064      2.00000
     15      -2.6686      2.00000
     16      -2.5933      2.00000
     17      -1.8745      2.00000
     18      -1.4684      2.00000
     19      -0.0096      0.00000
     20       0.4332      0.00000
     21       0.8899      0.00000
     22       1.0772      0.00000
     23       1.3958      0.00000
     24       1.6328      0.00000

 k-point    18 :       0.1053    0.1250    0.0000
  band No.  band energies     occupation 
      1     -14.9131      2.00000
      2     -13.9480      2.00000
      3     -13.7414      2.00000
      4     -12.3222      2.00000
      5      -7.1375      2.00000
      6      -6.7148      2.00000
      7      -6.1784      2.00000
      8      -5.2328      2.00000
      9      -4.6417      2.00000
     10      -4.5803      2.00000
     11      -4.1342      2.00000
     12      -3.8273      2.00000
     13      -3.4358      2.00000
     14      -3.1210      2.00000
     15      -2.7266      2.00000
     16      -2.6388      2.00000
     17      -1.9362      2.00000
     18      -1.5036      2.00000
     19      -0.0059      0.00000
     20       0.3228      0.00000
     21       0.8297      0.00000
     22       1.0871      0.00000
     23       1.1583      0.00000
     24       1.5540      0.00000

 k-point    19 :       0.1053    0.2500    0.0000
  band No.  band energies     occupation 
      1     -14.7724      2.00000
      2     -13.8694      2.00000
      3     -13.8383      2.00000
      4     -12.6512      2.00000
      5      -6.6804      2.00000
      6      -6.5559      2.00000
      7      -5.9270      2.00000
      8      -5.2360      2.00000
      9      -4.8947      2.00000
     10      -4.5669      2.00000
     11      -4.1443      2.00000
     12      -3.8527      2.00000
     13      -3.3424      2.00000
     14      -3.1330      2.00000
     15      -2.9622      2.00000
     16      -2.6833      2.00000
     17      -2.0406      2.00000
     18      -1.6073      2.00000
     19      -0.1117      0.00000
     20       0.2464      0.00000
     21       0.5669      0.00000
     22       0.7946      0.00000
     23       1.0596      0.00000
     24       1.3880      0.00000

 k-point    20 :       0.1053    0.3750    0.0000
  band No.  band energies     occupation 
      1     -14.5595      2.00000
      2     -14.0667      2.00000
      3     -13.6519      2.00000
      4     -13.0369      2.00000
      5      -6.3295      2.00000
      6      -6.2691      2.00000
      7      -5.5491      2.00000
      8      -5.1959      2.00000
      9      -5.1849      2.00000
     10      -4.4892      2.00000
     11      -4.2554      2.00000
     12      -4.0410      2.00000
     13      -3.2157      2.00000
     14      -3.1734      2.00000
     15      -3.1024      2.00000
     16      -2.7754      2.00000
     17      -2.0696      2.00000
     18      -1.7783      2.00000
     19      -0.2433      0.00000
     20       0.0875      0.00000
     21       0.3098      0.00000
     22       0.7617      0.00000
     23       0.7994      0.00000
     24       1.1622      0.00000

 k-point    21 :       0.1053    0.5000    0.0000
  band No.  band energies     occupation 
      1     -14.3094      2.00000
      2     -14.3094      2.00000
      3     -13.3835      2.00000
      4     -13.3835      2.00000
      5      -6.1494      2.00000
      6      -6.1494      2.00000
      7      -5.4438      2.00000
      8      -5.4438      2.00000
      9      -4.6242      2.00000
     10      -4.6242      2.00000
     11      -4.3529      2.00000
     12      -4.3529      2.00000
     13      -3.1820      2.00000
     14      -3.1820      2.00000
     15      -2.9543      2.00000
     16      -2.9543      2.00000
     17      -1.9663      2.00000
     18      -1.9663      2.00000
     19      -0.2026      0.00000
     20      -0.2025      0.00000
     21       0.4774      0.00000
     22       0.4775      0.00000
     23       0.9391      0.00000
     24       0.9391      0.00000

 k-point    22 :       0.1053    0.6250    0.0000
  band No.  band energies     occupation 
      1     -14.5595      2.00000
      2     -14.0667      2.00000
      3     -13.6519      2.00000
      4     -13.0369      2.00000
      5      -6.3295      2.00000
      6      -6.2691      2.00000
      7      -5.5491      2.00000
      8      -5.1959      2.00000
      9      -5.1849      2.00000
     10      -4.4892      2.00000
     11      -4.2554      2.00000
     12      -4.0410      2.00000
     13      -3.2157      2.00000
     14      -3.1734      2.00000
     15      -3.1024      2.00000
     16      -2.7754      2.00000
     17      -2.0696      2.00000
     18      -1.7783      2.00000
     19      -0.2433      0.00000
     20       0.0875      0.00000
     21       0.3098      0.00000
     22       0.7617      0.00000
     23       0.7994      0.00000
     24       1.1622      0.00000

 k-point    23 :       0.1053    0.7500    0.0000
  band No.  band energies     occupation 
      1     -14.7724      2.00000
      2     -13.8694      2.00000
      3     -13.8383      2.00000
      4     -12.6512      2.00000
      5      -6.6804      2.00000
      6      -6.5559      2.00000
      7      -5.9270      2.00000
      8      -5.2360      2.00000
      9      -4.8947      2.00000
     10      -4.5669      2.00000
     11      -4.1443      2.00000
     12      -3.8527      2.00000
     13      -3.3424      2.00000
     14      -3.1330      2.00000
     15      -2.9622      2.00000
     16      -2.6833      2.00000
     17      -2.0406      2.00000
     18      -1.6073      2.00000
     19      -0.1117      0.00000
     20       0.2464      0.00000
     21       0.5669      0.00000
     22       0.7946      0.00000
     23       1.0596      0.00000
     24       1.3881      0.00000

 k-point    24 :       0.1053    0.8750    0.0000
  band No.  band energies     occupation 
      1     -14.9131      2.00000
      2     -13.9480      2.00000
      3     -13.7414      2.00000
      4     -12.3222      2.00000
      5      -7.1375      2.00000
      6      -6.7148      2.00000
      7      -6.1784      2.00000
      8      -5.2328      2.00000
      9      -4.6417      2.00000
     10      -4.5803      2.00000
     11      -4.1342      2.00000
     12      -3.8273      2.00000
     13      -3.4358      2.00000
     14      -3.1210      2.00000
     15      -2.7266      2.00000
     16      -2.6388      2.00000
     17      -1.9362      2.00000
     18      -1.5036      2.00000
     19      -0.0059      0.00000
     20       0.3228      0.00000
     21       0.8297      0.00000
     22       1.0871      0.00000
     23       1.1584      0.00000
     24       1.5729      0.00000

 k-point    25 :       0.1579    0.0000    0.0000
  band No.  band energies     occupation 
      1     -14.8335      2.00000
      2     -13.8868      2.00000
      3     -13.6655      2.00000
      4     -12.1089      2.00000
      5      -7.1696      2.00000
      6      -6.6242      2.00000
      7      -6.2536      2.00000
      8      -5.2410      2.00000
      9      -4.7861      2.00000
     10      -4.6181      2.00000
     11      -4.1430      2.00000
     12      -3.8268      2.00000
     13      -3.7760      2.00000
     14      -3.4258      2.00000
     15      -2.8773      2.00000
     16      -2.6563      2.00000
     17      -1.8634      2.00000
     18      -1.5541      2.00000
     19      -0.1083      0.00000
     20       0.5747      0.00000
     21       0.7555      0.00000
     22       0.8158      0.00000
     23       1.1220      0.00000
     24       1.3239      0.00000

 k-point    26 :       0.1579    0.1250    0.0000
  band No.  band energies     occupation 
      1     -14.7874      2.00000
      2     -13.8501      2.00000
      3     -13.7065      2.00000
      4     -12.2372      2.00000
      5      -6.9960      2.00000
      6      -6.5741      2.00000
      7      -6.1820      2.00000
      8      -5.2122      2.00000
      9      -4.8743      2.00000
     10      -4.6493      2.00000
     11      -4.1054      2.00000
     12      -3.8882      2.00000
     13      -3.7667      2.00000
     14      -3.3595      2.00000
     15      -2.8977      2.00000
     16      -2.7024      2.00000
     17      -1.9327      2.00000
     18      -1.6136      2.00000
     19      -0.0826      0.00000
     20       0.4348      0.00000
     21       0.5636      0.00000
     22       0.8972      0.00000
     23       1.0465      0.00000
     24       1.3109      0.00000

 k-point    27 :       0.1579    0.2500    0.0000
  band No.  band energies     occupation 
      1     -14.6553      2.00000
[...]
     15      -3.3739      2.00000
     16      -3.1963      2.00000
     17      -1.9733      2.00000
     18      -1.8992      2.00000
     19      -0.0540      0.00000
     20      -0.0301      0.00000
     21       0.2994      0.00000
     22       0.4617      0.00000
     23       1.4079      0.00000
     24       1.4819      0.00000

 k-point    76 :       0.4737    0.3750    0.0000
  band No.  band energies     occupation 
      1     -13.7455      2.00000
      2     -13.7073      2.00000
      3     -12.3228      2.00000
      4     -12.2126      2.00000
      5      -7.3895      2.00000
      6      -7.2968      2.00000
      7      -6.2593      2.00000
      8      -6.2167      2.00000
      9      -5.2475      2.00000
     10      -5.2448      2.00000
     11      -4.5613      2.00000
     12      -4.5247      2.00000
     13      -3.4681      2.00000
     14      -3.4674      2.00000
     15      -2.8006      2.00000
     16      -2.5765      2.00000
     17      -2.0111      2.00000
     18      -1.9132      2.00000
     19       0.0311      0.00000
     20       0.0600      0.00000
     21       0.2420      0.00000
     22       0.3558      0.00000
     23       1.6692      0.00000
     24       1.7066      0.00000

 k-point    77 :       0.4737    0.5000    0.0000
  band No.  band energies     occupation 
      1     -13.7253      2.00000
      2     -13.7253      2.00000
      3     -12.2573      2.00000
      4     -12.2573      2.00000
      5      -7.4429      2.00000
      6      -7.4429      2.00000
      7      -6.2637      2.00000
      8      -6.2637      2.00000
      9      -5.2516      2.00000
     10      -5.2515      2.00000
     11      -4.5187      2.00000
     12      -4.5187      2.00000
     13      -3.4817      2.00000
     14      -3.4817      2.00000
     15      -2.2828      2.00000
     16      -2.2828      2.00000
     17      -2.1041      2.00000
     18      -2.1041      2.00000
     19       0.0800      0.00000
     20       0.0801      0.00000
     21       0.2438      0.00000
     22       0.2439      0.00000
     23       1.6397      0.00000
     24       1.6403      0.00000

 k-point    78 :       0.4737    0.6250    0.0000
  band No.  band energies     occupation 
      1     -13.7455      2.00000
      2     -13.7073      2.00000
      3     -12.3228      2.00000
      4     -12.2126      2.00000
      5      -7.3895      2.00000
      6      -7.2968      2.00000
      7      -6.2593      2.00000
      8      -6.2167      2.00000
      9      -5.2475      2.00000
     10      -5.2448      2.00000
     11      -4.5613      2.00000
     12      -4.5247      2.00000
     13      -3.4681      2.00000
     14      -3.4674      2.00000
     15      -2.8006      2.00000
     16      -2.5765      2.00000
     17      -2.0111      2.00000
     18      -1.9132      2.00000
     19       0.0311      0.00000
     20       0.0600      0.00000
     21       0.2420      0.00000
     22       0.3558      0.00000
     23       1.6669      0.00000
     24       1.7083      0.00000

 k-point    79 :       0.4737    0.7500    0.0000
  band No.  band energies     occupation 
      1     -13.7645      2.00000
      2     -13.6937      2.00000
      3     -12.3913      2.00000
      4     -12.1929      2.00000
      5      -7.1491      2.00000
      6      -6.9949      2.00000
      7      -6.2204      2.00000
      8      -6.1218      2.00000
      9      -5.2296      2.00000
     10      -5.2233      2.00000
     11      -4.6281      2.00000
     12      -4.6053      2.00000
     13      -3.5631      2.00000
     14      -3.4050      2.00000
     15      -3.3739      2.00000
     16      -3.1963      2.00000
     17      -1.9733      2.00000
     18      -1.8992      2.00000
     19      -0.0540      0.00000
     20      -0.0301      0.00000
     21       0.2994      0.00000
     22       0.4617      0.00000
     23       1.4066      0.00000
     24       1.4745      0.00000

 k-point    80 :       0.4737    0.8750    0.0000
  band No.  band energies     occupation 
      1     -13.7782      2.00000
      2     -13.6854      2.00000
      3     -12.4422      2.00000
      4     -12.1894      2.00000
      5      -6.8104      2.00000
      6      -6.6503      2.00000
      7      -6.1868      2.00000
      8      -6.0167      2.00000
      9      -5.1711      2.00000
     10      -5.1658      2.00000
     11      -4.7038      2.00000
     12      -4.7036      2.00000
     13      -4.2412      2.00000
     14      -3.8995      2.00000
     15      -3.3234      2.00000
     16      -3.2220      2.00000
     17      -2.0365      2.00000
     18      -1.9710      2.00000
     19      -0.1438      0.00000
     20      -0.1388      0.00000
     21       0.3348      0.00000
     22       0.4803      0.00000
     23       1.1801      0.00000
     24       1.1907      0.00000


--------------------------------------------------------------------------------------------------------


 soft charge-density along one line, spin component           1
         0         1         2         3         4         5         6         7         8         9
 total charge-density along one line
 
 pseudopotential strength for first ion, spin component:           1
 -9.506   0.000  -0.000   0.001  -0.000  -9.697   0.000  -0.000
  0.000  -9.511   0.000   0.000   0.001   0.000  -9.701   0.000
 -0.000   0.000  -9.507   0.000  -0.000  -0.000   0.000  -9.697
  0.001   0.000   0.000  -9.510   0.000   0.001   0.000   0.000
 -0.000   0.001  -0.000   0.000  -9.506  -0.000   0.001  -0.000
 -9.697   0.000  -0.000   0.001  -0.000  -9.877   0.000  -0.000
  0.000  -9.701   0.000   0.000   0.001   0.000  -9.881   0.000
 -0.000   0.000  -9.697   0.000  -0.000  -0.000   0.000  -9.877
  0.001   0.000   0.000  -9.701   0.000   0.001   0.000   0.000
 -0.000   0.001  -0.000   0.000  -9.697  -0.000   0.001  -0.000
 -0.000   0.000   0.000  -0.000  -0.000  -0.000   0.000   0.000
 -0.000   0.000   0.001  -0.000  -0.000  -0.000   0.000   0.001
  0.000  -0.028  -0.000  -0.000   0.003   0.000  -0.029  -0.000
 -0.000   0.000  -0.030   0.000   0.000  -0.000   0.000  -0.030
  0.003  -0.000  -0.000  -0.028   0.000   0.003  -0.000  -0.000
  0.000  -0.036  -0.000  -0.000   0.004   0.000  -0.036  -0.000
 -0.000   0.000  -0.037   0.000   0.000  -0.000   0.000  -0.038
  0.004  -0.000  -0.000  -0.035   0.000   0.004  -0.000  -0.000
 total augmentation occupancy for first ion, spin component:           1
  1.000   0.000   0.000   0.000   0.000   0.000   0.000   0.000   0.000   0.000   0.000   0.000   0.000   0.000   0.000   0.000
  0.000   1.000   0.000   0.000   0.000   0.000   0.000   0.000   0.000   0.000   0.000   0.000   0.000   0.000   0.000   0.000
  0.000   0.000   1.000   0.000   0.000   0.000   0.000   0.000   0.000   0.000   0.000   0.000   0.000   0.000   0.000   0.000
  0.000   0.000   0.000   1.000   0.000   0.000   0.000   0.000   0.000   0.000   0.000   0.000   0.000   0.000   0.000   0.000
  0.000   0.000   0.000   0.000   1.000   0.000   0.000   0.000   0.000   0.000   0.000   0.000   0.000   0.000   0.000   0.000
  0.000   0.000   0.000   0.000   0.000   0.000   0.000   0.000   0.000   0.000   0.000   0.000   0.000   0.000   0.000   0.000
  0.000   0.000   0.000   0.000   0.000   0.000   0.000   0.000   0.000   0.000   0.000   0.000   0.000   0.000   0.000   0.000
  0.000   0.000   0.000   0.000   0.000   0.000   0.000   0.000   0.000   0.000   0.000   0.000   0.000   0.000   0.000   0.000
  0.000   0.000   0.000   0.000   0.000   0.000   0.000   0.000   0.000   0.000   0.000   0.000   0.000   0.000   0.000   0.000
  0.000   0.000   0.000   0.000   0.000   0.000   0.000   0.000   0.000   0.000   0.000   0.000   0.000   0.000   0.000   0.000
  0.000   0.000   0.000   0.000   0.000   0.000   0.000   0.000   0.000   0.000   1.000   0.000   0.000   0.000   0.000   0.000
  0.000   0.000   0.000   0.000   0.000   0.000   0.000   0.000   0.000   0.000   0.000   0.000   0.000   0.000   0.000   0.000
  0.000   0.000   0.000   0.000   0.000   0.000   0.000   0.000   0.000   0.000   0.000   0.000   0.000   0.000   0.000   0.000
  0.000   0.000   0.000   0.000   0.000   0.000   0.000   0.000   0.000   0.000   0.000   0.000   0.000   0.000   0.000   0.000
  0.000   0.000   0.000   0.000   0.000   0.000   0.000   0.000   0.000   0.000   0.000   0.000   0.000   0.000   0.000   0.000
  0.000   0.000   0.000   0.000   0.000   0.000   0.000   0.000   0.000   0.000   0.000   0.000   0.000   0.000   0.000   0.000
  0.000   0.000   0.000   0.000   0.000   0.000   0.000   0.000   0.000   0.000   0.000   0.000   0.000   0.000   0.000   0.000
  0.000   0.000   0.000   0.000   0.000   0.000   0.000   0.000   0.000   0.000   0.000   0.000   0.000   0.000   0.000   0.000


------------------------ aborting loop because EDIFF is reached ----------------------------------------


    CHARGE:  cpu time    0.0333: real time    0.0333
    FORLOC:  cpu time    0.0003: real time    0.0003
    FORNL :  cpu time    0.0495: real time    0.0495
    STRESS:  cpu time    0.2411: real time    0.2411
    FORCOR:  cpu time    0.0147: real time    0.0147
    FORHAR:  cpu time    0.0027: real time    0.0027
    OFIELD:  cpu time    0.0000: real time    0.0000

  FORCE on cell =-STRESS in cart. coord.  units (eV):
  Direction    XX          YY          ZZ          XY          YZ          ZX
  --------------------------------------------------------------------------------------
  Alpha Z    26.05217    26.05217    26.05217
  Ewald    5245.85569  5245.34074 -6319.65232     0.00000     0.10834     0.00000
  Hartree  5454.21584  5454.02727 -5392.74328    -0.00000     0.04282     0.00000
  E(xc)    -145.37884  -145.36646  -147.17209     0.00000     0.00079    -0.00000
  Local  -11256.09049-11255.39475 11143.99991    -0.00000    -0.15609    -0.00000
  n-local   323.75486   323.79380   338.84051     0.00000     0.00875    -0.00000
  augment   -67.60677   -67.62414   -71.24581    -0.00000    -0.00288     0.00000
  Kinetic   419.19095   418.96510   421.91219     0.00000    -0.00199     0.00000
  Fock        0.00000     0.00000     0.00000     0.00000     0.00000     0.00000
  -------------------------------------------------------------------------------------
  Total      -0.00659    -0.20627    -0.00871     0.00000    -0.00026    -0.00000
  in kB      -0.02654    -0.83105    -0.03509     0.00001    -0.00106    -0.00000
  external pressure =       -0.30 kB  Pullay stress =        0.00 kB


 VOLUME and BASIS-vectors are now :
 -----------------------------------------------------------------------------
  energy-cutoff  :      600.00
  volume of cell :      397.67
      direct lattice vectors                 reciprocal lattice vectors
     3.363599539  0.000000000  0.000000000     0.297300552  0.000000000  0.000000000
     0.000000000  5.837577679  0.000000000     0.000000000  0.171303930  0.000000000
     0.000000000  0.000000000 20.252588272     0.000000000  0.000000000  0.049376405

  length of vectors
     3.363599539  5.837577679 20.252588272     0.297300552  0.171303930  0.049376405


 FORCES acting on ions
    electron-ion (+dipol)            ewald-force                    non-local-force                 convergence-correction
 -----------------------------------------------------------------------------------------------
   0.463E-06 0.175E+00 -.394E+01   0.131E-06 -.173E+00 0.633E+01   0.628E-06 -.111E-02 -.233E+01   -.190E-05 -.342E-03 -.553E-01
   0.206E-05 0.174E+00 -.394E+01   -.228E-06 -.174E+00 0.633E+01   -.120E-05 -.117E-02 -.233E+01   -.218E-05 0.520E-03 -.557E-01
   0.154E-04 -.118E+00 -.465E+03   0.342E-06 0.113E+00 0.471E+03   -.910E-05 0.347E-02 -.557E+01   -.639E-05 0.206E-02 -.179E-01
   0.156E-04 -.115E+00 -.465E+03   -.420E-07 0.115E+00 0.471E+03   -.112E-04 0.323E-02 -.557E+01   -.453E-05 -.211E-02 -.195E-01
   0.269E-06 -.612E-01 0.472E+03   -.192E-06 0.595E-01 -.477E+03   -.267E-06 0.659E-03 0.460E+01   -.150E-06 0.121E-02 -.310E-01
   0.942E-06 -.588E-01 0.472E+03   -.110E-07 0.598E-01 -.477E+03   -.833E-06 0.531E-03 0.460E+01   -.659E-06 -.129E-02 -.303E-01
 -----------------------------------------------------------------------------------------------
   0.348E-04 -.474E-02 0.682E+01   -.107E-13 0.284E-15 0.568E-13   -.220E-04 0.561E-02 -.661E+01   -.158E-04 0.525E-04 -.210E+00
 
 
 POSITION                                       TOTAL-FORCE (eV/Angst)
 -----------------------------------------------------------------------------------
      1.68180      0.97241     10.26882        -0.000000     -0.000078     -0.001560
      3.36360      3.89120     10.26882        -0.000001     -0.000043     -0.001656
      1.68180      4.86494     11.74066         0.000001     -0.000091     -0.000939
      3.36360      1.94615     11.74065         0.000000      0.000109     -0.000849
      1.68180      4.86487      8.36940         0.000000     -0.000014      0.002534
      3.36360      1.94608      8.36940        -0.000000      0.000116      0.002471
 -----------------------------------------------------------------------------------
    total drift:                               -0.000003      0.000914      0.001071


--------------------------------------------------------------------------------------------------------



  FREE ENERGIE OF THE ION-ELECTRON SYSTEM (eV)
  ---------------------------------------------------
  free  energy   TOTEN  =       -39.42451406 eV

  energy  without entropy=      -39.42451406  energy(sigma->0) =      -39.42451406
 


--------------------------------------------------------------------------------------------------------


    POTLOK:  cpu time    0.0150: real time    0.0150

 Berry-Phase calculation of electronic polarization

   IGPAR = 2   NPPSTR =    8


k-mesh defined as follows:

IGPAR =    2
NKPTS =   80  NSTR =   10  NPPSTR =    8
 

Average Det|M_k|=  (   0.37847   0.65383 )
 
K-point string #    1 weight=  0.05263158
  0.000000  0.000000  0.000000
  0.000000  0.125000  0.000000
  0.000000  0.250000  0.000000
  0.000000  0.375000  0.000000
  0.000000  0.500000  0.000000
  0.000000  0.625000  0.000000
  0.000000  0.750000  0.000000
  0.000000  0.875000  0.000000
                     Det|M_k|=  (   0.99937   0.03553 )
              Im ln[Det|M_k|]=     -0.00566 electrons
Im ln[Det|M_k|/<Det|M_k|>_av]=      1.01054
 
K-point string #    2 weight=  0.10526316
  0.052632  0.000000  0.000000
  0.052632  0.125000  0.000000
  0.052632  0.250000  0.000000
  0.052632  0.375000  0.000000
  0.052632  0.500000  0.000000
  0.052632  0.625000  0.000000
  0.052632  0.750000  0.000000
  0.052632  0.875000  0.000000
                     Det|M_k|=  (   0.99448   0.10497 )
              Im ln[Det|M_k|]=     -0.01674 electrons
Im ln[Det|M_k|/<Det|M_k|>_av]=      0.94091
 
K-point string #    3 weight=  0.10526316
  0.105263  0.000000  0.000000
  0.105263  0.125000  0.000000
  0.105263  0.250000  0.000000
  0.105263  0.375000  0.000000
  0.105263  0.500000  0.000000
  0.105263  0.625000  0.000000
  0.105263  0.750000  0.000000
  0.105263  0.875000  0.000000
                     Det|M_k|=  (   0.95737   0.28885 )
              Im ln[Det|M_k|]=     -0.04664 electrons
Im ln[Det|M_k|/<Det|M_k|>_av]=      0.75305
 
K-point string #    4 weight=  0.10526316
  0.157895  0.000000  0.000000
  0.157895  0.125000  0.000000
  0.157895  0.250000  0.000000
  0.157895  0.375000  0.000000
  0.157895  0.500000  0.000000
  0.157895  0.625000  0.000000
  0.157895  0.750000  0.000000
  0.157895  0.875000  0.000000
                     Det|M_k|=  (   0.85711   0.51513 )
              Im ln[Det|M_k|]=     -0.08613 electrons
Im ln[Det|M_k|/<Det|M_k|>_av]=      0.50492
 
K-point string #    5 weight=  0.10526316
  0.210526  0.000000  0.000000
  0.210526  0.125000  0.000000
  0.210526  0.250000  0.000000
  0.210526  0.375000  0.000000
  0.210526  0.500000  0.000000
  0.210526  0.625000  0.000000
  0.210526  0.750000  0.000000
  0.210526  0.875000  0.000000
                     Det|M_k|=  (   0.69916   0.71496 )
              Im ln[Det|M_k|]=     -0.12678 electrons
Im ln[Det|M_k|/<Det|M_k|>_av]=      0.24950
 
K-point string #    6 weight=  0.10526316
  0.263158  0.000000  0.000000
  0.263158  0.125000  0.000000
  0.263158  0.250000  0.000000
  0.263158  0.375000  0.000000
  0.263158  0.500000  0.000000
  0.263158  0.625000  0.000000
  0.263158  0.750000  0.000000
  0.263158  0.875000  0.000000
                     Det|M_k|=  (   0.49179   0.87071 )
              Im ln[Det|M_k|]=     -0.16817 electrons
Im ln[Det|M_k|/<Det|M_k|>_av]=      0.01057
 
K-point string #    7 weight=  0.10526316
  0.315789  0.000000  0.000000
  0.315789  0.125000  0.000000
  0.315789  0.250000  0.000000
  0.315789  0.375000  0.000000
  0.315789  0.500000  0.000000
  0.315789  0.625000  0.000000
  0.315789  0.750000  0.000000
  0.315789  0.875000  0.000000
                     Det|M_k|=  (   0.21340   0.97697 )
              Im ln[Det|M_k|]=     -0.21577 electrons
Im ln[Det|M_k|/<Det|M_k|>_av]=      0.30967
 
K-point string #    8 weight=  0.10526316
  0.368421  0.000000  0.000000
  0.368421  0.125000  0.000000
  0.368421  0.250000  0.000000
  0.368421  0.375000  0.000000
  0.368421  0.500000  0.000000
  0.368421  0.625000  0.000000
  0.368421  0.750000  0.000000
  0.368421  0.875000  0.000000
                     Det|M_k|=  (  -0.12943   0.99159 )
              Im ln[Det|M_k|]=     -0.27066 electrons
Im ln[Det|M_k|/<Det|M_k|>_av]=      0.65451
 
K-point string #    9 weight=  0.10526316
  0.421053  0.000000  0.000000
  0.421053  0.125000  0.000000
  0.421053  0.250000  0.000000
  0.421053  0.375000  0.000000
  0.421053  0.500000  0.000000
  0.421053  0.625000  0.000000
  0.421053  0.750000  0.000000
  0.421053  0.875000  0.000000
                     Det|M_k|=  (  -0.41993   0.90756 )
              Im ln[Det|M_k|]=     -0.31897 electrons
Im ln[Det|M_k|/<Det|M_k|>_av]=      0.95809
 
K-point string #   10 weight=  0.10526316
  0.473684  0.000000  0.000000
  0.473684  0.125000  0.000000
  0.473684  0.250000  0.000000
  0.473684  0.375000  0.000000
  0.473684  0.500000  0.000000
  0.473684  0.625000  0.000000
  0.473684  0.750000  0.000000
  0.473684  0.875000  0.000000
                     Det|M_k|=  (  -0.56820   0.82289 )
              Im ln[Det|M_k|]=     -0.34618 electrons
Im ln[Det|M_k|/<Det|M_k|>_av]=      1.12904
 
 
                                e<r>_ev=(    -0.00000    -0.00031    -0.00712 ) e*Angst
                                e<r>_bp=(     0.00000    -1.96495     0.00000 ) e*Angst
 
 Total electronic dipole moment: p[elc]=(    -0.00000    -1.96526    -0.00712 ) e*Angst
 
            ionic dipole moment: p[ion]=(   -30.27239    -5.83756     0.00001 ) e*Angst
 


--------------------------------------------------------------------------------------------------------


     LOOP+:  cpu time   10.6841: real time   10.8253
    4ORBIT:  cpu time    0.0000: real time    0.0000

 total amount of memory used by VASP MPI-rank0    55685. kBytes
=======================================================================

   base      :      30000. kBytes
   nonl-proj :      19407. kBytes
   fftplans  :       1398. kBytes
   grid      :       2623. kBytes
   one-center:         15. kBytes
   wavefun   :       2242. kBytes
 
  
  
 General timing and accounting informations for this job:
 ========================================================
  
                  Total CPU time used (sec):       16.372
                            User time (sec):       13.914
                          System time (sec):        2.458
                         Elapsed time (sec):       16.680
  
                   Maximum memory used (kb):      156280.
                   Average memory used (kb):           0.
  
                          Minor page faults:        21843
                          Major page faults:          295
                 Voluntary context switches:         1123
