 running on  192 total cores
 distrk:  each k-point on  192 cores,    1 groups
 distr:  one band on   24 cores,    8 groups
 using from now: INCAR     
 vasp.5.4.4.18Apr17-6-g9f103f2a35 (build Oct 01 2024 10:11:53) complex          
  
 POSCAR found type information on POSCAR  Se Sn
 POSCAR found :  2 types and       4 ions
 scaLAPACK will be used
 WARNING: PSMAXN for non-local potential too small
 LDA part: xc-table for Pade appr. of Perdew
 found WAVECAR, reading the header
  number of k-points has changed, file:    41 present:    40
  trying to continue reading WAVECAR, but it might fail
 WARNING: stress and forces are not correct
 POSCAR, INCAR and KPOINTS ok, starting setup
 FFT: planning ...
 reading WAVECAR
 the WAVECAR file was read successfully
 charge-density read from file: unknown                                 
 entering main loop
       N       E                     dE             d eps       ncg     rms          rms(c)
DAV:   1    -0.132233739367E+02   -0.13223E+02   -0.38109E+02  1752   0.646E+01
DAV:   2    -0.162295596539E+02   -0.30062E+01   -0.29811E+01  1536   0.228E+01
DAV:   3    -0.162647952212E+02   -0.35236E-01   -0.35221E-01  1768   0.288E+00
DAV:   4    -0.162652401168E+02   -0.44490E-03   -0.44488E-03  1616   0.321E-01
DAV:   5    -0.162652525578E+02   -0.12441E-04   -0.12440E-04  1792   0.521E-02
DAV:   6    -0.162652530192E+02   -0.46139E-06   -0.46139E-06  1576   0.894E-03
   1 F= -.16265253E+02 E0= -.16265253E+02  d E =0.000000E+00
 writing wavefunctions
