 vasp.5.4.4.18Apr17-6-g9f103f2a35 (build Sep 16 2021 13:51:27) complex          
  
 executed on             LinuxIFC date 2022.09.27  19:39:27
 running on   24 total cores
 distrk:  each k-point on   24 cores,    1 groups
 distr:  one band on NCORES_PER_BAND=   1 cores,   24 groups


--------------------------------------------------------------------------------------------------------


 INCAR:
 POTCAR:    PAW_PBE Sn 08Apr2002                  
 POTCAR:    PAW_PBE Se 06Sep2000                  

 ----------------------------------------------------------------------------- 
|                                                                             |
|           W    W    AA    RRRRR   N    N  II  N    N   GGGG   !!!           |
|           W    W   A  A   R    R  NN   N  II  NN   N  G    G  !!!           |
|           W    W  A    A  R    R  N N  N  II  N N  N  G       !!!           |
|           W WW W  AAAAAA  RRRRR   N  N N  II  N  N N  G  GGG   !            |
|           WW  WW  A    A  R   R   N   NN  II  N   NN  G    G                |
|           W    W  A    A  R    R  N    N  II  N    N   GGGG   !!!           |
|                                                                             |
|      For optimal performance we recommend to set                            |
|        NCORE= 4 - approx SQRT( number of cores)                             |
|      NCORE specifies how many cores store one orbital (NPAR=cpu/NCORE).     |
|      This setting can  greatly improve the performance of VASP for DFT.     |
|      The default,   NCORE=1            might be grossly inefficient         |
|      on modern multi-core architectures or massively parallel machines.     |
|      Do your own testing !!!!                                               |
|      Unfortunately you need to use the default for GW and RPA calculations. |
|      (for HF NCORE is supported but not extensively tested yet)             |
|                                                                             |
 ----------------------------------------------------------------------------- 

 POTCAR:    PAW_PBE Sn 08Apr2002                  
   VRHFIN =Sn: s2p2                                                             
   LEXCH  = PE                                                                  
   EATOM  =    94.0860 eV,    6.9151 Ry                                         
                                                                                
   TITEL  = PAW_PBE Sn 08Apr2002                                                
   LULTRA =        F    use ultrasoft PP ?                                      
   IUNSCR =        1    unscreen: 0-lin 1-nonlin 2-no                           
   RPACOR =    2.000    partial core radius                                     
   POMASS =  118.710; ZVAL   =    4.000    mass and valenz                      
   RCORE  =    3.000    outmost cutoff radius                                   
   RWIGS  =    2.960; RWIGS  =    1.566    wigner-seitz radius (au A)           
   ENMAX  =  103.236; ENMIN  =   77.427 eV                                      
   ICORE  =        3    local potential                                         
   LCOR   =        T    correct aug charges                                     
   LPAW   =        T    paw PP                                                  
   EAUG   =  263.585                                                            
   DEXC   =    0.000                                                            
   RMAX   =    3.078    core radius for proj-oper                               
   RAUG   =    1.300    factor for augmentation sphere                          
   RDEP   =    3.022    radius for radial grids                                 
   RDEPT  =    2.655    core radius for aug-charge                              
                                                                                
   Atomic configuration                                                         
   13 entries                                                                   
     n  l   j            E        occ.                                          
     1  0  0.50    -29007.2859   2.0000                                         
     2  0  0.50     -4378.8056   2.0000                                         
     2  1  1.50     -3930.4293   6.0000                                         
     3  0  0.50      -845.0264   2.0000                                         
     3  1  1.50      -698.5725   6.0000                                         
     3  2  2.50      -473.2839  10.0000                                         
     4  0  0.50      -133.9036   2.0000                                         
     4  1  1.50       -89.6752   6.0000                                         
     4  2  2.50       -25.8375  10.0000                                         
     5  0  0.50       -10.5484   2.0000                                         
     5  1  0.50        -3.6940   2.0000                                         
     5  2  1.50        -1.3606   0.0000                                         
     4  3  2.50        -4.0817   0.0000                                         
   Description                                                                  
     l       E           TYP  RCUT    TYP  RCUT                                 
     0    -10.5483727     23  3.000                                             
     0     27.2116520     23  3.000                                             
     1     -3.6939829     23  3.000                                             
     1      1.9821976     23  3.000                                             
     2     -1.3605826     23  3.000                                             
     3     -2.7211652     23  3.000                                             
  local pseudopotential read in
  partial core-charges read in
  partial kinetic energy density read in
  atomic valenz-charges read in
  non local Contribution for L=           0  read in
    real space projection operators read in
  non local Contribution for L=           0  read in
    real space projection operators read in
  non local Contribution for L=           1  read in
    real space projection operators read in
  non local Contribution for L=           1  read in
    real space projection operators read in
  non local Contribution for L=           2  read in
    real space projection operators read in
    PAW grid and wavefunctions read in
 
   number of l-projection  operators is LMAX  =           5
   number of lm-projection operators is LMMAX =          13
 
 POTCAR:    PAW_PBE Se 06Sep2000                  
   VRHFIN =Se: s2p4                                                             
   LEXCH  = PE                                                                  
   EATOM  =   257.1286 eV,   18.8984 Ry                                         
                                                                                
   TITEL  = PAW_PBE Se 06Sep2000                                                
   LULTRA =        F    use ultrasoft PP ?                                      
   IUNSCR =        1    unscreen: 0-lin 1-nonlin 2-no                           
   RPACOR =    1.900    partial core radius                                     
   POMASS =   78.960; ZVAL   =    6.000    mass and valenz                      
   RCORE  =    2.100    outmost cutoff radius                                   
   RWIGS  =    2.200; RWIGS  =    1.164    wigner-seitz radius (au A)           
   ENMAX  =  211.555; ENMIN  =  158.666 eV                                      
   ICORE  =        3    local potential                                         
   LCOR   =        T    correct aug charges                                     
   LPAW   =        T    paw PP                                                  
   EAUG   =  446.842                                                            
   DEXC   =    0.000                                                            
   RMAX   =    2.147    core radius for proj-oper                               
   RAUG   =    1.300    factor for augmentation sphere                          
   RDEP   =    2.177    radius for radial grids                                 
   RDEPT  =    1.928    core radius for aug-charge                              
                                                                                
   Atomic configuration                                                         
   10 entries                                                                   
     n  l   j            E        occ.                                          
     1  0  0.50    -12503.4787   2.0000                                         
     2  0  0.50     -1606.9547   2.0000                                         
     2  1  1.50     -1413.3140   6.0000                                         
     3  0  0.50      -213.4885   2.0000                                         
     3  1  1.50      -152.9538   6.0000                                         
     3  2  2.50       -53.1221  10.0000                                         
     4  0  0.50       -17.2865   2.0000                                         
     4  1  0.50        -6.5110   4.0000                                         
     4  2  2.50        -6.8029   0.0000                                         
     4  3  2.50        -6.8029   0.0000                                         
   Description                                                                  
     l       E           TYP  RCUT    TYP  RCUT                                 
     0    -17.2865377     23  2.100                                             
     0    -15.3094411     23  2.100                                             
     1     -6.5110275     23  2.100                                             
     1     -0.0695192     23  2.100                                             
     2     -6.8029130     23  2.100                                             
     3     -1.3605826      7  2.100                                             
  local pseudopotential read in
  partial core-charges read in
  partial kinetic energy density read in
  atomic valenz-charges read in
  non local Contribution for L=           0  read in
    real space projection operators read in
  non local Contribution for L=           0  read in
    real space projection operators read in
  non local Contribution for L=           1  read in
    real space projection operators read in
  non local Contribution for L=           1  read in
    real space projection operators read in
  non local Contribution for L=           2  read in
    real space projection operators read in
    PAW grid and wavefunctions read in
 
   number of l-projection  operators is LMAX  =           5
   number of lm-projection operators is LMMAX =          13
 
 WARNING: PSMAXN for non-local potential too small
          PSMAXN should be >   12.5490833729506       NTYP=           1
  PAW_PBE Sn 08Apr2002                  :
 energy of atom  1       EATOM=  -94.0860
 kinetic energy error for atom=    0.0000 (will be added to EATOM!!)
  PAW_PBE Se 06Sep2000                  :
 energy of atom  2       EATOM= -257.1286
 kinetic energy error for atom=    0.0006 (will be added to EATOM!!)
 
 
 POSCAR:  SnSe-Monolayer                         
  positions in direct lattice
  velocities in cartesian coordinates
 exchange correlation table for  LEXCH =        8
   RHO(1)=    0.500       N(1)  =     2000
   RHO(2)=  100.500       N(2)  =     4000
 


--------------------------------------------------------------------------------------------------------


 ion  position               nearest neighbor table
   1  0.750  0.581  0.569-   4 2.72   3 2.92   3 2.92   3 3.22   3 3.22
   2  0.250  0.081  0.431-   3 2.72   4 2.92   4 2.92   4 3.22   4 3.22
   3  0.250  0.033  0.567-   2 2.72   1 2.92   1 2.92   1 3.22   1 3.22
   4  0.750  0.533  0.433-   1 2.72   2 2.92   2 2.92   2 3.22   2 3.22
 
  LATTYP: Found a simple orthorhombic cell.
 ALAT       =     4.2924778572
 B/A-ratio  =     1.0209387004
 C/A-ratio  =     4.6593134934
  
  Lattice vectors:
  
 A1 = (   4.2924778572,   0.0000000000,   0.0000000000)
 A2 = (   0.0000000000,   4.3823567649,   0.0000000000)
 A3 = (   0.0000000000,   0.0000000000,  20.0000000000)


Analysis of symmetry for initial positions (statically):
=====================================================================
 Subroutine PRICEL returns:
 Original cell was already a primitive cell.
 

 Routine SETGRP: Setting up the symmetry group for a 
 simple orthorhombic supercell.


 Subroutine GETGRP returns: Found  4 space group operations
 (whereof  1 operations were pure point group operations)
 out of a pool of  8 trial point group operations.


The static configuration has the point symmetry C_1 .
 The point group associated with its full space group is C_2v.


Analysis of symmetry for dynamics (positions and initial velocities):
=====================================================================
 Subroutine PRICEL returns:
 Original cell was already a primitive cell.
 

 Routine SETGRP: Setting up the symmetry group for a 
 simple orthorhombic supercell.


 Subroutine GETGRP returns: Found  4 space group operations
 (whereof  1 operations were pure point group operations)
 out of a pool of  8 trial point group operations.


The dynamic configuration has the point symmetry C_1 .
 The point group associated with its full space group is C_2v.


 Subroutine INISYM returns: Found  4 space group operations
 (whereof  1 operations are pure point group operations),
 and found     1 'primitive' translations

 
 
 KPOINTS: Automatic                               

Automatic generation of k-mesh.
Space group operators:
 irot       det(A)        alpha          n_x          n_y          n_z        tau_x        tau_y        tau_z
    1     1.000000     0.000000     1.000000     0.000000     0.000000     0.000000     0.000000     0.000000
    2    -1.000000   180.000000     0.000000     0.000000     1.000000     0.500000     0.500000     0.000000
    3     1.000000   180.000000     0.000000     1.000000     0.000000     0.000000     0.500000     0.000000
    4    -1.000000   180.000000     1.000000     0.000000     0.000000     0.500000     0.000000     0.000000
 
 Subroutine IBZKPT returns following result:
 ===========================================
 
 Found     64 irreducible k-points:
 
 Following reciprocal coordinates:
            Coordinates               Weight
  0.000000  0.000000  0.000000      1.000000
  0.066667  0.000000  0.000000      2.000000
  0.133333  0.000000  0.000000      2.000000
  0.200000  0.000000  0.000000      2.000000
  0.266667  0.000000  0.000000      2.000000
  0.333333  0.000000  0.000000      2.000000
  0.400000  0.000000  0.000000      2.000000
  0.466667  0.000000  0.000000      2.000000
  0.000000  0.066667  0.000000      2.000000
  0.066667  0.066667  0.000000      4.000000
  0.133333  0.066667  0.000000      4.000000
  0.200000  0.066667  0.000000      4.000000
  0.266667  0.066667  0.000000      4.000000
  0.333333  0.066667  0.000000      4.000000
  0.400000  0.066667  0.000000      4.000000
  0.466667  0.066667  0.000000      4.000000
  0.000000  0.133333  0.000000      2.000000
  0.066667  0.133333  0.000000      4.000000
  0.133333  0.133333  0.000000      4.000000
  0.200000  0.133333  0.000000      4.000000
  0.266667  0.133333  0.000000      4.000000
  0.333333  0.133333  0.000000      4.000000
  0.400000  0.133333  0.000000      4.000000
  0.466667  0.133333  0.000000      4.000000
  0.000000  0.200000  0.000000      2.000000
  0.066667  0.200000  0.000000      4.000000
  0.133333  0.200000  0.000000      4.000000
  0.200000  0.200000  0.000000      4.000000
  0.266667  0.200000  0.000000      4.000000
  0.333333  0.200000  0.000000      4.000000
  0.400000  0.200000  0.000000      4.000000
  0.466667  0.200000  0.000000      4.000000
  0.000000  0.266667  0.000000      2.000000
  0.066667  0.266667  0.000000      4.000000
  0.133333  0.266667  0.000000      4.000000
  0.200000  0.266667  0.000000      4.000000
  0.266667  0.266667  0.000000      4.000000
  0.333333  0.266667  0.000000      4.000000
  0.400000  0.266667  0.000000      4.000000
  0.466667  0.266667  0.000000      4.000000
  0.000000  0.333333  0.000000      2.000000
  0.066667  0.333333  0.000000      4.000000
  0.133333  0.333333  0.000000      4.000000
  0.200000  0.333333  0.000000      4.000000
  0.266667  0.333333  0.000000      4.000000
  0.333333  0.333333  0.000000      4.000000
  0.400000  0.333333  0.000000      4.000000
  0.466667  0.333333  0.000000      4.000000
  0.000000  0.400000  0.000000      2.000000
  0.066667  0.400000  0.000000      4.000000
  0.133333  0.400000  0.000000      4.000000
  0.200000  0.400000  0.000000      4.000000
  0.266667  0.400000  0.000000      4.000000
  0.333333  0.400000  0.000000      4.000000
  0.400000  0.400000  0.000000      4.000000
  0.466667  0.400000  0.000000      4.000000
  0.000000  0.466667  0.000000      2.000000
  0.066667  0.466667  0.000000      4.000000
  0.133333  0.466667  0.000000      4.000000
  0.200000  0.466667  0.000000      4.000000
  0.266667  0.466667  0.000000      4.000000
  0.333333  0.466667  0.000000      4.000000
  0.400000  0.466667  0.000000      4.000000
  0.466667  0.466667  0.000000      4.000000
 
 Following cartesian coordinates:
            Coordinates               Weight
  0.000000  0.000000  0.000000      1.000000
  0.015531  0.000000  0.000000      2.000000
  0.031062  0.000000  0.000000      2.000000
  0.046593  0.000000  0.000000      2.000000
  0.062124  0.000000  0.000000      2.000000
  0.077655  0.000000  0.000000      2.000000
  0.093186  0.000000  0.000000      2.000000
  0.108717  0.000000  0.000000      2.000000
  0.000000  0.015213  0.000000      2.000000
  0.015531  0.015213  0.000000      4.000000
  0.031062  0.015213  0.000000      4.000000
  0.046593  0.015213  0.000000      4.000000
  0.062124  0.015213  0.000000      4.000000
  0.077655  0.015213  0.000000      4.000000
  0.093186  0.015213  0.000000      4.000000
  0.108717  0.015213  0.000000      4.000000
  0.000000  0.030425  0.000000      2.000000
  0.015531  0.030425  0.000000      4.000000
  0.031062  0.030425  0.000000      4.000000
  0.046593  0.030425  0.000000      4.000000
  0.062124  0.030425  0.000000      4.000000
  0.077655  0.030425  0.000000      4.000000
  0.093186  0.030425  0.000000      4.000000
  0.108717  0.030425  0.000000      4.000000
  0.000000  0.045638  0.000000      2.000000
  0.015531  0.045638  0.000000      4.000000
  0.031062  0.045638  0.000000      4.000000
  0.046593  0.045638  0.000000      4.000000
  0.062124  0.045638  0.000000      4.000000
  0.077655  0.045638  0.000000      4.000000
  0.093186  0.045638  0.000000      4.000000
  0.108717  0.045638  0.000000      4.000000
  0.000000  0.060850  0.000000      2.000000
  0.015531  0.060850  0.000000      4.000000
  0.031062  0.060850  0.000000      4.000000
  0.046593  0.060850  0.000000      4.000000
  0.062124  0.060850  0.000000      4.000000
  0.077655  0.060850  0.000000      4.000000
  0.093186  0.060850  0.000000      4.000000
  0.108717  0.060850  0.000000      4.000000
  0.000000  0.076063  0.000000      2.000000
  0.015531  0.076063  0.000000      4.000000
  0.031062  0.076063  0.000000      4.000000
  0.046593  0.076063  0.000000      4.000000
  0.062124  0.076063  0.000000      4.000000
  0.077655  0.076063  0.000000      4.000000
  0.093186  0.076063  0.000000      4.000000
  0.108717  0.076063  0.000000      4.000000
  0.000000  0.091275  0.000000      2.000000
  0.015531  0.091275  0.000000      4.000000
  0.031062  0.091275  0.000000      4.000000
  0.046593  0.091275  0.000000      4.000000
  0.062124  0.091275  0.000000      4.000000
  0.077655  0.091275  0.000000      4.000000
  0.093186  0.091275  0.000000      4.000000
  0.108717  0.091275  0.000000      4.000000
  0.000000  0.106488  0.000000      2.000000
  0.015531  0.106488  0.000000      4.000000
  0.031062  0.106488  0.000000      4.000000
  0.046593  0.106488  0.000000      4.000000
  0.062124  0.106488  0.000000      4.000000
  0.077655  0.106488  0.000000      4.000000
  0.093186  0.106488  0.000000      4.000000
  0.108717  0.106488  0.000000      4.000000
 
 
 Subroutine IBZKPT_HF returns following result:
 ==============================================
 
 Found    225 k-points in 1st BZ
 the following    225 k-points will be used (e.g. in the exchange kernel)
 Following reciprocal coordinates:   # in IRBZ
  0.000000  0.000000  0.000000    0.00444444   1 t-inv F
  0.066667  0.000000  0.000000    0.00444444   2 t-inv F
  0.133333  0.000000  0.000000    0.00444444   3 t-inv F
  0.200000  0.000000  0.000000    0.00444444   4 t-inv F
  0.266667  0.000000  0.000000    0.00444444   5 t-inv F
  0.333333  0.000000  0.000000    0.00444444   6 t-inv F
  0.400000  0.000000  0.000000    0.00444444   7 t-inv F
  0.466667  0.000000  0.000000    0.00444444   8 t-inv F
  0.000000  0.066667  0.000000    0.00444444   9 t-inv F
  0.066667  0.066667  0.000000    0.00444444  10 t-inv F
  0.133333  0.066667  0.000000    0.00444444  11 t-inv F
  0.200000  0.066667  0.000000    0.00444444  12 t-inv F
  0.266667  0.066667  0.000000    0.00444444  13 t-inv F
  0.333333  0.066667  0.000000    0.00444444  14 t-inv F
  0.400000  0.066667  0.000000    0.00444444  15 t-inv F
  0.466667  0.066667  0.000000    0.00444444  16 t-inv F
  0.000000  0.133333  0.000000    0.00444444  17 t-inv F
  0.066667  0.133333  0.000000    0.00444444  18 t-inv F
  0.133333  0.133333  0.000000    0.00444444  19 t-inv F
  0.200000  0.133333  0.000000    0.00444444  20 t-inv F
  0.266667  0.133333  0.000000    0.00444444  21 t-inv F
  0.333333  0.133333  0.000000    0.00444444  22 t-inv F
  0.400000  0.133333  0.000000    0.00444444  23 t-inv F
  0.466667  0.133333  0.000000    0.00444444  24 t-inv F
  0.000000  0.200000  0.000000    0.00444444  25 t-inv F
  0.066667  0.200000  0.000000    0.00444444  26 t-inv F
  0.133333  0.200000  0.000000    0.00444444  27 t-inv F
  0.200000  0.200000  0.000000    0.00444444  28 t-inv F
  0.266667  0.200000  0.000000    0.00444444  29 t-inv F
  0.333333  0.200000  0.000000    0.00444444  30 t-inv F
  0.400000  0.200000  0.000000    0.00444444  31 t-inv F
  0.466667  0.200000  0.000000    0.00444444  32 t-inv F
  0.000000  0.266667  0.000000    0.00444444  33 t-inv F
  0.066667  0.266667  0.000000    0.00444444  34 t-inv F
  0.133333  0.266667  0.000000    0.00444444  35 t-inv F
  0.200000  0.266667  0.000000    0.00444444  36 t-inv F
  0.266667  0.266667  0.000000    0.00444444  37 t-inv F
  0.333333  0.266667  0.000000    0.00444444  38 t-inv F
  0.400000  0.266667  0.000000    0.00444444  39 t-inv F
  0.466667  0.266667  0.000000    0.00444444  40 t-inv F
  0.000000  0.333333  0.000000    0.00444444  41 t-inv F
  0.066667  0.333333  0.000000    0.00444444  42 t-inv F
  0.133333  0.333333  0.000000    0.00444444  43 t-inv F
  0.200000  0.333333  0.000000    0.00444444  44 t-inv F
  0.266667  0.333333  0.000000    0.00444444  45 t-inv F
  0.333333  0.333333  0.000000    0.00444444  46 t-inv F
  0.400000  0.333333  0.000000    0.00444444  47 t-inv F
  0.466667  0.333333  0.000000    0.00444444  48 t-inv F
  0.000000  0.400000  0.000000    0.00444444  49 t-inv F
  0.066667  0.400000  0.000000    0.00444444  50 t-inv F
  0.133333  0.400000  0.000000    0.00444444  51 t-inv F
  0.200000  0.400000  0.000000    0.00444444  52 t-inv F
  0.266667  0.400000  0.000000    0.00444444  53 t-inv F
  0.333333  0.400000  0.000000    0.00444444  54 t-inv F
  0.400000  0.400000  0.000000    0.00444444  55 t-inv F
  0.466667  0.400000  0.000000    0.00444444  56 t-inv F
  0.000000  0.466667  0.000000    0.00444444  57 t-inv F
  0.066667  0.466667  0.000000    0.00444444  58 t-inv F
  0.133333  0.466667  0.000000    0.00444444  59 t-inv F
  0.200000  0.466667  0.000000    0.00444444  60 t-inv F
  0.266667  0.466667  0.000000    0.00444444  61 t-inv F
  0.333333  0.466667  0.000000    0.00444444  62 t-inv F
  0.400000  0.466667  0.000000    0.00444444  63 t-inv F
  0.466667  0.466667  0.000000    0.00444444  64 t-inv F
 -0.066667  0.000000  0.000000    0.00444444   2 t-inv F
 -0.133333  0.000000  0.000000    0.00444444   3 t-inv F
 -0.200000  0.000000  0.000000    0.00444444   4 t-inv F
 -0.266667  0.000000  0.000000    0.00444444   5 t-inv F
 -0.333333  0.000000  0.000000    0.00444444   6 t-inv F
 -0.400000  0.000000  0.000000    0.00444444   7 t-inv F
 -0.466667  0.000000  0.000000    0.00444444   8 t-inv F
 -0.066667  0.066667  0.000000    0.00444444  10 t-inv F
 -0.133333  0.066667  0.000000    0.00444444  11 t-inv F
 -0.200000  0.066667  0.000000    0.00444444  12 t-inv F
 -0.266667  0.066667  0.000000    0.00444444  13 t-inv F
 -0.333333  0.066667  0.000000    0.00444444  14 t-inv F
 -0.400000  0.066667  0.000000    0.00444444  15 t-inv F
 -0.466667  0.066667  0.000000    0.00444444  16 t-inv F
 -0.066667  0.133333  0.000000    0.00444444  18 t-inv F
 -0.133333  0.133333  0.000000    0.00444444  19 t-inv F
 -0.200000  0.133333  0.000000    0.00444444  20 t-inv F
 -0.266667  0.133333  0.000000    0.00444444  21 t-inv F
 -0.333333  0.133333  0.000000    0.00444444  22 t-inv F
 -0.400000  0.133333  0.000000    0.00444444  23 t-inv F
 -0.466667  0.133333  0.000000    0.00444444  24 t-inv F
 -0.066667  0.200000  0.000000    0.00444444  26 t-inv F
 -0.133333  0.200000  0.000000    0.00444444  27 t-inv F
 -0.200000  0.200000  0.000000    0.00444444  28 t-inv F
 -0.266667  0.200000  0.000000    0.00444444  29 t-inv F
 -0.333333  0.200000  0.000000    0.00444444  30 t-inv F
 -0.400000  0.200000  0.000000    0.00444444  31 t-inv F
 -0.466667  0.200000  0.000000    0.00444444  32 t-inv F
 -0.066667  0.266667  0.000000    0.00444444  34 t-inv F
 -0.133333  0.266667  0.000000    0.00444444  35 t-inv F
 -0.200000  0.266667  0.000000    0.00444444  36 t-inv F
 -0.266667  0.266667  0.000000    0.00444444  37 t-inv F
 -0.333333  0.266667  0.000000    0.00444444  38 t-inv F
 -0.400000  0.266667  0.000000    0.00444444  39 t-inv F
 -0.466667  0.266667  0.000000    0.00444444  40 t-inv F
 -0.066667  0.333333  0.000000    0.00444444  42 t-inv F
 -0.133333  0.333333  0.000000    0.00444444  43 t-inv F
 -0.200000  0.333333  0.000000    0.00444444  44 t-inv F
 -0.266667  0.333333  0.000000    0.00444444  45 t-inv F
 -0.333333  0.333333  0.000000    0.00444444  46 t-inv F
 -0.400000  0.333333  0.000000    0.00444444  47 t-inv F
 -0.466667  0.333333  0.000000    0.00444444  48 t-inv F
 -0.066667  0.400000  0.000000    0.00444444  50 t-inv F
 -0.133333  0.400000  0.000000    0.00444444  51 t-inv F
 -0.200000  0.400000  0.000000    0.00444444  52 t-inv F
 -0.266667  0.400000  0.000000    0.00444444  53 t-inv F
 -0.333333  0.400000  0.000000    0.00444444  54 t-inv F
 -0.400000  0.400000  0.000000    0.00444444  55 t-inv F
 -0.466667  0.400000  0.000000    0.00444444  56 t-inv F
 -0.066667  0.466667  0.000000    0.00444444  58 t-inv F
 -0.133333  0.466667  0.000000    0.00444444  59 t-inv F
 -0.200000  0.466667  0.000000    0.00444444  60 t-inv F
 -0.266667  0.466667  0.000000    0.00444444  61 t-inv F
 -0.333333  0.466667  0.000000    0.00444444  62 t-inv F
 -0.400000  0.466667  0.000000    0.00444444  63 t-inv F
 -0.466667  0.466667  0.000000    0.00444444  64 t-inv F
  0.000000 -0.066667  0.000000    0.00444444   9 t-inv T
 -0.066667 -0.066667  0.000000    0.00444444  10 t-inv T
  0.066667 -0.066667  0.000000    0.00444444  10 t-inv T
 -0.133333 -0.066667  0.000000    0.00444444  11 t-inv T
  0.133333 -0.066667  0.000000    0.00444444  11 t-inv T
 -0.200000 -0.066667  0.000000    0.00444444  12 t-inv T
  0.200000 -0.066667  0.000000    0.00444444  12 t-inv T
 -0.266667 -0.066667  0.000000    0.00444444  13 t-inv T
  0.266667 -0.066667  0.000000    0.00444444  13 t-inv T
 -0.333333 -0.066667  0.000000    0.00444444  14 t-inv T
  0.333333 -0.066667  0.000000    0.00444444  14 t-inv T
 -0.400000 -0.066667  0.000000    0.00444444  15 t-inv T
  0.400000 -0.066667  0.000000    0.00444444  15 t-inv T
 -0.466667 -0.066667  0.000000    0.00444444  16 t-inv T
  0.466667 -0.066667  0.000000    0.00444444  16 t-inv T
  0.000000 -0.133333  0.000000    0.00444444  17 t-inv T
 -0.066667 -0.133333  0.000000    0.00444444  18 t-inv T
  0.066667 -0.133333  0.000000    0.00444444  18 t-inv T
 -0.133333 -0.133333  0.000000    0.00444444  19 t-inv T
  0.133333 -0.133333  0.000000    0.00444444  19 t-inv T
 -0.200000 -0.133333  0.000000    0.00444444  20 t-inv T
  0.200000 -0.133333  0.000000    0.00444444  20 t-inv T
 -0.266667 -0.133333  0.000000    0.00444444  21 t-inv T
  0.266667 -0.133333  0.000000    0.00444444  21 t-inv T
 -0.333333 -0.133333  0.000000    0.00444444  22 t-inv T
  0.333333 -0.133333  0.000000    0.00444444  22 t-inv T
 -0.400000 -0.133333  0.000000    0.00444444  23 t-inv T
  0.400000 -0.133333  0.000000    0.00444444  23 t-inv T
 -0.466667 -0.133333  0.000000    0.00444444  24 t-inv T
  0.466667 -0.133333  0.000000    0.00444444  24 t-inv T
  0.000000 -0.200000  0.000000    0.00444444  25 t-inv T
 -0.066667 -0.200000  0.000000    0.00444444  26 t-inv T
  0.066667 -0.200000  0.000000    0.00444444  26 t-inv T
 -0.133333 -0.200000  0.000000    0.00444444  27 t-inv T
  0.133333 -0.200000  0.000000    0.00444444  27 t-inv T
 -0.200000 -0.200000  0.000000    0.00444444  28 t-inv T
  0.200000 -0.200000  0.000000    0.00444444  28 t-inv T
 -0.266667 -0.200000  0.000000    0.00444444  29 t-inv T
  0.266667 -0.200000  0.000000    0.00444444  29 t-inv T
 -0.333333 -0.200000  0.000000    0.00444444  30 t-inv T
  0.333333 -0.200000  0.000000    0.00444444  30 t-inv T
 -0.400000 -0.200000  0.000000    0.00444444  31 t-inv T
  0.400000 -0.200000  0.000000    0.00444444  31 t-inv T
 -0.466667 -0.200000  0.000000    0.00444444  32 t-inv T
  0.466667 -0.200000  0.000000    0.00444444  32 t-inv T
  0.000000 -0.266667  0.000000    0.00444444  33 t-inv T
 -0.066667 -0.266667  0.000000    0.00444444  34 t-inv T
  0.066667 -0.266667  0.000000    0.00444444  34 t-inv T
 -0.133333 -0.266667  0.000000    0.00444444  35 t-inv T
  0.133333 -0.266667  0.000000    0.00444444  35 t-inv T
 -0.200000 -0.266667  0.000000    0.00444444  36 t-inv T
  0.200000 -0.266667  0.000000    0.00444444  36 t-inv T
 -0.266667 -0.266667  0.000000    0.00444444  37 t-inv T
  0.266667 -0.266667  0.000000    0.00444444  37 t-inv T
 -0.333333 -0.266667  0.000000    0.00444444  38 t-inv T
  0.333333 -0.266667  0.000000    0.00444444  38 t-inv T
 -0.400000 -0.266667  0.000000    0.00444444  39 t-inv T
  0.400000 -0.266667  0.000000    0.00444444  39 t-inv T
 -0.466667 -0.266667  0.000000    0.00444444  40 t-inv T
  0.466667 -0.266667  0.000000    0.00444444  40 t-inv T
  0.000000 -0.333333  0.000000    0.00444444  41 t-inv T
 -0.066667 -0.333333  0.000000    0.00444444  42 t-inv T
  0.066667 -0.333333  0.000000    0.00444444  42 t-inv T
 -0.133333 -0.333333  0.000000    0.00444444  43 t-inv T
  0.133333 -0.333333  0.000000    0.00444444  43 t-inv T
 -0.200000 -0.333333  0.000000    0.00444444  44 t-inv T
  0.200000 -0.333333  0.000000    0.00444444  44 t-inv T
 -0.266667 -0.333333  0.000000    0.00444444  45 t-inv T
  0.266667 -0.333333  0.000000    0.00444444  45 t-inv T
 -0.333333 -0.333333  0.000000    0.00444444  46 t-inv T
  0.333333 -0.333333  0.000000    0.00444444  46 t-inv T
 -0.400000 -0.333333  0.000000    0.00444444  47 t-inv T
  0.400000 -0.333333  0.000000    0.00444444  47 t-inv T
 -0.466667 -0.333333  0.000000    0.00444444  48 t-inv T
  0.466667 -0.333333  0.000000    0.00444444  48 t-inv T
  0.000000 -0.400000  0.000000    0.00444444  49 t-inv T
 -0.066667 -0.400000  0.000000    0.00444444  50 t-inv T
  0.066667 -0.400000  0.000000    0.00444444  50 t-inv T
 -0.133333 -0.400000  0.000000    0.00444444  51 t-inv T
  0.133333 -0.400000  0.000000    0.00444444  51 t-inv T
 -0.200000 -0.400000  0.000000    0.00444444  52 t-inv T
  0.200000 -0.400000  0.000000    0.00444444  52 t-inv T
 -0.266667 -0.400000  0.000000    0.00444444  53 t-inv T
  0.266667 -0.400000  0.000000    0.00444444  53 t-inv T
 -0.333333 -0.400000  0.000000    0.00444444  54 t-inv T
  0.333333 -0.400000  0.000000    0.00444444  54 t-inv T
 -0.400000 -0.400000  0.000000    0.00444444  55 t-inv T
  0.400000 -0.400000  0.000000    0.00444444  55 t-inv T
 -0.466667 -0.400000  0.000000    0.00444444  56 t-inv T
  0.466667 -0.400000  0.000000    0.00444444  56 t-inv T
  0.000000 -0.466667  0.000000    0.00444444  57 t-inv T
 -0.066667 -0.466667  0.000000    0.00444444  58 t-inv T
  0.066667 -0.466667  0.000000    0.00444444  58 t-inv T
 -0.133333 -0.466667  0.000000    0.00444444  59 t-inv T
  0.133333 -0.466667  0.000000    0.00444444  59 t-inv T
 -0.200000 -0.466667  0.000000    0.00444444  60 t-inv T
  0.200000 -0.466667  0.000000    0.00444444  60 t-inv T
 -0.266667 -0.466667  0.000000    0.00444444  61 t-inv T
  0.266667 -0.466667  0.000000    0.00444444  61 t-inv T
 -0.333333 -0.466667  0.000000    0.00444444  62 t-inv T
  0.333333 -0.466667  0.000000    0.00444444  62 t-inv T
 -0.400000 -0.466667  0.000000    0.00444444  63 t-inv T
  0.400000 -0.466667  0.000000    0.00444444  63 t-inv T
 -0.466667 -0.466667  0.000000    0.00444444  64 t-inv T
  0.466667 -0.466667  0.000000    0.00444444  64 t-inv T


--------------------------------------------------------------------------------------------------------




 Dimension of arrays:
   k-points           NKPTS =     64   k-points in BZ     NKDIM =     64   number of bands    NBANDS=     24
   number of dos      NEDOS =    301   number of ions     NIONS =      4
   non local maximal  LDIM  =      5   non local SUM 2l+1 LMDIM =     13
   total plane-waves  NPLWV = 207360
   max r-space proj   IRMAX =      1   max aug-charges    IRDMAX=  53247
   dimension x,y,z NGX =    36 NGY =   36 NGZ =  160
   dimension x,y,z NGXF=    72 NGYF=   72 NGZF=  320
   support grid    NGXF=    72 NGYF=   72 NGZF=  320
   ions per type =               2   2
   NGX,Y,Z   is equivalent  to a cutoff of  13.94, 13.66, 13.30 a.u.
   NGXF,Y,Z  is equivalent  to a cutoff of  27.89, 27.31, 26.60 a.u.

 SYSTEM =  SnSe                                    
 POSCAR =   SnSe-Monolayer                         

 Startparameter for this run:
   NWRITE =      2    write-flag & timer
   PREC   = accura    normal or accurate (medium, high low for compatibility)
   ISTART =      1    job   : 0-new  1-cont  2-samecut
   ICHARG =      1    charge: 1-file 2-atom 10-const
   ISPIN  =      1    spin polarized calculation?
   LNONCOLLINEAR =      F non collinear calculations
   LSORBIT =      F    spin-orbit coupling
   INIWAV =      1    electr: 0-lowe 1-rand  2-diag
   LASPH  =      F    aspherical Exc in radial PAW
   METAGGA=      F    non-selfconsistent MetaGGA calc.

 Electronic Relaxation 1
   ENCUT  =  600.0 eV  44.10 Ry    6.64 a.u.   8.57  8.75 39.94*2*pi/ulx,y,z
   ENINI  =  600.0     initial cutoff
   ENAUG  =  446.8 eV  augmentation charge cutoff
   NELM   =     60;   NELMIN=  2; NELMDL=  0     # of ELM steps 
   EDIFF  = 0.1E-05   stopping-criterion for ELM
   LREAL  =      F    real-space projection
   NLSPLINE    = F    spline interpolate recip. space projectors
   LCOMPAT=      F    compatible to vasp.4.4
   GGA_COMPAT  = T    GGA compatible to vasp.4.4-vasp.4.6
   LMAXPAW     = -100 max onsite density
   LMAXMIX     =    2 max onsite mixed and CHGCAR
   VOSKOWN=      0    Vosko Wilk Nusair interpolation
   ROPT   =    0.00000   0.00000
 Ionic relaxation
   EDIFFG = -.1E-02   stopping-criterion for IOM
   NSW    =      0    number of steps for IOM
   NBLOCK =      1;   KBLOCK =      1    inner block; outer block 
   IBRION =     -1    ionic relax: 0-MD 1-quasi-New 2-CG
   NFREE  =      0    steps in history (QN), initial steepest desc. (CG)
   ISIF   =      2    stress and relaxation
   IWAVPR =     10    prediction:  0-non 1-charg 2-wave 3-comb
   ISYM   =      2    0-nonsym 1-usesym 2-fastsym
   LCORR  =      T    Harris-Foulkes like correction to forces

   POTIM  = 0.5000    time-step for ionic-motion
   TEIN   =    0.0    initial temperature
   TEBEG  =    0.0;   TEEND  =   0.0 temperature during run
   SMASS  =  -3.00    Nose mass-parameter (am)
   estimated Nose-frequenzy (Omega)   =  0.10E-29 period in steps =****** mass=  -0.421E-27a.u.
   SCALEE = 1.0000    scale energy and forces
   NPACO  =    256;   APACO  = 16.0  distance and # of slots for P.C.
   PSTRESS=    0.0 pullay stress

  Mass of Ions in am
   POMASS = 118.71 78.96
  Ionic Valenz
   ZVAL   =   4.00  6.00
  Atomic Wigner-Seitz radii
   RWIGS  =  -1.00 -1.00
  virtual crystal weights 
   VCA    =   1.00  1.00
   NELECT =      20.0000    total number of electrons
   NUPDOWN=      -1.0000    fix difference up-down

 DOS related values:
   EMIN   =  10.00;   EMAX   =-10.00  energy-range for DOS
   EFERMI =   0.00
   ISMEAR =     0;   SIGMA  =   0.10  broadening in eV -4-tet -1-fermi 0-gaus

 Electronic relaxation 2 (details)
   IALGO  =     38    algorithm
   LDIAG  =      T    sub-space diagonalisation (order eigenvalues)
   LSUBROT=      F    optimize rotation matrix (better conditioning)
   TURBO    =      0    0=normal 1=particle mesh
   IRESTART =      0    0=no restart 2=restart with 2 vectors
   NREBOOT  =      0    no. of reboots
   NMIN     =      0    reboot dimension
   EREF     =   0.00    reference energy to select bands
   IMIX   =      4    mixing-type and parameters
     AMIX     =   0.40;   BMIX     =  1.00
     AMIX_MAG =   1.60;   BMIX_MAG =  1.00
     AMIN     =   0.10
     WC   =   100.;   INIMIX=   1;  MIXPRE=   1;  MAXMIX= -45

 Intra band minimization:
   WEIMIN = 0.0000     energy-eigenvalue tresh-hold
   EBREAK =  0.10E-07  absolut break condition
   DEPER  =   0.30     relativ break condition  

   TIME   =   0.40     timestep for ELM

  volume/ion in A,a.u.               =      94.06       634.72
  Fermi-wavevector in a.u.,A,eV,Ry     =   0.615559  1.163238  5.155420  0.378913
  Thomas-Fermi vector in A             =   1.672972
 
 Write flags
   LWAVE        =      T    write WAVECAR
   LDOWNSAMPLE  =      F    k-point downsampling of WAVECAR
   LCHARG       =      T    write CHGCAR
   LVTOT        =      F    write LOCPOT, total local potential
   LVHAR        =      F    write LOCPOT, Hartree potential only
   LELF         =      F    write electronic localiz. function (ELF)
   LORBIT       =      0    0 simple, 1 ext, 2 COOP (PROOUT), +10 PAW based schemes


 Dipole corrections
   LMONO  =      F    monopole corrections only (constant potential shift)
   LDIPOL =      F    correct potential (dipole corrections)
   IDIPOL =      0    1-x, 2-y, 3-z, 4-all directions 
   EPSILON=  1.0000000 bulk dielectric constant

 Exchange correlation treatment:
   GGA     =    PE    GGA type
   LEXCH   =     8    internal setting for exchange type
   VOSKOWN=      0    Vosko Wilk Nusair interpolation
   LHFCALC =     F    Hartree Fock is set to
   LHFONE  =     F    Hartree Fock one center treatment
   AEXX    =    0.0000 exact exchange contribution

 Linear response parameters
   LEPSILON=     F    determine dielectric tensor
   LRPA    =     F    only Hartree local field effects (RPA)
   LNABLA  =     F    use nabla operator in PAW spheres
   LVEL    =     F    velocity operator in full k-point grid
   LINTERFAST=   F  fast interpolation
   KINTER  =     0    interpolate to denser k-point grid
   CSHIFT  =0.1000    complex shift for real part using Kramers Kronig
   OMEGAMAX=  -1.0    maximum frequency
   DEG_THRESHOLD= 0.2000000E-02 threshold for treating states as degnerate
   RTIME   =   -0.100 relaxation time in fs
  (WPLASMAI=    0.000 imaginary part of plasma frequency in eV, 0.658/RTIME)
   DFIELD  = 0.0000000 0.0000000 0.0000000 field for delta impulse in time
 
 Orbital magnetization related:
   ORBITALMAG=     F  switch on orbital magnetization
   LCHIMAG   =     F  perturbation theory with respect to B field
   DQ        =  0.001000  dq finite difference perturbation B field
   LLRAUG    =     F  two centre corrections for induced B field

 PEAD related settings:
   LPEAD      =     T    switch on PEAD
   IPEAD      =     4    finite difference order for dpsi/dk
   LCALCPOL   =     T    calculate macroscopic polarization
   LCALCEPS   =     F    calculate dielectric tensor
   EFIELD_PEAD=    0.0000    0.0000    0.0000
   SKIP_EDOTP =     F
   LRPA       =     F
   SKIP_SCF   =     F


--------------------------------------------------------------------------------------------------------


 Static calculation
 charge density and potential will be updated during run
 non-spin polarized calculation
 Variant of blocked Davidson
 Davidson routine will perform the subspace rotation
 perform sub-space diagonalisation
    after iterative eigenvector-optimisation
 modified Broyden-mixing scheme, WC =      100.0
 initial mixing is a Kerker type mixing with AMIX =  0.4000 and BMIX =      1.0000
 Hartree-type preconditioning will be used
 using additional bands           14
 reciprocal scheme for non local part
 use partial core corrections
 calculate Harris-corrections to forces 
   (improved forces if not selfconsistent)
 use gradient corrections 
 use of overlap-Matrix (Vanderbilt PP)
 Gauss-broadening in eV      SIGMA  =   0.10


--------------------------------------------------------------------------------------------------------


  energy-cutoff  :      600.00
  volume of cell :      376.22
      direct lattice vectors                 reciprocal lattice vectors
     4.292477857  0.000000000  0.000000000     0.232965675  0.000000000  0.000000000
     0.000000000  4.382356765  0.000000000     0.000000000  0.228187720  0.000000000
     0.000000000  0.000000000 20.000000000     0.000000000  0.000000000  0.050000000

  length of vectors
     4.292477857  4.382356765 20.000000000     0.232965675  0.228187720  0.050000000


 
 old parameters found on file WAVECAR:
  energy-cutoff  :      600.00
  volume of cell :      376.22
      direct lattice vectors                 reciprocal lattice vectors
     4.292477857  0.000000000  0.000000000     0.232965675  0.000000000  0.000000000
     0.000000000  4.382356765  0.000000000     0.000000000  0.228187720  0.000000000
     0.000000000  0.000000000 20.000000000     0.000000000  0.000000000  0.050000000

  length of vectors

 
 k-points in units of 2pi/SCALE and weight: Automatic                               
   0.00000000  0.00000000  0.00000000       0.004
   0.01553104  0.00000000  0.00000000       0.009
   0.03106209  0.00000000  0.00000000       0.009
   0.04659313  0.00000000  0.00000000       0.009
   0.06212418  0.00000000  0.00000000       0.009
   0.07765522  0.00000000  0.00000000       0.009
   0.09318627  0.00000000  0.00000000       0.009
   0.10871731  0.00000000  0.00000000       0.009
   0.00000000  0.01521251  0.00000000       0.009
   0.01553104  0.01521251  0.00000000       0.018
   0.03106209  0.01521251  0.00000000       0.018
   0.04659313  0.01521251  0.00000000       0.018
   0.06212418  0.01521251  0.00000000       0.018
   0.07765522  0.01521251  0.00000000       0.018
   0.09318627  0.01521251  0.00000000       0.018
   0.10871731  0.01521251  0.00000000       0.018
   0.00000000  0.03042503  0.00000000       0.009
   0.01553104  0.03042503  0.00000000       0.018
   0.03106209  0.03042503  0.00000000       0.018
   0.04659313  0.03042503  0.00000000       0.018
   0.06212418  0.03042503  0.00000000       0.018
   0.07765522  0.03042503  0.00000000       0.018
   0.09318627  0.03042503  0.00000000       0.018
   0.10871731  0.03042503  0.00000000       0.018
   0.00000000  0.04563754  0.00000000       0.009
   0.01553104  0.04563754  0.00000000       0.018
   0.03106209  0.04563754  0.00000000       0.018
   0.04659313  0.04563754  0.00000000       0.018
   0.06212418  0.04563754  0.00000000       0.018
   0.07765522  0.04563754  0.00000000       0.018
   0.09318627  0.04563754  0.00000000       0.018
   0.10871731  0.04563754  0.00000000       0.018
   0.00000000  0.06085006  0.00000000       0.009
   0.01553104  0.06085006  0.00000000       0.018
   0.03106209  0.06085006  0.00000000       0.018
   0.04659313  0.06085006  0.00000000       0.018
   0.06212418  0.06085006  0.00000000       0.018
   0.07765522  0.06085006  0.00000000       0.018
   0.09318627  0.06085006  0.00000000       0.018
   0.10871731  0.06085006  0.00000000       0.018
   0.00000000  0.07606257  0.00000000       0.009
   0.01553104  0.07606257  0.00000000       0.018
   0.03106209  0.07606257  0.00000000       0.018
   0.04659313  0.07606257  0.00000000       0.018
   0.06212418  0.07606257  0.00000000       0.018
   0.07765522  0.07606257  0.00000000       0.018
   0.09318627  0.07606257  0.00000000       0.018
   0.10871731  0.07606257  0.00000000       0.018
   0.00000000  0.09127509  0.00000000       0.009
   0.01553104  0.09127509  0.00000000       0.018
   0.03106209  0.09127509  0.00000000       0.018
   0.04659313  0.09127509  0.00000000       0.018
   0.06212418  0.09127509  0.00000000       0.018
   0.07765522  0.09127509  0.00000000       0.018
   0.09318627  0.09127509  0.00000000       0.018
   0.10871731  0.09127509  0.00000000       0.018
   0.00000000  0.10648760  0.00000000       0.009
   0.01553104  0.10648760  0.00000000       0.018
   0.03106209  0.10648760  0.00000000       0.018
   0.04659313  0.10648760  0.00000000       0.018
   0.06212418  0.10648760  0.00000000       0.018
   0.07765522  0.10648760  0.00000000       0.018
   0.09318627  0.10648760  0.00000000       0.018
   0.10871731  0.10648760  0.00000000       0.018
 
 k-points in reciprocal lattice and weights: Automatic                               
   0.00000000  0.00000000  0.00000000       0.004
   0.06666667  0.00000000  0.00000000       0.009
   0.13333333  0.00000000  0.00000000       0.009
   0.20000000  0.00000000  0.00000000       0.009
   0.26666667  0.00000000  0.00000000       0.009
   0.33333333  0.00000000  0.00000000       0.009
   0.40000000  0.00000000  0.00000000       0.009
   0.46666667  0.00000000  0.00000000       0.009
   0.00000000  0.06666667  0.00000000       0.009
   0.06666667  0.06666667  0.00000000       0.018
   0.13333333  0.06666667  0.00000000       0.018
   0.20000000  0.06666667  0.00000000       0.018
   0.26666667  0.06666667  0.00000000       0.018
   0.33333333  0.06666667  0.00000000       0.018
   0.40000000  0.06666667  0.00000000       0.018
   0.46666667  0.06666667  0.00000000       0.018
   0.00000000  0.13333333  0.00000000       0.009
   0.06666667  0.13333333  0.00000000       0.018
   0.13333333  0.13333333  0.00000000       0.018
   0.20000000  0.13333333  0.00000000       0.018
   0.26666667  0.13333333  0.00000000       0.018
   0.33333333  0.13333333  0.00000000       0.018
   0.40000000  0.13333333  0.00000000       0.018
   0.46666667  0.13333333  0.00000000       0.018
   0.00000000  0.20000000  0.00000000       0.009
   0.06666667  0.20000000  0.00000000       0.018
   0.13333333  0.20000000  0.00000000       0.018
   0.20000000  0.20000000  0.00000000       0.018
   0.26666667  0.20000000  0.00000000       0.018
   0.33333333  0.20000000  0.00000000       0.018
   0.40000000  0.20000000  0.00000000       0.018
   0.46666667  0.20000000  0.00000000       0.018
   0.00000000  0.26666667  0.00000000       0.009
   0.06666667  0.26666667  0.00000000       0.018
   0.13333333  0.26666667  0.00000000       0.018
   0.20000000  0.26666667  0.00000000       0.018
   0.26666667  0.26666667  0.00000000       0.018
   0.33333333  0.26666667  0.00000000       0.018
   0.40000000  0.26666667  0.00000000       0.018
   0.46666667  0.26666667  0.00000000       0.018
   0.00000000  0.33333333  0.00000000       0.009
   0.06666667  0.33333333  0.00000000       0.018
   0.13333333  0.33333333  0.00000000       0.018
   0.20000000  0.33333333  0.00000000       0.018
   0.26666667  0.33333333  0.00000000       0.018
   0.33333333  0.33333333  0.00000000       0.018
   0.40000000  0.33333333  0.00000000       0.018
   0.46666667  0.33333333  0.00000000       0.018
   0.00000000  0.40000000  0.00000000       0.009
   0.06666667  0.40000000  0.00000000       0.018
   0.13333333  0.40000000  0.00000000       0.018
   0.20000000  0.40000000  0.00000000       0.018
   0.26666667  0.40000000  0.00000000       0.018
   0.33333333  0.40000000  0.00000000       0.018
   0.40000000  0.40000000  0.00000000       0.018
   0.46666667  0.40000000  0.00000000       0.018
   0.00000000  0.46666667  0.00000000       0.009
   0.06666667  0.46666667  0.00000000       0.018
   0.13333333  0.46666667  0.00000000       0.018
   0.20000000  0.46666667  0.00000000       0.018
   0.26666667  0.46666667  0.00000000       0.018
   0.33333333  0.46666667  0.00000000       0.018
   0.40000000  0.46666667  0.00000000       0.018
   0.46666667  0.46666667  0.00000000       0.018
 
 position of ions in fractional coordinates (direct lattice) 
   0.75000000  0.58124336  0.56874314
   0.25000000  0.08124336  0.43125686
   0.25000000  0.03286064  0.56707387
   0.75000000  0.53286061  0.43292613
 
 position of ions in cartesian coordinates  (Angst):
   3.21935839  2.54721576 11.37486283
   1.07311946  0.35603738  8.62513717
   1.07311946  0.14400706 11.34147733
   3.21935839  2.33518532  8.65852267
 


--------------------------------------------------------------------------------------------------------


 k-point  1 :   0.0000 0.0000 0.0000  plane waves:   12651
 k-point  2 :   0.0667 0.0000 0.0000  plane waves:   12585
 k-point  3 :   0.1333 0.0000 0.0000  plane waves:   12571
 k-point  4 :   0.2000 0.0000 0.0000  plane waves:   12573
 k-point  5 :   0.2667 0.0000 0.0000  plane waves:   12565
 k-point  6 :   0.3333 0.0000 0.0000  plane waves:   12535
 k-point  7 :   0.4000 0.0000 0.0000  plane waves:   12509
 k-point  8 :   0.4667 0.0000 0.0000  plane waves:   12528
 k-point  9 :   0.0000 0.0667 0.0000  plane waves:   12591
 k-point 10 :   0.0667 0.0667 0.0000  plane waves:   12588
 k-point 11 :   0.1333 0.0667 0.0000  plane waves:   12574
 k-point 12 :   0.2000 0.0667 0.0000  plane waves:   12559
 k-point 13 :   0.2667 0.0667 0.0000  plane waves:   12552
 k-point 14 :   0.3333 0.0667 0.0000  plane waves:   12531
 k-point 15 :   0.4000 0.0667 0.0000  plane waves:   12532
 k-point 16 :   0.4667 0.0667 0.0000  plane waves:   12532
 k-point 17 :   0.0000 0.1333 0.0000  plane waves:   12573
 k-point 18 :   0.0667 0.1333 0.0000  plane waves:   12570
 k-point 19 :   0.1333 0.1333 0.0000  plane waves:   12547
 k-point 20 :   0.2000 0.1333 0.0000  plane waves:   12566
 k-point 21 :   0.2667 0.1333 0.0000  plane waves:   12557
 k-point 22 :   0.3333 0.1333 0.0000  plane waves:   12534
 k-point 23 :   0.4000 0.1333 0.0000  plane waves:   12546
 k-point 24 :   0.4667 0.1333 0.0000  plane waves:   12532
 k-point 25 :   0.0000 0.2000 0.0000  plane waves:   12533
 k-point 26 :   0.0667 0.2000 0.0000  plane waves:   12558
 k-point 27 :   0.1333 0.2000 0.0000  plane waves:   12534
 k-point 28 :   0.2000 0.2000 0.0000  plane waves:   12557
 k-point 29 :   0.2667 0.2000 0.0000  plane waves:   12559
 k-point 30 :   0.3333 0.2000 0.0000  plane waves:   12555
 k-point 31 :   0.4000 0.2000 0.0000  plane waves:   12535
 k-point 32 :   0.4667 0.2000 0.0000  plane waves:   12540
 k-point 33 :   0.0000 0.2667 0.0000  plane waves:   12532
 k-point 34 :   0.0667 0.2667 0.0000  plane waves:   12557
 k-point 35 :   0.1333 0.2667 0.0000  plane waves:   12545
 k-point 36 :   0.2000 0.2667 0.0000  plane waves:   12546
 k-point 37 :   0.2667 0.2667 0.0000  plane waves:   12561
 k-point 38 :   0.3333 0.2667 0.0000  plane waves:   12542
 k-point 39 :   0.4000 0.2667 0.0000  plane waves:   12550
 k-point 40 :   0.4667 0.2667 0.0000  plane waves:   12520
 k-point 41 :   0.0000 0.3333 0.0000  plane waves:   12570
 k-point 42 :   0.0667 0.3333 0.0000  plane waves:   12570
 k-point 43 :   0.1333 0.3333 0.0000  plane waves:   12574
 k-point 44 :   0.2000 0.3333 0.0000  plane waves:   12549
 k-point 45 :   0.2667 0.3333 0.0000  plane waves:   12557
 k-point 46 :   0.3333 0.3333 0.0000  plane waves:   12540
 k-point 47 :   0.4000 0.3333 0.0000  plane waves:   12535
 k-point 48 :   0.4667 0.3333 0.0000  plane waves:   12531
 k-point 49 :   0.0000 0.4000 0.0000  plane waves:   12602
 k-point 50 :   0.0667 0.4000 0.0000  plane waves:   12590
 k-point 51 :   0.1333 0.4000 0.0000  plane waves:   12579
 k-point 52 :   0.2000 0.4000 0.0000  plane waves:   12562
 k-point 53 :   0.2667 0.4000 0.0000  plane waves:   12559
 k-point 54 :   0.3333 0.4000 0.0000  plane waves:   12552
 k-point 55 :   0.4000 0.4000 0.0000  plane waves:   12527
 k-point 56 :   0.4667 0.4000 0.0000  plane waves:   12516
 k-point 57 :   0.0000 0.4667 0.0000  plane waves:   12578
 k-point 58 :   0.0667 0.4667 0.0000  plane waves:   12590
 k-point 59 :   0.1333 0.4667 0.0000  plane waves:   12576
 k-point 60 :   0.2000 0.4667 0.0000  plane waves:   12574
 k-point 61 :   0.2667 0.4667 0.0000  plane waves:   12567
 k-point 62 :   0.3333 0.4667 0.0000  plane waves:   12557
 k-point 63 :   0.4000 0.4667 0.0000  plane waves:   12541
 k-point 64 :   0.4667 0.4667 0.0000  plane waves:   12535

 maximum and minimum number of plane-waves per node :     12651    12509

 maximum number of plane-waves:     12651
 maximum index in each direction: 
   IXMAX=    8   IYMAX=    8   IZMAX=   39
   IXMIN=   -9   IYMIN=   -9   IZMIN=  -39


 serial   3D FFT for wavefunctions
 parallel 3D FFT for charge:
    minimum data exchange during FFTs selected (reduces bandwidth)


 total amount of memory used by VASP MPI-rank0   227965. kBytes
=======================================================================

   base      :      30000. kBytes
   nonl-proj :     169500. kBytes
   fftplans  :       3181. kBytes
   grid      :      12203. kBytes
   one-center:         32. kBytes
   wavefun   :      13049. kBytes
 
     INWAV:  cpu time    1.2293: real time    1.2293
 Broyden mixing: mesh for mixing (old mesh)
   NGX = 17   NGY = 17   NGZ = 79
  (NGX  = 72   NGY  = 72   NGZ  =320)
  gives a total of  22831 points

 initial charge density was supplied:
 number of electron      20.0000000 magnetization 
 keeping initial charge density in first step


--------------------------------------------------------------------------------------------------------


 Maximum index for augmentation-charges         2212 (set IRDMAX)


--------------------------------------------------------------------------------------------------------


 First call to EWALD:  gamma=   0.246
 Maximum number of real-space cells 4x 4x 1
 Maximum number of reciprocal cells 2x 2x 7

    FEWALD:  cpu time    0.0015: real time    0.0015


--------------------------------------- Iteration      1(   1)  ---------------------------------------


    POTLOK:  cpu time    0.0493: real time    0.0493
    SETDIJ:  cpu time    0.0039: real time    0.0039
     EDDAV:  cpu time    3.3054: real time    3.3056
       DOS:  cpu time    0.0007: real time    0.0007
    CHARGE:  cpu time    0.2125: real time    0.2125
    MIXING:  cpu time    0.0013: real time    0.0013
    --------------------------------------------
      LOOP:  cpu time    3.5731: real time    3.5733

 eigenvalue-minimisations  :  3072
 total energy-change (2. order) :-0.1626505E+02  (-0.1409665E-05)
 number of electron      20.0000000 magnetization 
 augmentation part       -4.4809300 magnetization 

 Broyden mixing:
  rms(total) = 0.11207E-03    rms(broyden)= 0.11207E-03
  rms(prec ) = 0.12075E-03
  weight for this iteration     100.00

 Free energy of the ion-electron system (eV)
  ---------------------------------------------------
  alpha Z        PSCENC =         9.50421754
  Ewald energy   TEWEN  =      1152.71885526
  -Hartree energ DENC   =     -1775.45396106
  -exchange      EXHF   =         0.00000000
  -V(xc)+E(xc)   XCENC  =      -237.57445464
  PAW double counting   =      1140.98690229     -866.09214048
  entropy T*S    EENTRO =        -0.00000000
  eigenvalues    EBANDS =      -142.78236793
  atomic energy  EATOM  =       702.42789710
  Solvation  Ediel_sol  =         0.00000000
  ---------------------------------------------------
  free energy    TOTEN  =       -16.26505191 eV

  energy without entropy =      -16.26505191  energy(sigma->0) =      -16.26505191


--------------------------------------------------------------------------------------------------------




--------------------------------------- Iteration      1(   2)  ---------------------------------------


    POTLOK:  cpu time    0.0441: real time    0.0441
    SETDIJ:  cpu time    0.0034: real time    0.0034
     EDDAV:  cpu time    4.8665: real time    4.8666
       DOS:  cpu time    0.0007: real time    0.0007
    CHARGE:  cpu time    0.2219: real time    0.2220
    MIXING:  cpu time    0.0013: real time    0.0013
    --------------------------------------------
      LOOP:  cpu time    5.1380: real time    5.1381

 eigenvalue-minimisations  :  4920
 total energy-change (2. order) : 0.6544857E-03  (-0.1427510E-05)
 number of electron      20.0000000 magnetization 
 augmentation part       -4.4809340 magnetization 

 Broyden mixing:
  rms(total) = 0.55177E-04    rms(broyden)= 0.55176E-04
  rms(prec ) = 0.59735E-04
  weight for this iteration     100.00

 eigenvalues of (default mixing * dielectric matrix)
  average eigenvalue GAMMA=   0.6783
  0.6783

 Free energy of the ion-electron system (eV)
  ---------------------------------------------------
  alpha Z        PSCENC =         9.50421754
  Ewald energy   TEWEN  =      1152.71885526
  -Hartree energ DENC   =     -1775.45399016
  -exchange      EXHF   =         0.00000000
  -V(xc)+E(xc)   XCENC  =      -237.57445321
  PAW double counting   =      1141.02791819     -866.13363338
  entropy T*S    EENTRO =        -0.00000000
  eigenvalues    EBANDS =      -142.78120878
  atomic energy  EATOM  =       702.42789710
  Solvation  Ediel_sol  =         0.00000000
  ---------------------------------------------------
  free energy    TOTEN  =       -16.26439742 eV

  energy without entropy =      -16.26439742  energy(sigma->0) =      -16.26439742


--------------------------------------------------------------------------------------------------------




--------------------------------------- Iteration      1(   3)  ---------------------------------------


    POTLOK:  cpu time    0.0514: real time    0.0514
    SETDIJ:  cpu time    0.0036: real time    0.0036
     EDDAV:  cpu time    4.7463: real time    4.7464
       DOS:  cpu time    0.0006: real time    0.0006
    --------------------------------------------
      LOOP:  cpu time    4.8019: real time    4.8020

 eigenvalue-minimisations  :  4344
 total energy-change (2. order) : 0.6049277E-09  (-0.7853528E-08)
 number of electron      20.0000000 magnetization 
 augmentation part       -4.4809340 magnetization 

 Free energy of the ion-electron system (eV)
  ---------------------------------------------------
  alpha Z        PSCENC =         9.50421754
  Ewald energy   TEWEN  =      1152.71885526
  -Hartree energ DENC   =     -1775.45405179
  -exchange      EXHF   =         0.00000000
  -V(xc)+E(xc)   XCENC  =      -237.57444247
  PAW double counting   =      1141.02337446     -866.12908010
  entropy T*S    EENTRO =        -0.00000000
  eigenvalues    EBANDS =      -142.78116743
  atomic energy  EATOM  =       702.42789710
  Solvation  Ediel_sol  =         0.00000000
  ---------------------------------------------------
  free energy    TOTEN  =       -16.26439742 eV

  energy without entropy =      -16.26439742  energy(sigma->0) =      -16.26439742


--------------------------------------------------------------------------------------------------------




 average (electrostatic) potential at core
  the test charge radii are     1.4072  1.0808
  (the norm of the test charge is              1.0000)
       1 -51.2572       2 -51.2572       3 -59.9439       4 -59.9439
 
 
 
 E-fermi :  -1.5397     XC(G=0):  -3.3384     alpha+bet : -2.6745


 k-point     1 :       0.0000    0.0000    0.0000
  band No.  band energies     occupation 
      1     -15.3158      2.00000
      2     -14.3227      2.00000
      3      -8.2570      2.00000
      4      -7.2798      2.00000
      5      -5.4185      2.00000
      6      -5.0717      2.00000
      7      -5.0304      2.00000
      8      -3.8444      2.00000
      9      -3.8377      2.00000
     10      -2.6130      2.00000
     11      -0.4694      0.00000
     12       1.3489      0.00000
     13       1.8026      0.00000
     14       1.9802      0.00000
     15       2.2482      0.00000
     16       2.6196      0.00000
     17       2.6682      0.00000
     18       3.1127      0.00000
     19       3.3561      0.00000
     20       3.6875      0.00000
     21       3.8976      0.00000
     22       4.4592      0.00000
     23       5.0753      0.00000
     24       5.3915      0.00000

 k-point     2 :       0.0667    0.0000    0.0000
  band No.  band energies     occupation 
      1     -15.2962      2.00000
      2     -14.3183      2.00000
      3      -8.3243      2.00000
      4      -7.3570      2.00000
      5      -5.4239      2.00000
      6      -5.0596      2.00000
      7      -4.9581      2.00000
      8      -3.8550      2.00000
      9      -3.7068      2.00000
     10      -2.6260      2.00000
     11      -0.4584      0.00000
     12       1.4255      0.00000
     13       1.7846      0.00000
     14       1.8058      0.00000
     15       2.0524      0.00000
     16       2.6499      0.00000
     17       2.7341      0.00000
     18       3.1545      0.00000
     19       3.3068      0.00000
     20       3.7046      0.00000
     21       3.9571      0.00000
     22       4.4785      0.00000
     23       5.1132      0.00000
     24       5.4713      0.00000

 k-point     3 :       0.1333    0.0000    0.0000
  band No.  band energies     occupation 
      1     -15.2384      2.00000
      2     -14.3074      2.00000
      3      -8.5021      2.00000
      4      -7.5732      2.00000
      5      -5.4100      2.00000
      6      -4.9837      2.00000
      7      -4.7961      2.00000
      8      -3.8018      2.00000
      9      -3.4433      2.00000
     10      -2.6699      2.00000
     11      -0.4194      0.00000
     12       1.2612      0.00000
     13       1.5317      0.00000
     14       1.5802      0.00000
     15       1.9994      0.00000
     16       2.7310      0.00000
     17       2.7685      0.00000
     18       2.7746      0.00000
     19       3.1919      0.00000
     20       3.3188      0.00000
     21       4.1705      0.00000
     22       4.5270      0.00000
     23       5.1988      0.00000
     24       5.3772      0.00000

 k-point     4 :       0.2000    0.0000    0.0000
  band No.  band energies     occupation 
      1     -15.1459      2.00000
      2     -14.2967      2.00000
      3      -8.7352      2.00000
      4      -7.8843      2.00000
      5      -5.3387      2.00000
      6      -4.8433      2.00000
      7      -4.5817      2.00000
      8      -3.7136      2.00000
      9      -3.0992      2.00000
     10      -2.7509      2.00000
     11      -0.3372      0.00000
     12       0.6103      0.00000
     13       1.0509      0.00000
     14       1.5495      0.00000
     15       2.0940      0.00000
     16       2.1925      0.00000
     17       2.7089      0.00000
     18       2.8912      0.00000
     19       3.2834      0.00000
     20       3.3785      0.00000
     21       4.5707      0.00000
     22       4.6252      0.00000
     23       5.1282      0.00000
     24       5.3532      0.00000

 k-point     5 :       0.2667    0.0000    0.0000
  band No.  band energies     occupation 
      1     -15.0245      2.00000
      2     -14.2965      2.00000
      3      -8.9648      2.00000
      4      -8.2353      2.00000
      5      -5.2027      2.00000
      6      -4.6498      2.00000
      7      -4.3503      2.00000
      8      -3.6170      2.00000
      9      -2.8557      2.00000
     10      -2.7182      2.00000
     11      -0.1968      0.00000
     12      -0.0416      0.00000
     13       0.5577      0.00000
     14       1.1883      0.00000
     15       1.5819      0.00000
     16       2.0829      0.00000
     17       2.6740      0.00000
     18       3.0997      0.00000
     19       3.4873      0.00000
     20       3.9421      0.00000
     21       4.5908      0.00000
     22       5.2108      0.00000
     23       5.4058      0.00000
     24       5.5779      0.00000

 k-point     6 :       0.3333    0.0000    0.0000
  band No.  band energies     occupation 
      1     -14.8830      2.00000
      2     -14.3188      2.00000
      3      -9.1420      2.00000
      4      -8.5776      2.00000
      5      -5.0122      2.00000
      6      -4.4218      2.00000
      7      -4.1606      2.00000
      8      -3.5493      2.00000
      9      -2.9215      2.00000
     10      -2.3402      2.00000
     11      -0.6292      0.00000
     12       0.0045      0.00000
     13       0.1604      0.00000
     14       0.6723      0.00000
     15       0.9883      0.00000
     16       1.8066      0.00000
     17       2.8712      0.00000
     18       3.3654      0.00000
     19       3.7801      0.00000
     20       4.5259      0.00000
     21       4.8442      0.00000
     22       5.3937      0.00000
     23       5.4730      0.00000
     24       5.9552      0.00000

 k-point     7 :       0.4000    0.0000    0.0000
  band No.  band energies     occupation 
      1     -14.7331      2.00000
      2     -14.3738      2.00000
      3      -9.2323      2.00000
      4      -8.8734      2.00000
      5      -4.7834      2.00000
      6      -4.2369      2.00000
      7      -4.0548      2.00000
      8      -3.5556      2.00000
      9      -2.8351      2.00000
     10      -2.0865      2.00000
     11      -1.0116      0.00000
     12      -0.0641      0.00000
     13       0.0444      0.00000
     14       0.3374      0.00000
     15       0.5000      0.00000
     16       1.4221      0.00000
     17       3.2020      0.00000
     18       3.6724      0.00000
     19       4.1386      0.00000
     20       4.4735      0.00000
     21       5.0937      0.00000
     22       5.2892      0.00000
     23       5.7608      0.00000
     24       6.1283      0.00000

 k-point     8 :       0.4667    0.0000    0.0000
  band No.  band energies     occupation 
      1     -14.5890      2.00000
      2     -14.4654      2.00000
      3      -9.2170      2.00000
      4      -9.0936      2.00000
      5      -4.5393      2.00000
      6      -4.3208      2.00000
      7      -3.8585      2.00000
      8      -3.6643      2.00000
      9      -2.5646      2.00000
     10      -2.2242      2.00000
     11      -0.9019      0.00000
     12      -0.4648      0.00000
     13      -0.0731      0.00000
     14       0.1252      0.00000
     15       0.6486      0.00000
     16       1.0228      0.00000
     17       3.5899      0.00000
     18       3.8825      0.00000
     19       4.3040      0.00000
     20       4.4606      0.00000
     21       4.7532      0.00000
     22       5.0454      0.00000
     23       5.7487      0.00000
     24       5.9709      0.00000

 k-point     9 :       0.0000    0.0667    0.0000
  band No.  band energies     occupation 
      1     -15.2976      2.00000
      2     -14.3205      2.00000
      3      -8.3265      2.00000
      4      -7.3608      2.00000
      5      -5.4211      2.00000
      6      -5.0015      2.00000
      7      -4.9998      2.00000
      8      -3.8235      2.00000
      9      -3.7272      2.00000
     10      -2.6308      2.00000
     11      -0.4581      0.00000
     12       1.4000      0.00000
     13       1.6776      0.00000
     14       1.9135      0.00000
     15       2.0736      0.00000
     16       2.6478      0.00000
     17       2.6972      0.00000
     18       3.1270      0.00000
     19       3.2360      0.00000
     20       3.6049      0.00000
     21       4.0095      0.00000
     22       4.4674      0.00000
     23       5.1050      0.00000
     24       5.3182      0.00000

 k-point    10 :       0.0667    0.0667    0.0000
  band No.  band energies     occupation 
      1     -15.2781      2.00000
      2     -14.3160      2.00000
      3      -8.3827      2.00000
      4      -7.4291      2.00000
      5      -5.4183      2.00000
      6      -5.1581      2.00000
      7      -4.7702      2.00000
      8      -3.9311      2.00000
      9      -3.5195      2.00000
     10      -2.6409      2.00000
     11      -0.4453      0.00000
     12       1.3968      0.00000
     13       1.4670      0.00000
     14       1.8892      0.00000
     15       2.0948      0.00000
     16       2.6782      0.00000
     17       2.7215      0.00000
     18       2.8720      0.00000
     19       3.1498      0.00000
     20       3.7015      0.00000
     21       4.0953      0.00000
     22       4.4917      0.00000
     23       5.1367      0.00000
     24       5.1784      0.00000

 k-point    11 :       0.1333    0.0667    0.0000
  band No.  band energies     occupation 
      1     -15.2208      2.00000
      2     -14.3050      2.00000
      3      -8.5355      2.00000
      4      -7.6233      2.00000
      5      -5.3930      2.00000
      6      -5.2178      2.00000
      7      -4.5020      2.00000
      8      -3.9692      2.00000
      9      -3.2112      2.00000
     10      -2.6745      2.00000
     11      -0.4019      0.00000
     12       0.8248      0.00000
     13       1.5549      0.00000
     14       1.8113      0.00000
     15       2.0397      0.00000
     16       2.4097      0.00000
     17       2.7393      0.00000
     18       2.7724      0.00000
     19       3.1962      0.00000
     20       3.7019      0.00000
     21       4.3399      0.00000
     22       4.5345      0.00000
     23       4.9557      0.00000
     24       5.2312      0.00000

 k-point    12 :       0.2000    0.0667    0.0000
  band No.  band energies     occupation 
      1     -15.1291      2.00000
      2     -14.2940      2.00000
      3      -8.7433      2.00000
      4      -7.9099      2.00000
      5      -5.3181      2.00000
      6      -5.1743      2.00000
      7      -4.2323      2.00000
      8      -3.9216      2.00000
      9      -2.8898      2.00000
     10      -2.7333      2.00000
     11      -0.3161      0.00000
     12       0.2233      0.00000
     13       1.2689      0.00000
     14       1.4240      0.00000
     15       2.1152      0.00000
     16       2.2297      0.00000
     17       2.6941      0.00000
     18       2.9238      0.00000
     19       3.3097      0.00000
     20       3.6737      0.00000
     21       4.4974      0.00000
     22       4.7543      0.00000
     23       4.9337      0.00000
     24       5.3847      0.00000

 k-point    13 :       0.2667    0.0667    0.0000
  band No.  band energies     occupation 
      1     -15.0089      2.00000
      2     -14.2932      2.00000
      3      -8.9543      2.00000
      4      -8.2406      2.00000
      5      -5.1845      2.00000
      6      -5.0387      2.00000
      7      -4.0068      2.00000
      8      -3.8265      2.00000
      9      -2.7929      2.00000
     10      -2.6100      2.00000
     11      -0.2893      0.00000
     12      -0.1797      0.00000
     13       0.7192      0.00000
     14       0.9354      0.00000
     15       1.9911      0.00000
     16       2.0916      0.00000
     17       2.6950      0.00000
     18       3.1308      0.00000
     19       3.5198      0.00000
     20       4.0601      0.00000
     21       4.4555      0.00000
     22       5.1214      0.00000
     23       5.2985      0.00000
     24       5.5926      0.00000

 k-point    14 :       0.3333    0.0667    0.0000
  band No.  band energies     occupation 
      1     -14.8688      2.00000
      2     -14.3145      2.00000
      3      -9.1203      2.00000
      4      -8.5684      2.00000
      5      -4.9990      2.00000
      6      -4.8316      2.00000
      7      -3.8987      2.00000
      8      -3.7410      2.00000
      9      -2.7827      2.00000
     10      -2.4311      2.00000
     11      -0.6222      0.00000
     12      -0.0604      0.00000
     13       0.2477      0.00000
     14       0.4890      0.00000
     15       1.5485      0.00000
     16       1.8269      0.00000
     17       2.9031      0.00000
     18       3.3900      0.00000
     19       3.8126      0.00000
     20       4.4034      0.00000
     21       4.9054      0.00000
     22       5.3864      0.00000
     23       5.4525      0.00000
     24       5.9231      0.00000

 k-point    15 :       0.4000    0.0667    0.0000
  band No.  band energies     occupation 
      1     -14.7208      2.00000
      2     -14.3679      2.00000
      3      -9.2053      2.00000
      4      -8.8545      2.00000
      5      -4.7779      2.00000
      6      -4.5896      2.00000
      7      -3.9465      2.00000
      8      -3.7433      2.00000
      9      -2.6532      2.00000
     10      -2.3699      2.00000
     11      -0.7638      0.00000
     12      -0.3850      0.00000
     13       0.2282      0.00000
     14       0.3678      0.00000
     15       1.0623      0.00000
     16       1.4571      0.00000
     17       3.2324      0.00000
     18       3.6836      0.00000
     19       4.1679      0.00000
     20       4.4179      0.00000
     21       5.1173      0.00000
     22       5.2672      0.00000
     23       5.8217      0.00000
     24       6.0933      0.00000

 k-point    16 :       0.4667    0.0667    0.0000
  band No.  band energies     occupation 
      1     -14.5789      2.00000
      2     -14.4575      2.00000
      3      -9.1893      2.00000
      4      -9.0687      2.00000
      5      -4.5531      2.00000
      6      -4.4331      2.00000
      7      -4.0089      2.00000
      8      -3.8734      2.00000
      9      -2.4817      2.00000
     10      -2.3814      2.00000
     11      -0.8064      0.00000
     12      -0.6967      0.00000
     13       0.2856      0.00000
     14       0.5891      0.00000
     15       0.7081      0.00000
     16       1.0632      0.00000
     17       3.6097      0.00000
     18       3.8717      0.00000
     19       4.3334      0.00000
     20       4.4694      0.00000
     21       4.7820      0.00000
     22       5.0271      0.00000
     23       5.6341      0.00000
     24       5.8097      0.00000

 k-point    17 :       0.0000    0.1333    0.0000
  band No.  band energies     occupation 
      1     -15.2440      2.00000
      2     -14.3157      2.00000
      3      -8.5069      2.00000
      4      -7.5832      2.00000
      5      -5.4010      2.00000
      6      -4.9093      2.00000
      7      -4.8141      2.00000
      8      -3.7642      2.00000
      9      -3.4422      2.00000
     10      -2.6868      2.00000
     11      -0.4177      0.00000
     12       1.1911      0.00000
     13       1.4946      0.00000
     14       1.6465      0.00000
     15       1.9733      0.00000
     16       2.7234      0.00000
     17       2.7325      0.00000
     18       2.7657      0.00000
     19       3.1650      0.00000
     20       3.4555      0.00000
     21       4.2847      0.00000
     22       4.4860      0.00000
     23       5.1946      0.00000
     24       5.2038      0.00000

 k-point    18 :       0.0667    0.1333    0.0000
  band No.  band energies     occupation 
      1     -15.2250      2.00000
      2     -14.3112      2.00000
      3      -8.5385      2.00000
      4      -7.6300      2.00000
      5      -5.3862      2.00000
      6      -5.1924      2.00000
      7      -4.4868      2.00000
      8      -3.9532      2.00000
      9      -3.1992      2.00000
     10      -2.6865      2.00000
     11      -0.4004      0.00000
     12       0.8169      0.00000
     13       1.4986      0.00000
     14       1.8523      0.00000
     15       2.0180      0.00000
     16       2.4098      0.00000
     17       2.7068      0.00000
     18       2.7660      0.00000
     19       3.1815      0.00000
     20       3.7390      0.00000
     21       4.4267      0.00000
     22       4.5033      0.00000
     23       5.0094      0.00000
     24       5.2276      0.00000

 k-point    19 :       0.1333    0.1333    0.0000
  band No.  band energies     occupation 
      1     -15.1691      2.00000
      2     -14.2998      2.00000
      3      -8.6308      2.00000
      4      -7.7690      2.00000
      5      -5.4237      2.00000
      6      -5.3403      2.00000
      7      -4.1445      2.00000
      8      -4.1304      2.00000
      9      -2.8669      2.00000
     10      -2.6828      2.00000
     11      -0.3471      0.00000
     12       0.2669      0.00000
     13       1.2636      0.00000
     14       1.9641      0.00000
     15       2.1035      0.00000
     16       2.2077      0.00000
     17       2.6661      0.00000
     18       2.8620      0.00000
     19       3.2507      0.00000
     20       4.0385      0.00000
     21       4.4690      0.00000
     22       4.7499      0.00000
     23       4.8028      0.00000
     24       5.3217      0.00000

 k-point    20 :       0.2000    0.1333    0.0000
  band No.  band energies     occupation 
      1     -15.0797      2.00000
      2     -14.2878      2.00000
      3      -8.7703      2.00000
      4      -7.9887      2.00000
      5      -5.5288      2.00000
      6      -5.2582      2.00000
      7      -4.2194      2.00000
      8      -3.8515      2.00000
      9      -2.6603      2.00000
     10      -2.6442      2.00000
     11      -0.2591      0.00000
     12      -0.1711      0.00000
     13       0.7165      0.00000
     14       1.8162      0.00000
     15       2.1562      0.00000
     16       2.3681      0.00000
     17       2.6663      0.00000
     18       3.0178      0.00000
     19       3.3956      0.00000
     20       4.1383      0.00000
     21       4.3322      0.00000
     22       4.9044      0.00000
     23       5.1291      0.00000
     24       5.4709      0.00000

 k-point    21 :       0.2667    0.1333    0.0000
  band No.  band energies     occupation 
      1     -14.9629      2.00000
      2     -14.2851      2.00000
      3      -8.9263      2.00000
      4      -8.2603      2.00000
      5      -5.5011      2.00000
      6      -5.1329      2.00000
      7      -4.1928      2.00000
      8      -3.7205      2.00000
      9      -2.6435      2.00000
     10      -2.5899      2.00000
     11      -0.3463      0.00000
     12      -0.1988      0.00000
     13       0.2370      0.00000
     14       1.4477      0.00000
     15       2.1210      0.00000
     16       2.4299      0.00000
     17       2.7644      0.00000
     18       3.2212      0.00000
     19       3.6172      0.00000
     20       4.0838      0.00000
     21       4.5431      0.00000
     22       5.1329      0.00000
     23       5.4738      0.00000
     24       5.7048      0.00000

 k-point    22 :       0.3333    0.1333    0.0000
  band No.  band energies     occupation 
      1     -14.8275      2.00000
      2     -14.3032      2.00000
      3      -9.0575      2.00000
      4      -8.5439      2.00000
      5      -5.3563      2.00000
      6      -4.9648      2.00000
      7      -4.1309      2.00000
      8      -3.7609      2.00000
      9      -2.8204      2.00000
     10      -2.4936      2.00000
     11      -0.4403      0.00000
     12      -0.2672      0.00000
[...]
     13       0.7078      0.00000
     14       1.2225      0.00000
     15       1.9389      0.00000
     16       2.5258      0.00000
     17       3.4191      0.00000
     18       3.5274      0.00000
     19       4.1760      0.00000
     20       4.3087      0.00000
     21       4.9338      0.00000
     22       5.2290      0.00000
     23       5.5982      0.00000
     24       5.8211      0.00000

 k-point    53 :       0.2667    0.4000    0.0000
  band No.  band energies     occupation 
      1     -14.5774      2.00000
      2     -14.3258      2.00000
      3      -8.8146      2.00000
      4      -8.5957      2.00000
      5      -6.0834      2.00000
      6      -5.2080      2.00000
      7      -4.7607      2.00000
      8      -4.0788      2.00000
      9      -3.8125      2.00000
     10      -3.0663      2.00000
     11       0.1537      0.00000
     12       1.0931      0.00000
     13       1.1993      0.00000
     14       1.6091      0.00000
     15       2.3659      0.00000
     16       3.0334      0.00000
     17       3.3264      0.00000
     18       3.5472      0.00000
     19       4.2970      0.00000
     20       4.3435      0.00000
     21       4.9397      0.00000
     22       5.4210      0.00000
     23       5.4952      0.00000
     24       5.9843      0.00000

 k-point    54 :       0.3333    0.4000    0.0000
  band No.  band energies     occupation 
      1     -14.4930      2.00000
      2     -14.3002      2.00000
      3      -8.6425      2.00000
      4      -8.4977      2.00000
      5      -6.4017      2.00000
      6      -5.5786      2.00000
      7      -5.0024      2.00000
      8      -4.3353      2.00000
      9      -3.9557      2.00000
     10      -3.3751      2.00000
     11       0.5332      0.00000
     12       1.3356      0.00000
     13       1.6018      0.00000
     14       2.3088      0.00000
     15       2.6442      0.00000
     16       2.9480      0.00000
     17       3.4896      0.00000
     18       3.6099      0.00000
     19       4.4063      0.00000
     20       4.5132      0.00000
     21       5.1462      0.00000
     22       5.4158      0.00000
     23       5.6519      0.00000
     24       6.0906      0.00000

 k-point    55 :       0.4000    0.4000    0.0000
  band No.  band energies     occupation 
      1     -14.4132      2.00000
      2     -14.2914      2.00000
      3      -8.4948      2.00000
      4      -8.4229      2.00000
      5      -6.5441      2.00000
      6      -5.9277      2.00000
      7      -5.1982      2.00000
      8      -4.6814      2.00000
      9      -3.9100      2.00000
     10      -3.5549      2.00000
     11       0.8312      0.00000
     12       1.3315      0.00000
     13       2.0925      0.00000
     14       2.7200      0.00000
     15       2.8358      0.00000
     16       3.0152      0.00000
     17       3.2552      0.00000
     18       3.8520      0.00000
     19       4.6926      0.00000
     20       4.7656      0.00000
     21       5.3450      0.00000
     22       5.5319      0.00000
     23       5.8167      0.00000
     24       6.2687      0.00000

 k-point    56 :       0.4667    0.4000    0.0000
  band No.  band energies     occupation 
      1     -14.3483      2.00000
      2     -14.3067      2.00000
      3      -8.4070      2.00000
      4      -8.3877      2.00000
      5      -6.4873      2.00000
      6      -6.2569      2.00000
      7      -5.1896      2.00000
      8      -4.9957      2.00000
      9      -3.8049      2.00000
     10      -3.6852      2.00000
     11       1.0682      0.00000
     12       1.2385      0.00000
     13       2.4606      0.00000
     14       2.6881      0.00000
     15       2.8540      0.00000
     16       2.9739      0.00000
     17       3.5648      0.00000
     18       3.8417      0.00000
     19       5.0051      0.00000
     20       5.0838      0.00000
     21       5.2548      0.00000
     22       5.5542      0.00000
     23       5.9529      0.00000
     24       6.1930      0.00000

 k-point    57 :       0.0000    0.4667    0.0000
  band No.  band energies     occupation 
      1     -14.6348      2.00000
      2     -14.5140      2.00000
      3      -9.1893      2.00000
      4      -9.0692      2.00000
      5      -4.5206      2.00000
      6      -4.2820      2.00000
      7      -3.8279      2.00000
      8      -3.6325      2.00000
      9      -2.4869      2.00000
     10      -2.1141      2.00000
     11      -0.8525      0.00000
     12      -0.4070      0.00000
     13       0.0229      0.00000
     14       0.2180      0.00000
     15       0.6317      0.00000
     16       1.0041      0.00000
     17       3.5320      0.00000
     18       3.8277      0.00000
     19       4.2286      0.00000
     20       4.3951      0.00000
     21       4.6764      0.00000
     22       4.9760      0.00000
     23       5.6493      0.00000
     24       5.9207      0.00000

 k-point    58 :       0.0667    0.4667    0.0000
  band No.  band energies     occupation 
      1     -14.6230      2.00000
      2     -14.5042      2.00000
      3      -9.1613      2.00000
      4      -9.0438      2.00000
      5      -4.5250      2.00000
      6      -4.3738      2.00000
      7      -4.0275      2.00000
      8      -3.8824      2.00000
      9      -2.3631      2.00000
     10      -2.2222      2.00000
     11      -0.7946      0.00000
     12      -0.6596      0.00000
     13       0.3806      0.00000
     14       0.6002      0.00000
     15       0.7726      0.00000
     16       1.0579      0.00000
     17       3.5558      0.00000
     18       3.8280      0.00000
     19       4.2606      0.00000
     20       4.4085      0.00000
     21       4.7074      0.00000
     22       4.9720      0.00000
     23       5.5876      0.00000
     24       5.7942      0.00000

 k-point    59 :       0.1333    0.4667    0.0000
  band No.  band energies     occupation 
      1     -14.5889      2.00000
      2     -14.4765      2.00000
      3      -9.0788      2.00000
      4      -8.9694      2.00000
      5      -4.8158      2.00000
      6      -4.6203      2.00000
      7      -4.3048      2.00000
      8      -4.1455      2.00000
      9      -2.6889      2.00000
     10      -2.5109      2.00000
     11      -0.5183      0.00000
     12      -0.2925      0.00000
     13       0.7629      0.00000
     14       0.9020      0.00000
     15       1.3205      0.00000
     16       1.4687      0.00000
     17       3.6135      0.00000
     18       3.7922      0.00000
     19       4.3519      0.00000
     20       4.4292      0.00000
     21       4.7970      0.00000
     22       4.9026      0.00000
     23       5.4647      0.00000
     24       5.4745      0.00000

 k-point    60 :       0.2000    0.4667    0.0000
  band No.  band energies     occupation 
      1     -14.5369      2.00000
      2     -14.4353      2.00000
      3      -8.9461      2.00000
      4      -8.8509      2.00000
      5      -5.3664      2.00000
      6      -5.0611      2.00000
      7      -4.4344      2.00000
      8      -4.1944      2.00000
      9      -3.2504      2.00000
     10      -2.9775      2.00000
     11       0.0239      0.00000
     12       0.3843      0.00000
     13       1.0086      0.00000
     14       1.2244      0.00000
     15       1.9081      0.00000
     16       2.1929      0.00000
     17       3.6341      0.00000
     18       3.6422      0.00000
     19       4.4295      0.00000
     20       4.4891      0.00000
     21       4.8326      0.00000
     22       4.9359      0.00000
     23       5.2626      0.00000
     24       5.5529      0.00000

 k-point    61 :       0.2667    0.4667    0.0000
  band No.  band energies     occupation 
      1     -14.4739      2.00000
      2     -14.3878      2.00000
      3      -8.7727      2.00000
      4      -8.6988      2.00000
      5      -5.8623      2.00000
      6      -5.5493      2.00000
      7      -4.5725      2.00000
      8      -4.3305      2.00000
      9      -3.6625      2.00000
     10      -3.4001      2.00000
     11       0.5198      0.00000
     12       0.8755      0.00000
     13       1.4505      0.00000
     14       1.7053      0.00000
     15       2.5257      0.00000
     16       2.8283      0.00000
     17       3.3653      0.00000
     18       3.5255      0.00000
     19       4.5104      0.00000
     20       4.6494      0.00000
     21       4.9539      0.00000
     22       5.0672      0.00000
     23       5.3299      0.00000
     24       5.7723      0.00000

 k-point    62 :       0.3333    0.4667    0.0000
  band No.  band energies     occupation 
      1     -14.4092      2.00000
      2     -14.3432      2.00000
      3      -8.5775      2.00000
      4      -8.5310      2.00000
      5      -6.2540      2.00000
      6      -5.9631      2.00000
      7      -4.8667      2.00000
      8      -4.6277      2.00000
      9      -3.8087      2.00000
     10      -3.6130      2.00000
     11       0.8456      0.00000
     12       1.1166      0.00000
     13       2.0172      0.00000
     14       2.3095      0.00000
     15       2.9882      0.00000
     16       3.0298      0.00000
     17       3.2999      0.00000
     18       3.4283      0.00000
     19       4.7247      0.00000
     20       4.8184      0.00000
     21       5.1449      0.00000
     22       5.2072      0.00000
     23       5.5823      0.00000
     24       6.0100      0.00000

 k-point    63 :       0.4000    0.4667    0.0000
  band No.  band energies     occupation 
      1     -14.3529      2.00000
      2     -14.3113      2.00000
      3      -8.3958      2.00000
      4      -8.3769      2.00000
      5      -6.5073      2.00000
      6      -6.2841      2.00000
      7      -5.1597      2.00000
      8      -4.9733      2.00000
      9      -3.8069      2.00000
     10      -3.6876      2.00000
     11       1.0730      0.00000
     12       1.2430      0.00000
     13       2.4726      0.00000
     14       2.6986      0.00000
     15       2.8768      0.00000
     16       3.0095      0.00000
     17       3.5164      0.00000
     18       3.8247      0.00000
     19       4.9973      0.00000
     20       5.0485      0.00000
     21       5.2528      0.00000
     22       5.5225      0.00000
     23       5.9194      0.00000
     24       6.1587      0.00000

 k-point    64 :       0.4667    0.4667    0.0000
  band No.  band energies     occupation 
      1     -14.3146      2.00000
      2     -14.3004      2.00000
      3      -8.2820      2.00000
      4      -8.2790      2.00000
      5      -6.5919      2.00000
      6      -6.5045      2.00000
      7      -5.2960      2.00000
      8      -5.2239      2.00000
      9      -3.7673      2.00000
     10      -3.7270      2.00000
     11       1.2220      0.00000
     12       1.2799      0.00000
     13       2.6916      0.00000
     14       2.7976      0.00000
     15       2.8524      0.00000
     16       2.8703      0.00000
     17       3.8993      0.00000
     18       4.0109      0.00000
     19       5.1722      0.00000
     20       5.2591      0.00000
     21       5.4672      0.00000
     22       5.7054      0.00000
     23       6.2193      0.00000
     24       6.2514      0.00000


--------------------------------------------------------------------------------------------------------


 soft charge-density along one line, spin component           1
         0         1         2         3         4         5         6         7         8         9
 total charge-density along one line
 
 pseudopotential strength for first ion, spin component:           1
 30.085 -23.436   0.035  -0.089  -0.000   0.055  -0.141  -0.000
-23.436  28.117  -0.019   0.051   0.000  -0.031   0.082   0.000
  0.035  -0.019   6.331   0.002   0.000   9.795   0.003   0.000
 -0.089   0.051   0.002   6.329   0.000   0.003   9.791   0.000
 -0.000   0.000   0.000   0.000   6.332   0.000   0.000   9.795
  0.055  -0.031   9.795   0.003   0.000  15.224   0.004   0.000
 -0.141   0.082   0.003   9.791   0.000   0.004  15.218   0.000
 -0.000   0.000   0.000   0.000   9.795   0.000   0.000  15.225
  0.000  -0.000  -0.000  -0.000   0.007  -0.000  -0.000   0.011
  0.003  -0.002  -0.020   0.008  -0.000  -0.031   0.013  -0.000
 -0.003   0.003  -0.004  -0.023   0.000  -0.006  -0.035   0.000
  0.000  -0.000  -0.000  -0.000  -0.020  -0.000  -0.000  -0.031
  0.000  -0.000  -0.008   0.000  -0.000  -0.013   0.000  -0.000
 total augmentation occupancy for first ion, spin component:           1
  2.025  -0.015  -0.087   0.238  -0.000   0.016  -0.042  -0.000   0.000   0.002   0.023   0.000   0.000
 -0.015   0.009   0.027  -0.073   0.000  -0.006   0.018   0.000   0.000   0.001  -0.002   0.000   0.000
 -0.087   0.027   1.491   0.000   0.000  -0.395  -0.015   0.000   0.000  -0.045  -0.079   0.000   0.006
  0.238  -0.073   0.000   1.840   0.000  -0.014  -0.486   0.000   0.000  -0.018  -0.267  -0.000   0.000
  0.000   0.000   0.000   0.000   1.508   0.000   0.000  -0.406   0.123   0.000   0.000  -0.043   0.000
  0.016  -0.006  -0.395  -0.014   0.000   0.113   0.007   0.000   0.000   0.012   0.021   0.000  -0.002
 -0.042   0.018  -0.015  -0.486   0.000   0.007   0.140   0.000   0.000   0.005   0.074   0.000  -0.000
  0.000   0.000   0.000   0.000  -0.406   0.000   0.000   0.118  -0.033   0.000   0.000   0.012   0.000
  0.000  -0.000   0.000   0.000   0.123   0.000   0.000  -0.033   0.076   0.000   0.000   0.000  -0.000
  0.002   0.001  -0.045  -0.018   0.000   0.012   0.005   0.000   0.000   0.022   0.006   0.000  -0.001
  0.023  -0.002  -0.079  -0.267  -0.000   0.021   0.074   0.000   0.000   0.006   0.078  -0.000  -0.002
  0.000   0.000   0.000   0.000  -0.043   0.000   0.000   0.012   0.000   0.000   0.000   0.021   0.000
  0.000   0.000   0.006   0.000   0.000  -0.002  -0.000   0.000   0.000  -0.001  -0.002   0.000   0.017


------------------------ aborting loop because EDIFF is reached ----------------------------------------


     CALCP:  cpu time   42.8570: real time   42.8576
 
            Ionic dipole moment: p[ion]=(     0.00000    17.33540     0.00000 ) electrons Angst
 
 Total electronic dipole moment: p[elc]=(     0.00000    -2.01998    -0.00000 ) electrons Angst
 
 
    CHARGE:  cpu time    0.2176: real time    0.2176
    FORLOC:  cpu time    0.0032: real time    0.0032
    FORNL :  cpu time    0.4742: real time    0.4742
    STRESS:  cpu time    5.4698: real time    5.4699
    FORCOR:  cpu time    0.0501: real time    0.0501
    FORHAR:  cpu time    0.0140: real time    0.0140
    MIXING:  cpu time    0.0017: real time    0.0017
    OFIELD:  cpu time    0.0000: real time    0.0000

  FORCE on cell =-STRESS in cart. coord.  units (eV):
  Direction    XX          YY          ZZ          XY          YZ          ZX
  --------------------------------------------------------------------------------------
  Alpha Z     9.50422     9.50422     9.50422
  Ewald    1610.59190  1606.13909 -2064.01218    -0.00000     0.00000    -0.00000
  Hartree  1728.75712  1727.11009 -1680.41407    -0.00000     0.00000    -0.00000
  E(xc)     -77.67727   -77.66414   -78.88707     0.00000     0.00000     0.00000
  Local   -3591.51319 -3585.98177  3489.59979    -0.00000     0.00000    -0.00000
  n-local   162.70220   162.51591   167.20925    -0.40471     0.00000     0.00000
  augment   -31.81958   -31.87668   -32.80209     0.00000     0.00000    -0.00000
  Kinetic   189.45486   190.25130   189.79881     5.52677    -0.00000     0.00000
  Fock        0.00000     0.00000     0.00000     0.00000     0.00000     0.00000
  -------------------------------------------------------------------------------------
  Total       0.00026    -0.00198    -0.00335     0.00000     0.00000     0.00000
  in kB       0.00112    -0.00844    -0.01427     0.00000     0.00000     0.00000
  external pressure =       -0.01 kB  Pullay stress =        0.00 kB


 VOLUME and BASIS-vectors are now :
 -----------------------------------------------------------------------------
  energy-cutoff  :      600.00
  volume of cell :      376.22
      direct lattice vectors                 reciprocal lattice vectors
     4.292477857  0.000000000  0.000000000     0.232965675  0.000000000  0.000000000
     0.000000000  4.382356765  0.000000000     0.000000000  0.228187720  0.000000000
     0.000000000  0.000000000 20.000000000     0.000000000  0.000000000  0.050000000

  length of vectors
     4.292477857  4.382356765 20.000000000     0.232965675  0.228187720  0.050000000


 FORCES acting on ions
    electron-ion (+dipol)            ewald-force                    non-local-force                 convergence-correction
 -----------------------------------------------------------------------------------------------
   -.154E-13 0.423E+01 -.144E+03   -.302E-14 -.572E+01 0.148E+03   -.278E-16 0.149E+01 -.381E+01   -.788E-14 0.170E-04 -.835E-04
   -.633E-14 0.423E+01 0.144E+03   -.518E-14 -.572E+01 -.148E+03   -.278E-16 0.149E+01 0.381E+01   0.863E-14 0.188E-04 0.837E-04
   -.112E-13 -.528E+01 -.206E+03   -.368E-14 0.572E+01 0.208E+03   -.278E-16 -.445E+00 -.204E+01   0.128E-13 -.167E-03 -.302E-03
   0.495E-16 -.528E+01 0.206E+03   0.142E-13 0.572E+01 -.208E+03   -.278E-16 -.445E+00 0.204E+01   -.417E-13 -.173E-03 0.302E-03
 -----------------------------------------------------------------------------------------------
   -.330E-13 -.209E+01 -.765E-06   0.234E-14 -.888E-15 -.568E-13   -.111E-15 0.209E+01 -.444E-15   -.282E-13 -.304E-03 0.102E-06
 
 
 POSITION                                       TOTAL-FORCE (eV/Angst)
 -----------------------------------------------------------------------------------
      3.21936      2.54722     11.37486        -0.000000     -0.000503     -0.000327
      1.07312      0.35604      8.62514        -0.000000     -0.000503      0.000327
      1.07312      0.14401     11.34148         0.000000      0.000503     -0.000497
      3.21936      2.33519      8.65852         0.000000      0.000503      0.000497
 -----------------------------------------------------------------------------------
    total drift:                               -0.000000     -0.000235     -0.000001


--------------------------------------------------------------------------------------------------------



  FREE ENERGIE OF THE ION-ELECTRON SYSTEM (eV)
  ---------------------------------------------------
  free  energy   TOTEN  =       -16.26439742 eV

  energy  without entropy=      -16.26439742  energy(sigma->0) =      -16.26439742
 


--------------------------------------------------------------------------------------------------------


    POTLOK:  cpu time    0.0561: real time    0.0561


--------------------------------------------------------------------------------------------------------


 writing wavefunctions
     LOOP+:  cpu time   65.5110: real time   65.5120
    4ORBIT:  cpu time    0.0000: real time    0.0000

 total amount of memory used by VASP MPI-rank0   227965. kBytes
=======================================================================

   base      :      30000. kBytes
   nonl-proj :     169500. kBytes
   fftplans  :       3181. kBytes
   grid      :      12203. kBytes
   one-center:         32. kBytes
   wavefun   :      13049. kBytes
 
  
  
 General timing and accounting informations for this job:
 ========================================================
  
                  Total CPU time used (sec):       71.938
                            User time (sec):       69.446
                          System time (sec):        2.492
                         Elapsed time (sec):       71.970
  
                   Maximum memory used (kb):      429120.
                   Average memory used (kb):           0.
  
                          Minor page faults:       410063
                          Major page faults:            0
                 Voluntary context switches:          473
