 vasp.5.4.4.18Apr17-6-g9f103f2a35 (build Sep 16 2021 13:51:27) complex          
  
 executed on             LinuxIFC date 2023.03.16  12:57:39
 running on   24 total cores
 distrk:  each k-point on   24 cores,    1 groups
 distr:  one band on NCORES_PER_BAND=  24 cores,    1 groups


--------------------------------------------------------------------------------------------------------


 INCAR:
 POTCAR:    PAW_PBE Sn 08Apr2002                  
 POTCAR:    PAW_PBE Se 06Sep2000                  

 ----------------------------------------------------------------------------- 
|                                                                             |
|           W    W    AA    RRRRR   N    N  II  N    N   GGGG   !!!           |
|           W    W   A  A   R    R  NN   N  II  NN   N  G    G  !!!           |
|           W    W  A    A  R    R  N N  N  II  N N  N  G       !!!           |
|           W WW W  AAAAAA  RRRRR   N  N N  II  N  N N  G  GGG   !            |
|           WW  WW  A    A  R   R   N   NN  II  N   NN  G    G                |
|           W    W  A    A  R    R  N    N  II  N    N   GGGG   !!!           |
|                                                                             |
|      For optimal performance we recommend to set                            |
|        NCORE= 4 - approx SQRT( number of cores)                             |
|      NCORE specifies how many cores store one orbital (NPAR=cpu/NCORE).     |
|      This setting can  greatly improve the performance of VASP for DFT.     |
|      The default,   NCORE=1            might be grossly inefficient         |
|      on modern multi-core architectures or massively parallel machines.     |
|      Do your own testing !!!!                                               |
|      Unfortunately you need to use the default for GW and RPA calculations. |
|      (for HF NCORE is supported but not extensively tested yet)             |
|                                                                             |
 ----------------------------------------------------------------------------- 

 POTCAR:    PAW_PBE Sn 08Apr2002                  
   VRHFIN =Sn: s2p2                                                             
   LEXCH  = PE                                                                  
   EATOM  =    94.0860 eV,    6.9151 Ry                                         
                                                                                
   TITEL  = PAW_PBE Sn 08Apr2002                                                
   LULTRA =        F    use ultrasoft PP ?                                      
   IUNSCR =        1    unscreen: 0-lin 1-nonlin 2-no                           
   RPACOR =    2.000    partial core radius                                     
   POMASS =  118.710; ZVAL   =    4.000    mass and valenz                      
   RCORE  =    3.000    outmost cutoff radius                                   
   RWIGS  =    2.960; RWIGS  =    1.566    wigner-seitz radius (au A)           
   ENMAX  =  103.236; ENMIN  =   77.427 eV                                      
   ICORE  =        3    local potential                                         
   LCOR   =        T    correct aug charges                                     
   LPAW   =        T    paw PP                                                  
   EAUG   =  263.585                                                            
   DEXC   =    0.000                                                            
   RMAX   =    3.078    core radius for proj-oper                               
   RAUG   =    1.300    factor for augmentation sphere                          
   RDEP   =    3.022    radius for radial grids                                 
   RDEPT  =    2.655    core radius for aug-charge                              
                                                                                
   Atomic configuration                                                         
   13 entries                                                                   
     n  l   j            E        occ.                                          
     1  0  0.50    -29007.2859   2.0000                                         
     2  0  0.50     -4378.8056   2.0000                                         
     2  1  1.50     -3930.4293   6.0000                                         
     3  0  0.50      -845.0264   2.0000                                         
     3  1  1.50      -698.5725   6.0000                                         
     3  2  2.50      -473.2839  10.0000                                         
     4  0  0.50      -133.9036   2.0000                                         
     4  1  1.50       -89.6752   6.0000                                         
     4  2  2.50       -25.8375  10.0000                                         
     5  0  0.50       -10.5484   2.0000                                         
     5  1  0.50        -3.6940   2.0000                                         
     5  2  1.50        -1.3606   0.0000                                         
     4  3  2.50        -4.0817   0.0000                                         
   Description                                                                  
     l       E           TYP  RCUT    TYP  RCUT                                 
     0    -10.5483727     23  3.000                                             
     0     27.2116520     23  3.000                                             
     1     -3.6939829     23  3.000                                             
     1      1.9821976     23  3.000                                             
     2     -1.3605826     23  3.000                                             
     3     -2.7211652     23  3.000                                             
  local pseudopotential read in
  partial core-charges read in
  partial kinetic energy density read in
  atomic valenz-charges read in
  non local Contribution for L=           0  read in
    real space projection operators read in
  non local Contribution for L=           0  read in
    real space projection operators read in
  non local Contribution for L=           1  read in
    real space projection operators read in
  non local Contribution for L=           1  read in
    real space projection operators read in
  non local Contribution for L=           2  read in
    real space projection operators read in
    PAW grid and wavefunctions read in
 
   number of l-projection  operators is LMAX  =           5
   number of lm-projection operators is LMMAX =          13
 
 POTCAR:    PAW_PBE Se 06Sep2000                  
   VRHFIN =Se: s2p4                                                             
   LEXCH  = PE                                                                  
   EATOM  =   257.1286 eV,   18.8984 Ry                                         
                                                                                
   TITEL  = PAW_PBE Se 06Sep2000                                                
   LULTRA =        F    use ultrasoft PP ?                                      
   IUNSCR =        1    unscreen: 0-lin 1-nonlin 2-no                           
   RPACOR =    1.900    partial core radius                                     
   POMASS =   78.960; ZVAL   =    6.000    mass and valenz                      
   RCORE  =    2.100    outmost cutoff radius                                   
   RWIGS  =    2.200; RWIGS  =    1.164    wigner-seitz radius (au A)           
   ENMAX  =  211.555; ENMIN  =  158.666 eV                                      
   ICORE  =        3    local potential                                         
   LCOR   =        T    correct aug charges                                     
   LPAW   =        T    paw PP                                                  
   EAUG   =  446.842                                                            
   DEXC   =    0.000                                                            
   RMAX   =    2.147    core radius for proj-oper                               
   RAUG   =    1.300    factor for augmentation sphere                          
   RDEP   =    2.177    radius for radial grids                                 
   RDEPT  =    1.928    core radius for aug-charge                              
                                                                                
   Atomic configuration                                                         
   10 entries                                                                   
     n  l   j            E        occ.                                          
     1  0  0.50    -12503.4787   2.0000                                         
     2  0  0.50     -1606.9547   2.0000                                         
     2  1  1.50     -1413.3140   6.0000                                         
     3  0  0.50      -213.4885   2.0000                                         
     3  1  1.50      -152.9538   6.0000                                         
     3  2  2.50       -53.1221  10.0000                                         
     4  0  0.50       -17.2865   2.0000                                         
     4  1  0.50        -6.5110   4.0000                                         
     4  2  2.50        -6.8029   0.0000                                         
     4  3  2.50        -6.8029   0.0000                                         
   Description                                                                  
     l       E           TYP  RCUT    TYP  RCUT                                 
     0    -17.2865377     23  2.100                                             
     0    -15.3094411     23  2.100                                             
     1     -6.5110275     23  2.100                                             
     1     -0.0695192     23  2.100                                             
     2     -6.8029130     23  2.100                                             
     3     -1.3605826      7  2.100                                             
  local pseudopotential read in
  partial core-charges read in
  partial kinetic energy density read in
  atomic valenz-charges read in
  non local Contribution for L=           0  read in
    real space projection operators read in
  non local Contribution for L=           0  read in
    real space projection operators read in
  non local Contribution for L=           1  read in
    real space projection operators read in
  non local Contribution for L=           1  read in
    real space projection operators read in
  non local Contribution for L=           2  read in
    real space projection operators read in
    PAW grid and wavefunctions read in
 
   number of l-projection  operators is LMAX  =           5
   number of lm-projection operators is LMMAX =          13
 
 WARNING: PSMAXN for non-local potential too small
          PSMAXN should be >   12.5490833729506       NTYP=           1
  PAW_PBE Sn 08Apr2002                  :
 energy of atom  1       EATOM=  -94.0860
 kinetic energy error for atom=    0.0000 (will be added to EATOM!!)
  PAW_PBE Se 06Sep2000                  :
 energy of atom  2       EATOM= -257.1286
 kinetic energy error for atom=    0.0006 (will be added to EATOM!!)
 
 
 POSCAR:  POSCAR with strain of -0.010           
  positions in direct lattice
  No initial velocities read in
 exchange correlation table for  LEXCH =        8
   RHO(1)=    0.500       N(1)  =     2000
   RHO(2)=  100.500       N(2)  =     4000
 


--------------------------------------------------------------------------------------------------------


 ion  position               nearest neighbor table
   1  0.581  0.750  0.569-   4 2.72   3 2.91   3 2.91   3 3.20   3 3.20
   2  0.081  0.250  0.431-   3 2.72   4 2.91   4 2.91   4 3.20   4 3.20
   3  0.033  0.250  0.567-   2 2.72   1 2.91   1 2.91   1 3.20   1 3.20
   4  0.533  0.750  0.433-   1 2.72   2 2.91   2 2.91   2 3.20   2 3.20
 

IMPORTANT INFORMATION: All symmetrisations will be switched off!
NOSYMM: (Re-)initialisation of all symmetry stuff for point group C_1.

 
 
 KPOINTS: KMesh Grid                              

Automatic generation of k-mesh.
Space group operators:
 irot       det(A)        alpha          n_x          n_y          n_z        tau_x        tau_y        tau_z
    1     1.000000     0.000000     1.000000     0.000000     0.000000     0.000000     0.000000     0.000000
 
 Subroutine IBZKPT returns following result:
 ===========================================
 
 Found    113 irreducible k-points:
 
 Following reciprocal coordinates:
            Coordinates               Weight
  0.000000  0.000000  0.000000      1.000000
  0.066667  0.000000  0.000000      2.000000
  0.133333  0.000000  0.000000      2.000000
  0.200000  0.000000  0.000000      2.000000
  0.266667  0.000000  0.000000      2.000000
  0.333333  0.000000  0.000000      2.000000
  0.400000  0.000000  0.000000      2.000000
  0.466667  0.000000  0.000000      2.000000
  0.000000  0.066667  0.000000      2.000000
  0.066667  0.066667  0.000000      2.000000
  0.133333  0.066667  0.000000      2.000000
  0.200000  0.066667  0.000000      2.000000
  0.266667  0.066667  0.000000      2.000000
  0.333333  0.066667  0.000000      2.000000
  0.400000  0.066667  0.000000      2.000000
  0.466667  0.066667  0.000000      2.000000
 -0.466667  0.066667  0.000000      2.000000
 -0.400000  0.066667  0.000000      2.000000
 -0.333333  0.066667  0.000000      2.000000
 -0.266667  0.066667  0.000000      2.000000
 -0.200000  0.066667  0.000000      2.000000
 -0.133333  0.066667  0.000000      2.000000
 -0.066667  0.066667  0.000000      2.000000
  0.000000  0.133333  0.000000      2.000000
  0.066667  0.133333  0.000000      2.000000
  0.133333  0.133333  0.000000      2.000000
  0.200000  0.133333  0.000000      2.000000
  0.266667  0.133333  0.000000      2.000000
  0.333333  0.133333  0.000000      2.000000
  0.400000  0.133333  0.000000      2.000000
  0.466667  0.133333  0.000000      2.000000
 -0.466667  0.133333  0.000000      2.000000
 -0.400000  0.133333  0.000000      2.000000
 -0.333333  0.133333  0.000000      2.000000
 -0.266667  0.133333  0.000000      2.000000
 -0.200000  0.133333  0.000000      2.000000
 -0.133333  0.133333  0.000000      2.000000
 -0.066667  0.133333  0.000000      2.000000
  0.000000  0.200000  0.000000      2.000000
  0.066667  0.200000  0.000000      2.000000
  0.133333  0.200000  0.000000      2.000000
  0.200000  0.200000  0.000000      2.000000
  0.266667  0.200000  0.000000      2.000000
  0.333333  0.200000  0.000000      2.000000
  0.400000  0.200000  0.000000      2.000000
  0.466667  0.200000  0.000000      2.000000
 -0.466667  0.200000  0.000000      2.000000
 -0.400000  0.200000  0.000000      2.000000
 -0.333333  0.200000  0.000000      2.000000
 -0.266667  0.200000  0.000000      2.000000
 -0.200000  0.200000  0.000000      2.000000
 -0.133333  0.200000  0.000000      2.000000
 -0.066667  0.200000  0.000000      2.000000
  0.000000  0.266667  0.000000      2.000000
  0.066667  0.266667  0.000000      2.000000
  0.133333  0.266667  0.000000      2.000000
  0.200000  0.266667  0.000000      2.000000
  0.266667  0.266667  0.000000      2.000000
  0.333333  0.266667  0.000000      2.000000
  0.400000  0.266667  0.000000      2.000000
  0.466667  0.266667  0.000000      2.000000
 -0.466667  0.266667  0.000000      2.000000
 -0.400000  0.266667  0.000000      2.000000
 -0.333333  0.266667  0.000000      2.000000
 -0.266667  0.266667  0.000000      2.000000
 -0.200000  0.266667  0.000000      2.000000
 -0.133333  0.266667  0.000000      2.000000
 -0.066667  0.266667  0.000000      2.000000
  0.000000  0.333333  0.000000      2.000000
  0.066667  0.333333  0.000000      2.000000
  0.133333  0.333333  0.000000      2.000000
  0.200000  0.333333  0.000000      2.000000
  0.266667  0.333333  0.000000      2.000000
  0.333333  0.333333  0.000000      2.000000
  0.400000  0.333333  0.000000      2.000000
  0.466667  0.333333  0.000000      2.000000
 -0.466667  0.333333  0.000000      2.000000
 -0.400000  0.333333  0.000000      2.000000
 -0.333333  0.333333  0.000000      2.000000
 -0.266667  0.333333  0.000000      2.000000
 -0.200000  0.333333  0.000000      2.000000
 -0.133333  0.333333  0.000000      2.000000
 -0.066667  0.333333  0.000000      2.000000
  0.000000  0.400000  0.000000      2.000000
  0.066667  0.400000  0.000000      2.000000
  0.133333  0.400000  0.000000      2.000000
  0.200000  0.400000  0.000000      2.000000
  0.266667  0.400000  0.000000      2.000000
  0.333333  0.400000  0.000000      2.000000
  0.400000  0.400000  0.000000      2.000000
  0.466667  0.400000  0.000000      2.000000
 -0.466667  0.400000  0.000000      2.000000
 -0.400000  0.400000  0.000000      2.000000
 -0.333333  0.400000  0.000000      2.000000
 -0.266667  0.400000  0.000000      2.000000
 -0.200000  0.400000  0.000000      2.000000
 -0.133333  0.400000  0.000000      2.000000
 -0.066667  0.400000  0.000000      2.000000
  0.000000  0.466667  0.000000      2.000000
  0.066667  0.466667  0.000000      2.000000
  0.133333  0.466667  0.000000      2.000000
  0.200000  0.466667  0.000000      2.000000
  0.266667  0.466667  0.000000      2.000000
  0.333333  0.466667  0.000000      2.000000
  0.400000  0.466667  0.000000      2.000000
  0.466667  0.466667  0.000000      2.000000
 -0.466667  0.466667  0.000000      2.000000
 -0.400000  0.466667  0.000000      2.000000
 -0.333333  0.466667  0.000000      2.000000
 -0.266667  0.466667  0.000000      2.000000
 -0.200000  0.466667  0.000000      2.000000
 -0.133333  0.466667  0.000000      2.000000
 -0.066667  0.466667  0.000000      2.000000
 
 Following cartesian coordinates:
            Coordinates               Weight
  0.000000  0.000000  0.000000      1.000000
  0.015366  0.000000  0.000000      2.000000
  0.030732  0.000000  0.000000      2.000000
  0.046099  0.000000  0.000000      2.000000
  0.061465  0.000000  0.000000      2.000000
  0.076831  0.000000  0.000000      2.000000
  0.092197  0.000000  0.000000      2.000000
  0.107563  0.000000  0.000000      2.000000
  0.000000  0.015531  0.000000      2.000000
  0.015366  0.015531  0.000000      2.000000
  0.030732  0.015531  0.000000      2.000000
  0.046099  0.015531  0.000000      2.000000
  0.061465  0.015531  0.000000      2.000000
  0.076831  0.015531  0.000000      2.000000
  0.092197  0.015531  0.000000      2.000000
  0.107563  0.015531  0.000000      2.000000
 -0.107563  0.015531  0.000000      2.000000
 -0.092197  0.015531  0.000000      2.000000
 -0.076831  0.015531  0.000000      2.000000
 -0.061465  0.015531  0.000000      2.000000
 -0.046099  0.015531  0.000000      2.000000
 -0.030732  0.015531  0.000000      2.000000
 -0.015366  0.015531  0.000000      2.000000
  0.000000  0.031062  0.000000      2.000000
  0.015366  0.031062  0.000000      2.000000
  0.030732  0.031062  0.000000      2.000000
  0.046099  0.031062  0.000000      2.000000
  0.061465  0.031062  0.000000      2.000000
  0.076831  0.031062  0.000000      2.000000
  0.092197  0.031062  0.000000      2.000000
  0.107563  0.031062  0.000000      2.000000
 -0.107563  0.031062  0.000000      2.000000
 -0.092197  0.031062  0.000000      2.000000
 -0.076831  0.031062  0.000000      2.000000
 -0.061465  0.031062  0.000000      2.000000
 -0.046099  0.031062  0.000000      2.000000
 -0.030732  0.031062  0.000000      2.000000
 -0.015366  0.031062  0.000000      2.000000
  0.000000  0.046593  0.000000      2.000000
  0.015366  0.046593  0.000000      2.000000
  0.030732  0.046593  0.000000      2.000000
  0.046099  0.046593  0.000000      2.000000
  0.061465  0.046593  0.000000      2.000000
  0.076831  0.046593  0.000000      2.000000
  0.092197  0.046593  0.000000      2.000000
  0.107563  0.046593  0.000000      2.000000
 -0.107563  0.046593  0.000000      2.000000
 -0.092197  0.046593  0.000000      2.000000
 -0.076831  0.046593  0.000000      2.000000
 -0.061465  0.046593  0.000000      2.000000
 -0.046099  0.046593  0.000000      2.000000
 -0.030732  0.046593  0.000000      2.000000
 -0.015366  0.046593  0.000000      2.000000
  0.000000  0.062124  0.000000      2.000000
  0.015366  0.062124  0.000000      2.000000
  0.030732  0.062124  0.000000      2.000000
  0.046099  0.062124  0.000000      2.000000
  0.061465  0.062124  0.000000      2.000000
  0.076831  0.062124  0.000000      2.000000
  0.092197  0.062124  0.000000      2.000000
  0.107563  0.062124  0.000000      2.000000
 -0.107563  0.062124  0.000000      2.000000
 -0.092197  0.062124  0.000000      2.000000
 -0.076831  0.062124  0.000000      2.000000
 -0.061465  0.062124  0.000000      2.000000
 -0.046099  0.062124  0.000000      2.000000
 -0.030732  0.062124  0.000000      2.000000
 -0.015366  0.062124  0.000000      2.000000
  0.000000  0.077655  0.000000      2.000000
  0.015366  0.077655  0.000000      2.000000
  0.030732  0.077655  0.000000      2.000000
  0.046099  0.077655  0.000000      2.000000
  0.061465  0.077655  0.000000      2.000000
  0.076831  0.077655  0.000000      2.000000
  0.092197  0.077655  0.000000      2.000000
  0.107563  0.077655  0.000000      2.000000
 -0.107563  0.077655  0.000000      2.000000
 -0.092197  0.077655  0.000000      2.000000
 -0.076831  0.077655  0.000000      2.000000
 -0.061465  0.077655  0.000000      2.000000
 -0.046099  0.077655  0.000000      2.000000
 -0.030732  0.077655  0.000000      2.000000
 -0.015366  0.077655  0.000000      2.000000
  0.000000  0.093186  0.000000      2.000000
  0.015366  0.093186  0.000000      2.000000
  0.030732  0.093186  0.000000      2.000000
  0.046099  0.093186  0.000000      2.000000
  0.061465  0.093186  0.000000      2.000000
  0.076831  0.093186  0.000000      2.000000
  0.092197  0.093186  0.000000      2.000000
  0.107563  0.093186  0.000000      2.000000
 -0.107563  0.093186  0.000000      2.000000
 -0.092197  0.093186  0.000000      2.000000
 -0.076831  0.093186  0.000000      2.000000
 -0.061465  0.093186  0.000000      2.000000
 -0.046099  0.093186  0.000000      2.000000
 -0.030732  0.093186  0.000000      2.000000
 -0.015366  0.093186  0.000000      2.000000
  0.000000  0.108717  0.000000      2.000000
  0.015366  0.108717  0.000000      2.000000
  0.030732  0.108717  0.000000      2.000000
  0.046099  0.108717  0.000000      2.000000
  0.061465  0.108717  0.000000      2.000000
  0.076831  0.108717  0.000000      2.000000
  0.092197  0.108717  0.000000      2.000000
  0.107563  0.108717  0.000000      2.000000
 -0.107563  0.108717  0.000000      2.000000
 -0.092197  0.108717  0.000000      2.000000
 -0.076831  0.108717  0.000000      2.000000
 -0.061465  0.108717  0.000000      2.000000
 -0.046099  0.108717  0.000000      2.000000
 -0.030732  0.108717  0.000000      2.000000
 -0.015366  0.108717  0.000000      2.000000
 


--------------------------------------------------------------------------------------------------------




 Dimension of arrays:
   k-points           NKPTS =    113   k-points in BZ     NKDIM =    113   number of bands    NBANDS=     14
   number of dos      NEDOS =    301   number of ions     NIONS =      4
   non local maximal  LDIM  =      5   non local SUM 2l+1 LMDIM =     13
   total plane-waves  NPLWV = 207360
   max r-space proj   IRMAX =      1   max aug-charges    IRDMAX=  53783
   dimension x,y,z NGX =    36 NGY =   36 NGZ =  160
   dimension x,y,z NGXF=    72 NGYF=   72 NGZF=  320
   support grid    NGXF=    72 NGYF=   72 NGZF=  320
   ions per type =               2   2
   NGX,Y,Z   is equivalent  to a cutoff of  13.79, 13.94, 13.30 a.u.
   NGXF,Y,Z  is equivalent  to a cutoff of  27.59, 27.89, 26.60 a.u.

 SYSTEM =  SnSe                                    
 POSCAR =   POSCAR with strain of -0.010           

 Startparameter for this run:
   NWRITE =      2    write-flag & timer
   PREC   = accura    normal or accurate (medium, high low for compatibility)
   ISTART =      0    job   : 0-new  1-cont  2-samecut
   ICHARG =      2    charge: 1-file 2-atom 10-const
   ISPIN  =      1    spin polarized calculation?
   LNONCOLLINEAR =      F non collinear calculations
   LSORBIT =      F    spin-orbit coupling
   INIWAV =      1    electr: 0-lowe 1-rand  2-diag
   LASPH  =      F    aspherical Exc in radial PAW
   METAGGA=      F    non-selfconsistent MetaGGA calc.

 Electronic Relaxation 1
   ENCUT  =  600.0 eV  44.10 Ry    6.64 a.u.   8.67  8.57 39.94*2*pi/ulx,y,z
   ENINI  =  600.0     initial cutoff
   ENAUG  =  446.8 eV  augmentation charge cutoff
   NELM   =     60;   NELMIN=  2; NELMDL= -5     # of ELM steps 
   EDIFF  = 0.1E-05   stopping-criterion for ELM
   LREAL  =      F    real-space projection
   NLSPLINE    = F    spline interpolate recip. space projectors
   LCOMPAT=      F    compatible to vasp.4.4
   GGA_COMPAT  = T    GGA compatible to vasp.4.4-vasp.4.6
   LMAXPAW     = -100 max onsite density
   LMAXMIX     =    2 max onsite mixed and CHGCAR
   VOSKOWN=      0    Vosko Wilk Nusair interpolation
   ROPT   =    0.00000   0.00000
 Ionic relaxation
   EDIFFG = -.1E-02   stopping-criterion for IOM
   NSW    =    100    number of steps for IOM
   NBLOCK =      1;   KBLOCK =    100    inner block; outer block 
   IBRION =      2    ionic relax: 0-MD 1-quasi-New 2-CG
   NFREE  =      1    steps in history (QN), initial steepest desc. (CG)
   ISIF   =      2    stress and relaxation
   IWAVPR =     11    prediction:  0-non 1-charg 2-wave 3-comb
   ISYM   =      0    0-nonsym 1-usesym 2-fastsym
   LCORR  =      T    Harris-Foulkes like correction to forces

   POTIM  = 0.5000    time-step for ionic-motion
   TEIN   =    0.0    initial temperature
   TEBEG  =    0.0;   TEEND  =   0.0 temperature during run
   SMASS  =  -3.00    Nose mass-parameter (am)
   estimated Nose-frequenzy (Omega)   =  0.10E-29 period in steps =****** mass=  -0.430E-27a.u.
   SCALEE = 1.0000    scale energy and forces
   NPACO  =    256;   APACO  = 16.0  distance and # of slots for P.C.
   PSTRESS=    0.0 pullay stress

  Mass of Ions in am
   POMASS = 118.71 78.96
  Ionic Valenz
   ZVAL   =   4.00  6.00
  Atomic Wigner-Seitz radii
   RWIGS  =  -1.00 -1.00
  virtual crystal weights 
   VCA    =   1.00  1.00
   NELECT =      20.0000    total number of electrons
   NUPDOWN=      -1.0000    fix difference up-down

 DOS related values:
   EMIN   =  10.00;   EMAX   =-10.00  energy-range for DOS
   EFERMI =   0.00
   ISMEAR =     0;   SIGMA  =   0.10  broadening in eV -4-tet -1-fermi 0-gaus

 Electronic relaxation 2 (details)
   IALGO  =     38    algorithm
   LDIAG  =      T    sub-space diagonalisation (order eigenvalues)
   LSUBROT=      F    optimize rotation matrix (better conditioning)
   TURBO    =      0    0=normal 1=particle mesh
   IRESTART =      0    0=no restart 2=restart with 2 vectors
   NREBOOT  =      0    no. of reboots
   NMIN     =      0    reboot dimension
   EREF     =   0.00    reference energy to select bands
   IMIX   =      4    mixing-type and parameters
     AMIX     =   0.40;   BMIX     =  1.00
     AMIX_MAG =   1.60;   BMIX_MAG =  1.00
     AMIN     =   0.10
     WC   =   100.;   INIMIX=   1;  MIXPRE=   1;  MAXMIX= -45

 Intra band minimization:
   WEIMIN = 0.0010     energy-eigenvalue tresh-hold
   EBREAK =  0.18E-07  absolut break condition
   DEPER  =   0.30     relativ break condition  

   TIME   =   0.40     timestep for ELM

  volume/ion in A,a.u.               =      93.12       628.37
  Fermi-wavevector in a.u.,A,eV,Ry     =   0.617624  1.167141  5.190078  0.381460
  Thomas-Fermi vector in A             =   1.675777
 
 Write flags
   LWAVE        =      T    write WAVECAR
   LDOWNSAMPLE  =      F    k-point downsampling of WAVECAR
   LCHARG       =      T    write CHGCAR
   LVTOT        =      F    write LOCPOT, total local potential
   LVHAR        =      F    write LOCPOT, Hartree potential only
   LELF         =      F    write electronic localiz. function (ELF)
   LORBIT       =      0    0 simple, 1 ext, 2 COOP (PROOUT), +10 PAW based schemes


 Dipole corrections
   LMONO  =      F    monopole corrections only (constant potential shift)
   LDIPOL =      F    correct potential (dipole corrections)
   IDIPOL =      0    1-x, 2-y, 3-z, 4-all directions 
   EPSILON=  1.0000000 bulk dielectric constant

 Exchange correlation treatment:
   GGA     =    PE    GGA type
   LEXCH   =     8    internal setting for exchange type
   VOSKOWN=      0    Vosko Wilk Nusair interpolation
   LHFCALC =     F    Hartree Fock is set to
   LHFONE  =     F    Hartree Fock one center treatment
   AEXX    =    0.0000 exact exchange contribution

 Linear response parameters
   LEPSILON=     F    determine dielectric tensor
   LRPA    =     F    only Hartree local field effects (RPA)
   LNABLA  =     F    use nabla operator in PAW spheres
   LVEL    =     F    velocity operator in full k-point grid
   LINTERFAST=   F  fast interpolation
   KINTER  =     0    interpolate to denser k-point grid
   CSHIFT  =0.1000    complex shift for real part using Kramers Kronig
   OMEGAMAX=  -1.0    maximum frequency
   DEG_THRESHOLD= 0.2000000E-02 threshold for treating states as degnerate
   RTIME   =   -0.100 relaxation time in fs
  (WPLASMAI=    0.000 imaginary part of plasma frequency in eV, 0.658/RTIME)
   DFIELD  = 0.0000000 0.0000000 0.0000000 field for delta impulse in time
 
 Orbital magnetization related:
   ORBITALMAG=     F  switch on orbital magnetization
   LCHIMAG   =     F  perturbation theory with respect to B field
   DQ        =  0.001000  dq finite difference perturbation B field
   LLRAUG    =     F  two centre corrections for induced B field



--------------------------------------------------------------------------------------------------------


 conjugate gradient relaxation of ions
 charge density and potential will be updated during run
 non-spin polarized calculation
 Variant of blocked Davidson
 Davidson routine will perform the subspace rotation
 perform sub-space diagonalisation
    after iterative eigenvector-optimisation
 modified Broyden-mixing scheme, WC =      100.0
 initial mixing is a Kerker type mixing with AMIX =  0.4000 and BMIX =      1.0000
 Hartree-type preconditioning will be used
 using additional bands            4
 reciprocal scheme for non local part
 use partial core corrections
 calculate Harris-corrections to forces 
   (improved forces if not selfconsistent)
 use gradient corrections 
 use of overlap-Matrix (Vanderbilt PP)
 Gauss-broadening in eV      SIGMA  =   0.10


--------------------------------------------------------------------------------------------------------


  energy-cutoff  :      600.00
  volume of cell :      372.46
      direct lattice vectors                 reciprocal lattice vectors
     4.338533197  0.000000000  0.000000000     0.230492647  0.000000000  0.000000000
     0.000000000  4.292477857  0.000000000     0.000000000  0.232965675  0.000000000
     0.000000000  0.000000000 20.000000000     0.000000000  0.000000000  0.050000000

  length of vectors
     4.338533197  4.292477857 20.000000000     0.230492647  0.232965675  0.050000000


 
 k-points in units of 2pi/SCALE and weight: KMesh Grid                              
   0.00000000  0.00000000  0.00000000       0.004
   0.01536618  0.00000000  0.00000000       0.009
   0.03073235  0.00000000  0.00000000       0.009
   0.04609853  0.00000000  0.00000000       0.009
   0.06146471  0.00000000  0.00000000       0.009
   0.07683088  0.00000000  0.00000000       0.009
   0.09219706  0.00000000  0.00000000       0.009
   0.10756324  0.00000000  0.00000000       0.009
   0.00000000  0.01553104  0.00000000       0.009
   0.01536618  0.01553104  0.00000000       0.009
   0.03073235  0.01553104  0.00000000       0.009
   0.04609853  0.01553104  0.00000000       0.009
   0.06146471  0.01553104  0.00000000       0.009
   0.07683088  0.01553104  0.00000000       0.009
   0.09219706  0.01553104  0.00000000       0.009
   0.10756324  0.01553104  0.00000000       0.009
  -0.10756324  0.01553104  0.00000000       0.009
  -0.09219706  0.01553104  0.00000000       0.009
  -0.07683088  0.01553104  0.00000000       0.009
  -0.06146471  0.01553104  0.00000000       0.009
  -0.04609853  0.01553104  0.00000000       0.009
  -0.03073235  0.01553104  0.00000000       0.009
  -0.01536618  0.01553104  0.00000000       0.009
   0.00000000  0.03106209  0.00000000       0.009
   0.01536618  0.03106209  0.00000000       0.009
   0.03073235  0.03106209  0.00000000       0.009
   0.04609853  0.03106209  0.00000000       0.009
   0.06146471  0.03106209  0.00000000       0.009
   0.07683088  0.03106209  0.00000000       0.009
   0.09219706  0.03106209  0.00000000       0.009
   0.10756324  0.03106209  0.00000000       0.009
  -0.10756324  0.03106209  0.00000000       0.009
  -0.09219706  0.03106209  0.00000000       0.009
  -0.07683088  0.03106209  0.00000000       0.009
  -0.06146471  0.03106209  0.00000000       0.009
  -0.04609853  0.03106209  0.00000000       0.009
  -0.03073235  0.03106209  0.00000000       0.009
  -0.01536618  0.03106209  0.00000000       0.009
   0.00000000  0.04659313  0.00000000       0.009
   0.01536618  0.04659313  0.00000000       0.009
   0.03073235  0.04659313  0.00000000       0.009
   0.04609853  0.04659313  0.00000000       0.009
   0.06146471  0.04659313  0.00000000       0.009
   0.07683088  0.04659313  0.00000000       0.009
   0.09219706  0.04659313  0.00000000       0.009
   0.10756324  0.04659313  0.00000000       0.009
  -0.10756324  0.04659313  0.00000000       0.009
  -0.09219706  0.04659313  0.00000000       0.009
  -0.07683088  0.04659313  0.00000000       0.009
  -0.06146471  0.04659313  0.00000000       0.009
  -0.04609853  0.04659313  0.00000000       0.009
  -0.03073235  0.04659313  0.00000000       0.009
  -0.01536618  0.04659313  0.00000000       0.009
   0.00000000  0.06212418  0.00000000       0.009
   0.01536618  0.06212418  0.00000000       0.009
   0.03073235  0.06212418  0.00000000       0.009
   0.04609853  0.06212418  0.00000000       0.009
   0.06146471  0.06212418  0.00000000       0.009
   0.07683088  0.06212418  0.00000000       0.009
   0.09219706  0.06212418  0.00000000       0.009
   0.10756324  0.06212418  0.00000000       0.009
  -0.10756324  0.06212418  0.00000000       0.009
  -0.09219706  0.06212418  0.00000000       0.009
  -0.07683088  0.06212418  0.00000000       0.009
  -0.06146471  0.06212418  0.00000000       0.009
  -0.04609853  0.06212418  0.00000000       0.009
  -0.03073235  0.06212418  0.00000000       0.009
  -0.01536618  0.06212418  0.00000000       0.009
   0.00000000  0.07765522  0.00000000       0.009
   0.01536618  0.07765522  0.00000000       0.009
   0.03073235  0.07765522  0.00000000       0.009
   0.04609853  0.07765522  0.00000000       0.009
   0.06146471  0.07765522  0.00000000       0.009
   0.07683088  0.07765522  0.00000000       0.009
   0.09219706  0.07765522  0.00000000       0.009
   0.10756324  0.07765522  0.00000000       0.009
  -0.10756324  0.07765522  0.00000000       0.009
  -0.09219706  0.07765522  0.00000000       0.009
  -0.07683088  0.07765522  0.00000000       0.009
  -0.06146471  0.07765522  0.00000000       0.009
  -0.04609853  0.07765522  0.00000000       0.009
  -0.03073235  0.07765522  0.00000000       0.009
  -0.01536618  0.07765522  0.00000000       0.009
   0.00000000  0.09318627  0.00000000       0.009
   0.01536618  0.09318627  0.00000000       0.009
   0.03073235  0.09318627  0.00000000       0.009
   0.04609853  0.09318627  0.00000000       0.009
   0.06146471  0.09318627  0.00000000       0.009
   0.07683088  0.09318627  0.00000000       0.009
   0.09219706  0.09318627  0.00000000       0.009
   0.10756324  0.09318627  0.00000000       0.009
  -0.10756324  0.09318627  0.00000000       0.009
  -0.09219706  0.09318627  0.00000000       0.009
  -0.07683088  0.09318627  0.00000000       0.009
  -0.06146471  0.09318627  0.00000000       0.009
  -0.04609853  0.09318627  0.00000000       0.009
  -0.03073235  0.09318627  0.00000000       0.009
  -0.01536618  0.09318627  0.00000000       0.009
   0.00000000  0.10871731  0.00000000       0.009
   0.01536618  0.10871731  0.00000000       0.009
   0.03073235  0.10871731  0.00000000       0.009
   0.04609853  0.10871731  0.00000000       0.009
   0.06146471  0.10871731  0.00000000       0.009
   0.07683088  0.10871731  0.00000000       0.009
   0.09219706  0.10871731  0.00000000       0.009
   0.10756324  0.10871731  0.00000000       0.009
  -0.10756324  0.10871731  0.00000000       0.009
  -0.09219706  0.10871731  0.00000000       0.009
  -0.07683088  0.10871731  0.00000000       0.009
  -0.06146471  0.10871731  0.00000000       0.009
  -0.04609853  0.10871731  0.00000000       0.009
  -0.03073235  0.10871731  0.00000000       0.009
  -0.01536618  0.10871731  0.00000000       0.009
 
 k-points in reciprocal lattice and weights: KMesh Grid                              
   0.00000000  0.00000000  0.00000000       0.004
   0.06666667  0.00000000  0.00000000       0.009
   0.13333333  0.00000000  0.00000000       0.009
   0.20000000  0.00000000  0.00000000       0.009
   0.26666667  0.00000000  0.00000000       0.009
   0.33333333  0.00000000  0.00000000       0.009
   0.40000000  0.00000000  0.00000000       0.009
   0.46666667  0.00000000  0.00000000       0.009
   0.00000000  0.06666667  0.00000000       0.009
   0.06666667  0.06666667  0.00000000       0.009
   0.13333333  0.06666667  0.00000000       0.009
   0.20000000  0.06666667  0.00000000       0.009
   0.26666667  0.06666667  0.00000000       0.009
   0.33333333  0.06666667  0.00000000       0.009
   0.40000000  0.06666667  0.00000000       0.009
   0.46666667  0.06666667  0.00000000       0.009
  -0.46666667  0.06666667  0.00000000       0.009
  -0.40000000  0.06666667  0.00000000       0.009
  -0.33333333  0.06666667  0.00000000       0.009
  -0.26666667  0.06666667  0.00000000       0.009
  -0.20000000  0.06666667  0.00000000       0.009
  -0.13333333  0.06666667  0.00000000       0.009
  -0.06666667  0.06666667  0.00000000       0.009
   0.00000000  0.13333333  0.00000000       0.009
   0.06666667  0.13333333  0.00000000       0.009
   0.13333333  0.13333333  0.00000000       0.009
   0.20000000  0.13333333  0.00000000       0.009
   0.26666667  0.13333333  0.00000000       0.009
   0.33333333  0.13333333  0.00000000       0.009
   0.40000000  0.13333333  0.00000000       0.009
   0.46666667  0.13333333  0.00000000       0.009
  -0.46666667  0.13333333  0.00000000       0.009
  -0.40000000  0.13333333  0.00000000       0.009
  -0.33333333  0.13333333  0.00000000       0.009
  -0.26666667  0.13333333  0.00000000       0.009
  -0.20000000  0.13333333  0.00000000       0.009
  -0.13333333  0.13333333  0.00000000       0.009
  -0.06666667  0.13333333  0.00000000       0.009
   0.00000000  0.20000000  0.00000000       0.009
   0.06666667  0.20000000  0.00000000       0.009
   0.13333333  0.20000000  0.00000000       0.009
   0.20000000  0.20000000  0.00000000       0.009
   0.26666667  0.20000000  0.00000000       0.009
   0.33333333  0.20000000  0.00000000       0.009
   0.40000000  0.20000000  0.00000000       0.009
   0.46666667  0.20000000  0.00000000       0.009
  -0.46666667  0.20000000  0.00000000       0.009
  -0.40000000  0.20000000  0.00000000       0.009
  -0.33333333  0.20000000  0.00000000       0.009
  -0.26666667  0.20000000  0.00000000       0.009
  -0.20000000  0.20000000  0.00000000       0.009
  -0.13333333  0.20000000  0.00000000       0.009
  -0.06666667  0.20000000  0.00000000       0.009
   0.00000000  0.26666667  0.00000000       0.009
   0.06666667  0.26666667  0.00000000       0.009
   0.13333333  0.26666667  0.00000000       0.009
   0.20000000  0.26666667  0.00000000       0.009
   0.26666667  0.26666667  0.00000000       0.009
   0.33333333  0.26666667  0.00000000       0.009
   0.40000000  0.26666667  0.00000000       0.009
   0.46666667  0.26666667  0.00000000       0.009
  -0.46666667  0.26666667  0.00000000       0.009
  -0.40000000  0.26666667  0.00000000       0.009
  -0.33333333  0.26666667  0.00000000       0.009
  -0.26666667  0.26666667  0.00000000       0.009
  -0.20000000  0.26666667  0.00000000       0.009
  -0.13333333  0.26666667  0.00000000       0.009
  -0.06666667  0.26666667  0.00000000       0.009
   0.00000000  0.33333333  0.00000000       0.009
   0.06666667  0.33333333  0.00000000       0.009
   0.13333333  0.33333333  0.00000000       0.009
   0.20000000  0.33333333  0.00000000       0.009
   0.26666667  0.33333333  0.00000000       0.009
   0.33333333  0.33333333  0.00000000       0.009
   0.40000000  0.33333333  0.00000000       0.009
   0.46666667  0.33333333  0.00000000       0.009
  -0.46666667  0.33333333  0.00000000       0.009
  -0.40000000  0.33333333  0.00000000       0.009
  -0.33333333  0.33333333  0.00000000       0.009
  -0.26666667  0.33333333  0.00000000       0.009
  -0.20000000  0.33333333  0.00000000       0.009
  -0.13333333  0.33333333  0.00000000       0.009
  -0.06666667  0.33333333  0.00000000       0.009
   0.00000000  0.40000000  0.00000000       0.009
   0.06666667  0.40000000  0.00000000       0.009
   0.13333333  0.40000000  0.00000000       0.009
   0.20000000  0.40000000  0.00000000       0.009
   0.26666667  0.40000000  0.00000000       0.009
   0.33333333  0.40000000  0.00000000       0.009
   0.40000000  0.40000000  0.00000000       0.009
   0.46666667  0.40000000  0.00000000       0.009
  -0.46666667  0.40000000  0.00000000       0.009
  -0.40000000  0.40000000  0.00000000       0.009
  -0.33333333  0.40000000  0.00000000       0.009
  -0.26666667  0.40000000  0.00000000       0.009
  -0.20000000  0.40000000  0.00000000       0.009
  -0.13333333  0.40000000  0.00000000       0.009
  -0.06666667  0.40000000  0.00000000       0.009
   0.00000000  0.46666667  0.00000000       0.009
   0.06666667  0.46666667  0.00000000       0.009
   0.13333333  0.46666667  0.00000000       0.009
   0.20000000  0.46666667  0.00000000       0.009
   0.26666667  0.46666667  0.00000000       0.009
   0.33333333  0.46666667  0.00000000       0.009
   0.40000000  0.46666667  0.00000000       0.009
   0.46666667  0.46666667  0.00000000       0.009
  -0.46666667  0.46666667  0.00000000       0.009
  -0.40000000  0.46666667  0.00000000       0.009
  -0.33333333  0.46666667  0.00000000       0.009
  -0.26666667  0.46666667  0.00000000       0.009
  -0.20000000  0.46666667  0.00000000       0.009
  -0.13333333  0.46666667  0.00000000       0.009
  -0.06666667  0.46666667  0.00000000       0.009
 
 position of ions in fractional coordinates (direct lattice) 
   0.58124336  0.75000000  0.56874314
   0.08124336  0.25000000  0.43125686
   0.03286064  0.25000000  0.56707387
   0.53286061  0.75000000  0.43292613
 
 position of ions in cartesian coordinates  (Angst):
   2.52174361  3.21935839 11.37486283
   0.35247701  1.07311946  8.62513717
   0.14256699  1.07311946 11.34147733
   2.31183347  3.21935839  8.65852267
 


--------------------------------------------------------------------------------------------------------


 k-point  1 :   0.0000 0.0000 0.0000  plane waves:   12483
 k-point  2 :   0.0667 0.0000 0.0000  plane waves:   12489
 k-point  3 :   0.1333 0.0000 0.0000  plane waves:   12431
 k-point  4 :   0.2000 0.0000 0.0000  plane waves:   12431
 k-point  5 :   0.2667 0.0000 0.0000  plane waves:   12423
 k-point  6 :   0.3333 0.0000 0.0000  plane waves:   12449
 k-point  7 :   0.4000 0.0000 0.0000  plane waves:   12462
 k-point  8 :   0.4667 0.0000 0.0000  plane waves:   12468
 k-point  9 :   0.0000 0.0667 0.0000  plane waves:   12467
 k-point 10 :   0.0667 0.0667 0.0000  plane waves:   12459
 k-point 11 :   0.1333 0.0667 0.0000  plane waves:   12430
 k-point 12 :   0.2000 0.0667 0.0000  plane waves:   12443
 k-point 13 :   0.2667 0.0667 0.0000  plane waves:   12438
 k-point 14 :   0.3333 0.0667 0.0000  plane waves:   12432
 k-point 15 :   0.4000 0.0667 0.0000  plane waves:   12457
 k-point 16 :   0.4667 0.0667 0.0000  plane waves:   12456
 k-point 17 :  -0.4667 0.0667 0.0000  plane waves:   12456
 k-point 18 :  -0.4000 0.0667 0.0000  plane waves:   12457
 k-point 19 :  -0.3333 0.0667 0.0000  plane waves:   12432
 k-point 20 :  -0.2667 0.0667 0.0000  plane waves:   12438
 k-point 21 :  -0.2000 0.0667 0.0000  plane waves:   12443
 k-point 22 :  -0.1333 0.0667 0.0000  plane waves:   12430
 k-point 23 :  -0.0667 0.0667 0.0000  plane waves:   12459
 k-point 24 :   0.0000 0.1333 0.0000  plane waves:   12465
 k-point 25 :   0.0667 0.1333 0.0000  plane waves:   12438
 k-point 26 :   0.1333 0.1333 0.0000  plane waves:   12426
 k-point 27 :   0.2000 0.1333 0.0000  plane waves:   12428
 k-point 28 :   0.2667 0.1333 0.0000  plane waves:   12430
 k-point 29 :   0.3333 0.1333 0.0000  plane waves:   12427
 k-point 30 :   0.4000 0.1333 0.0000  plane waves:   12430
 k-point 31 :   0.4667 0.1333 0.0000  plane waves:   12440
 k-point 32 :  -0.4667 0.1333 0.0000  plane waves:   12440
 k-point 33 :  -0.4000 0.1333 0.0000  plane waves:   12430
 k-point 34 :  -0.3333 0.1333 0.0000  plane waves:   12427
 k-point 35 :  -0.2667 0.1333 0.0000  plane waves:   12430
 k-point 36 :  -0.2000 0.1333 0.0000  plane waves:   12428
 k-point 37 :  -0.1333 0.1333 0.0000  plane waves:   12426
 k-point 38 :  -0.0667 0.1333 0.0000  plane waves:   12438
 k-point 39 :   0.0000 0.2000 0.0000  plane waves:   12443
 k-point 40 :   0.0667 0.2000 0.0000  plane waves:   12449
 k-point 41 :   0.1333 0.2000 0.0000  plane waves:   12460
 k-point 42 :   0.2000 0.2000 0.0000  plane waves:   12432
 k-point 43 :   0.2667 0.2000 0.0000  plane waves:   12421
 k-point 44 :   0.3333 0.2000 0.0000  plane waves:   12431
 k-point 45 :   0.4000 0.2000 0.0000  plane waves:   12429
 k-point 46 :   0.4667 0.2000 0.0000  plane waves:   12430
 k-point 47 :  -0.4667 0.2000 0.0000  plane waves:   12430
 k-point 48 :  -0.4000 0.2000 0.0000  plane waves:   12429
 k-point 49 :  -0.3333 0.2000 0.0000  plane waves:   12431
 k-point 50 :  -0.2667 0.2000 0.0000  plane waves:   12421
 k-point 51 :  -0.2000 0.2000 0.0000  plane waves:   12432
 k-point 52 :  -0.1333 0.2000 0.0000  plane waves:   12460
 k-point 53 :  -0.0667 0.2000 0.0000  plane waves:   12449
 k-point 54 :   0.0000 0.2667 0.0000  plane waves:   12441
 k-point 55 :   0.0667 0.2667 0.0000  plane waves:   12450
 k-point 56 :   0.1333 0.2667 0.0000  plane waves:   12447
 k-point 57 :   0.2000 0.2667 0.0000  plane waves:   12425
 k-point 58 :   0.2667 0.2667 0.0000  plane waves:   12428
 k-point 59 :   0.3333 0.2667 0.0000  plane waves:   12427
 k-point 60 :   0.4000 0.2667 0.0000  plane waves:   12427
 k-point 61 :   0.4667 0.2667 0.0000  plane waves:   12416
 k-point 62 :  -0.4667 0.2667 0.0000  plane waves:   12416
 k-point 63 :  -0.4000 0.2667 0.0000  plane waves:   12427
 k-point 64 :  -0.3333 0.2667 0.0000  plane waves:   12427
 k-point 65 :  -0.2667 0.2667 0.0000  plane waves:   12428
 k-point 66 :  -0.2000 0.2667 0.0000  plane waves:   12425
 k-point 67 :  -0.1333 0.2667 0.0000  plane waves:   12447
 k-point 68 :  -0.0667 0.2667 0.0000  plane waves:   12450
 k-point 69 :   0.0000 0.3333 0.0000  plane waves:   12433
 k-point 70 :   0.0667 0.3333 0.0000  plane waves:   12421
 k-point 71 :   0.1333 0.3333 0.0000  plane waves:   12430
 k-point 72 :   0.2000 0.3333 0.0000  plane waves:   12430
 k-point 73 :   0.2667 0.3333 0.0000  plane waves:   12404
 k-point 74 :   0.3333 0.3333 0.0000  plane waves:   12401
 k-point 75 :   0.4000 0.3333 0.0000  plane waves:   12408
 k-point 76 :   0.4667 0.3333 0.0000  plane waves:   12422
 k-point 77 :  -0.4667 0.3333 0.0000  plane waves:   12422
 k-point 78 :  -0.4000 0.3333 0.0000  plane waves:   12408
 k-point 79 :  -0.3333 0.3333 0.0000  plane waves:   12401
 k-point 80 :  -0.2667 0.3333 0.0000  plane waves:   12404
 k-point 81 :  -0.2000 0.3333 0.0000  plane waves:   12430
 k-point 82 :  -0.1333 0.3333 0.0000  plane waves:   12430
 k-point 83 :  -0.0667 0.3333 0.0000  plane waves:   12421
 k-point 84 :   0.0000 0.4000 0.0000  plane waves:   12407
 k-point 85 :   0.0667 0.4000 0.0000  plane waves:   12413
 k-point 86 :   0.1333 0.4000 0.0000  plane waves:   12435
 k-point 87 :   0.2000 0.4000 0.0000  plane waves:   12426
 k-point 88 :   0.2667 0.4000 0.0000  plane waves:   12392
 k-point 89 :   0.3333 0.4000 0.0000  plane waves:   12412
 k-point 90 :   0.4000 0.4000 0.0000  plane waves:   12397
 k-point 91 :   0.4667 0.4000 0.0000  plane waves:   12406
 k-point 92 :  -0.4667 0.4000 0.0000  plane waves:   12406
 k-point 93 :  -0.4000 0.4000 0.0000  plane waves:   12397
 k-point 94 :  -0.3333 0.4000 0.0000  plane waves:   12412
 k-point 95 :  -0.2667 0.4000 0.0000  plane waves:   12392
 k-point 96 :  -0.2000 0.4000 0.0000  plane waves:   12426
 k-point 97 :  -0.1333 0.4000 0.0000  plane waves:   12435
 k-point 98 :  -0.0667 0.4000 0.0000  plane waves:   12413
 k-point 99 :   0.0000 0.4667 0.0000  plane waves:   12422
 k-point ** :   0.0667 0.4667 0.0000  plane waves:   12428
 k-point ** :   0.1333 0.4667 0.0000  plane waves:   12434
 k-point ** :   0.2000 0.4667 0.0000  plane waves:   12414
 k-point ** :   0.2667 0.4667 0.0000  plane waves:   12401
 k-point ** :   0.3333 0.4667 0.0000  plane waves:   12385
 k-point ** :   0.4000 0.4667 0.0000  plane waves:   12390
 k-point ** :   0.4667 0.4667 0.0000  plane waves:   12387
 k-point ** :  -0.4667 0.4667 0.0000  plane waves:   12387
 k-point ** :  -0.4000 0.4667 0.0000  plane waves:   12390
 k-point ** :  -0.3333 0.4667 0.0000  plane waves:   12385
 k-point ** :  -0.2667 0.4667 0.0000  plane waves:   12401
 k-point ** :  -0.2000 0.4667 0.0000  plane waves:   12414
 k-point ** :  -0.1333 0.4667 0.0000  plane waves:   12434
 k-point ** :  -0.0667 0.4667 0.0000  plane waves:   12428

 maximum and minimum number of plane-waves per node :       539      491

 maximum number of plane-waves:     12489
 maximum index in each direction: 
   IXMAX=    9   IYMAX=    8   IZMAX=   39
   IXMIN=   -9   IYMIN=   -9   IZMIN=  -39


 parallel 3D FFT for wavefunctions:
    minimum data exchange during FFTs selected (reduces bandwidth)
 parallel 3D FFT for charge:
    minimum data exchange during FFTs selected (reduces bandwidth)


 total amount of memory used by VASP MPI-rank0    63612. kBytes
=======================================================================

   base      :      30000. kBytes
   nonl-proj :      12656. kBytes
   fftplans  :       2678. kBytes
   grid      :       4349. kBytes
   one-center:          8. kBytes
   wavefun   :      13921. kBytes
 
     INWAV:  cpu time    0.0000: real time    0.0000
 Broyden mixing: mesh for mixing (old mesh)
   NGX = 17   NGY = 17   NGZ = 79
  (NGX  = 72   NGY  = 72   NGZ  =320)
  gives a total of  22831 points

 initial charge density was supplied:
 charge density of overlapping atoms calculated
 number of electron      20.0000000 magnetization 
 keeping initial charge density in first step


--------------------------------------------------------------------------------------------------------


 Maximum index for augmentation-charges         2246 (set IRDMAX)


--------------------------------------------------------------------------------------------------------


 First call to EWALD:  gamma=   0.246
 Maximum number of real-space cells 4x 4x 1
 Maximum number of reciprocal cells 2x 2x 7

    FEWALD:  cpu time    0.0012: real time    0.0059


--------------------------------------- Iteration      1(   1)  ---------------------------------------


    POTLOK:  cpu time    0.0478: real time    0.1950
    SETDIJ:  cpu time    0.0046: real time    0.0062
     EDDAV:  cpu time    3.5765: real time    3.6370
       DOS:  cpu time    0.0051: real time    0.0056
    --------------------------------------------
      LOOP:  cpu time    3.6342: real time    3.8438

 eigenvalue-minimisations  :  3164
 total energy-change (2. order) : 0.1456419E+03  (-0.6280938E+03)
 number of electron      20.0000000 magnetization 
 augmentation part       20.0000000 magnetization 

 Free energy of the ion-electron system (eV)
  ---------------------------------------------------
  alpha Z        PSCENC =         9.60021974
  Ewald energy   TEWEN  =      1168.95220058
  -Hartree energ DENC   =     -1771.04480632
  -exchange      EXHF   =         0.00000000
  -V(xc)+E(xc)   XCENC  =      -238.51852503
  PAW double counting   =       799.43158084     -524.17639913
  entropy T*S    EENTRO =        -0.01108081
  eigenvalues    EBANDS =        -1.01918305
  atomic energy  EATOM  =       702.42789710
  Solvation  Ediel_sol  =         0.00000000
  ---------------------------------------------------
  free energy    TOTEN  =       145.64190392 eV

  energy without entropy =      145.65298473  energy(sigma->0) =      145.64744433


--------------------------------------------------------------------------------------------------------




--------------------------------------- Iteration      1(   2)  ---------------------------------------


     EDDAV:  cpu time   15.6245: real time   16.0040
       DOS:  cpu time    0.0054: real time    0.0054
    --------------------------------------------
      LOOP:  cpu time   15.6299: real time   16.0094

 eigenvalue-minimisations  :  5342
 total energy-change (2. order) :-0.1411022E+03  (-0.1372272E+03)
 number of electron      20.0000000 magnetization 
 augmentation part       20.0000000 magnetization 

 Free energy of the ion-electron system (eV)
  ---------------------------------------------------
  alpha Z        PSCENC =         9.60021974
  Ewald energy   TEWEN  =      1168.95220058
  -Hartree energ DENC   =     -1771.04480632
  -exchange      EXHF   =         0.00000000
  -V(xc)+E(xc)   XCENC  =      -238.51852503
  PAW double counting   =       799.43158084     -524.17639913
  entropy T*S    EENTRO =        -0.00226369
  eigenvalues    EBANDS =      -142.13016222
  atomic energy  EATOM  =       702.42789710
  Solvation  Ediel_sol  =         0.00000000
  ---------------------------------------------------
  free energy    TOTEN  =         4.53974187 eV

  energy without entropy =        4.54200556  energy(sigma->0) =        4.54087372


--------------------------------------------------------------------------------------------------------




--------------------------------------- Iteration      1(   3)  ---------------------------------------


     EDDAV:  cpu time    8.3895: real time    8.4031
       DOS:  cpu time    0.0035: real time    0.0034
    --------------------------------------------
      LOOP:  cpu time    8.3929: real time    8.4065

 eigenvalue-minimisations  :  4034
 total energy-change (2. order) :-0.2052329E+02  (-0.2030070E+02)
 number of electron      20.0000000 magnetization 
 augmentation part       20.0000000 magnetization 

 Free energy of the ion-electron system (eV)
  ---------------------------------------------------
  alpha Z        PSCENC =         9.60021974
  Ewald energy   TEWEN  =      1168.95220058
  -Hartree energ DENC   =     -1771.04480632
  -exchange      EXHF   =         0.00000000
  -V(xc)+E(xc)   XCENC  =      -238.51852503
  PAW double counting   =       799.43158084     -524.17639913
  entropy T*S    EENTRO =        -0.00000000
  eigenvalues    EBANDS =      -162.65571199
  atomic energy  EATOM  =       702.42789710
  Solvation  Ediel_sol  =         0.00000000
  ---------------------------------------------------
  free energy    TOTEN  =       -15.98354420 eV

  energy without entropy =      -15.98354420  energy(sigma->0) =      -15.98354420


--------------------------------------------------------------------------------------------------------




--------------------------------------- Iteration      1(   4)  ---------------------------------------


     EDDAV:  cpu time    8.3611: real time    8.6410
       DOS:  cpu time    0.0034: real time    0.0034
    --------------------------------------------
      LOOP:  cpu time    8.3645: real time    8.6445

 eigenvalue-minimisations  :  4502
 total energy-change (2. order) :-0.7823319E+00  (-0.7801758E+00)
 number of electron      20.0000000 magnetization 
 augmentation part       20.0000000 magnetization 

 Free energy of the ion-electron system (eV)
  ---------------------------------------------------
  alpha Z        PSCENC =         9.60021974
  Ewald energy   TEWEN  =      1168.95220058
  -Hartree energ DENC   =     -1771.04480632
  -exchange      EXHF   =         0.00000000
  -V(xc)+E(xc)   XCENC  =      -238.51852503
  PAW double counting   =       799.43158084     -524.17639913
  entropy T*S    EENTRO =        -0.00000000
  eigenvalues    EBANDS =      -163.43804385
  atomic energy  EATOM  =       702.42789710
  Solvation  Ediel_sol  =         0.00000000
  ---------------------------------------------------
  free energy    TOTEN  =       -16.76587606 eV

  energy without entropy =      -16.76587606  energy(sigma->0) =      -16.76587606


--------------------------------------------------------------------------------------------------------




--------------------------------------- Iteration      1(   5)  ---------------------------------------


     EDDAV:  cpu time    7.3208: real time    7.3342
       DOS:  cpu time    0.0035: real time    0.0035
    CHARGE:  cpu time    0.8765: real time    0.8831
    MIXING:  cpu time    0.2582: real time    0.2596
    --------------------------------------------
      LOOP:  cpu time    8.4590: real time    8.4804

 eigenvalue-minimisations  :  4108
 total energy-change (2. order) :-0.1854616E-01  (-0.1853381E-01)
 number of electron      20.0000000 magnetization 
 augmentation part       -4.5256515 magnetization 

 Broyden mixing:
  rms(total) = 0.45605E+00    rms(broyden)= 0.45604E+00
  rms(prec ) = 0.49531E+00
  weight for this iteration     100.00

 Free energy of the ion-electron system (eV)
  ---------------------------------------------------
  alpha Z        PSCENC =         9.60021974
  Ewald energy   TEWEN  =      1168.95220058
  -Hartree energ DENC   =     -1771.04480632
  -exchange      EXHF   =         0.00000000
  -V(xc)+E(xc)   XCENC  =      -238.51852503
  PAW double counting   =       799.43158084     -524.17639913
  entropy T*S    EENTRO =        -0.00000000
  eigenvalues    EBANDS =      -163.45659001
  atomic energy  EATOM  =       702.42789710
  Solvation  Ediel_sol  =         0.00000000
  ---------------------------------------------------
  free energy    TOTEN  =       -16.78442223 eV

  energy without entropy =      -16.78442223  energy(sigma->0) =      -16.78442223


--------------------------------------------------------------------------------------------------------




--------------------------------------- Iteration      1(   6)  ---------------------------------------


    POTLOK:  cpu time    1.3657: real time    1.4405
    SETDIJ:  cpu time    0.0622: real time    0.0994
     EDDAV:  cpu time    8.7178: real time    9.2176
       DOS:  cpu time    0.0037: real time    0.0037
    CHARGE:  cpu time    0.1945: real time    0.1949
    MIXING:  cpu time    0.0026: real time    0.0034
    --------------------------------------------
      LOOP:  cpu time   10.3465: real time   10.9595

 eigenvalue-minimisations  :  3972
 total energy-change (2. order) : 0.4795088E+00  (-0.1199915E+00)
 number of electron      20.0000000 magnetization 
 augmentation part       -4.4934588 magnetization 

 Broyden mixing:
  rms(total) = 0.28049E+00    rms(broyden)= 0.28049E+00
  rms(prec ) = 0.28961E+00
  weight for this iteration     100.00

 eigenvalues of (default mixing * dielectric matrix)
  average eigenvalue GAMMA=   1.8415
  1.8415

 Free energy of the ion-electron system (eV)
  ---------------------------------------------------
  alpha Z        PSCENC =         9.60021974
  Ewald energy   TEWEN  =      1168.95220058
  -Hartree energ DENC   =     -1778.89191428
  -exchange      EXHF   =         0.00000000
  -V(xc)+E(xc)   XCENC  =      -238.03839098
  PAW double counting   =       926.72832994     -651.66042619
  entropy T*S    EENTRO =        -0.00000000
  eigenvalues    EBANDS =      -155.42282936
  atomic energy  EATOM  =       702.42789710
  Solvation  Ediel_sol  =         0.00000000
  ---------------------------------------------------
  free energy    TOTEN  =       -16.30491345 eV

  energy without entropy =      -16.30491345  energy(sigma->0) =      -16.30491345


--------------------------------------------------------------------------------------------------------




--------------------------------------- Iteration      1(   7)  ---------------------------------------


    POTLOK:  cpu time    0.0370: real time    0.0372
    SETDIJ:  cpu time    0.0033: real time    0.0033
     EDDAV:  cpu time    7.6421: real time    8.0738
       DOS:  cpu time    0.0037: real time    0.0037
    CHARGE:  cpu time    3.0711: real time    3.3777
    MIXING:  cpu time    0.0012: real time    0.0016
    --------------------------------------------
      LOOP:  cpu time   10.7584: real time   11.4973

 eigenvalue-minimisations  :  4112
 total energy-change (2. order) : 0.2910027E-01  (-0.3217615E-01)
 number of electron      20.0000000 magnetization 
 augmentation part       -4.4842174 magnetization 

 Broyden mixing:
  rms(total) = 0.10313E+00    rms(broyden)= 0.10313E+00
  rms(prec ) = 0.10863E+00
  weight for this iteration     100.00

 eigenvalues of (default mixing * dielectric matrix)
  average eigenvalue GAMMA=   1.7383
  1.3819  2.0946

 Free energy of the ion-electron system (eV)
  ---------------------------------------------------
  alpha Z        PSCENC =         9.60021974
  Ewald energy   TEWEN  =      1168.95220058
  -Hartree energ DENC   =     -1784.11828485
  -exchange      EXHF   =         0.00000000
  -V(xc)+E(xc)   XCENC  =      -237.70391996
  PAW double counting   =      1074.08162005     -799.16192591
  entropy T*S    EENTRO =        -0.00000000
  eigenvalues    EBANDS =      -150.35361993
  atomic energy  EATOM  =       702.42789710
  Solvation  Ediel_sol  =         0.00000000
  ---------------------------------------------------
  free energy    TOTEN  =       -16.27581318 eV

  energy without entropy =      -16.27581318  energy(sigma->0) =      -16.27581318


--------------------------------------------------------------------------------------------------------




--------------------------------------- Iteration      1(   8)  ---------------------------------------


    POTLOK:  cpu time    0.0372: real time    0.0373
    SETDIJ:  cpu time    0.0033: real time    0.0033
     EDDAV:  cpu time    8.3283: real time    8.7461
       DOS:  cpu time    0.0037: real time    0.0037
    CHARGE:  cpu time    0.1947: real time    0.1972
    MIXING:  cpu time    0.0012: real time    0.0012
    --------------------------------------------
      LOOP:  cpu time    8.5683: real time    8.9887

 eigenvalue-minimisations  :  4400
 total energy-change (2. order) : 0.1004401E-01  (-0.4035098E-02)
 number of electron      20.0000000 magnetization 
 augmentation part       -4.4884370 magnetization 

 Broyden mixing:
  rms(total) = 0.20553E-01    rms(broyden)= 0.20553E-01
  rms(prec ) = 0.28002E-01
  weight for this iteration     100.00

 eigenvalues of (default mixing * dielectric matrix)
  average eigenvalue GAMMA=   1.7211
  2.5447  1.3093  1.3093

 Free energy of the ion-electron system (eV)
  ---------------------------------------------------
  alpha Z        PSCENC =         9.60021974
  Ewald energy   TEWEN  =      1168.95220058
  -Hartree energ DENC   =     -1785.78355259
  -exchange      EXHF   =         0.00000000
  -V(xc)+E(xc)   XCENC  =      -237.62919385
  PAW double counting   =      1138.89001297     -864.00923984
  entropy T*S    EENTRO =        -0.00000000
  eigenvalues    EBANDS =      -148.71411327
  atomic energy  EATOM  =       702.42789710
  Solvation  Ediel_sol  =         0.00000000
  ---------------------------------------------------
  free energy    TOTEN  =       -16.26576917 eV

  energy without entropy =      -16.26576917  energy(sigma->0) =      -16.26576917


--------------------------------------------------------------------------------------------------------




--------------------------------------- Iteration      1(   9)  ---------------------------------------


    POTLOK:  cpu time    0.0374: real time    0.0375
    SETDIJ:  cpu time    0.0032: real time    0.0032
     EDDAV:  cpu time    6.6912: real time    7.0796
       DOS:  cpu time    0.0037: real time    0.0037
    CHARGE:  cpu time    0.1954: real time    0.1957
    MIXING:  cpu time    0.0012: real time    0.0012
    --------------------------------------------
      LOOP:  cpu time    6.9320: real time    7.3209

 eigenvalue-minimisations  :  4340
 total energy-change (2. order) : 0.3823404E-02  (-0.6866340E-03)
 number of electron      20.0000000 magnetization 
 augmentation part       -4.4864334 magnetization 

 Broyden mixing:
  rms(total) = 0.10151E-01    rms(broyden)= 0.10151E-01
  rms(prec ) = 0.15704E-01
  weight for this iteration     100.00

 eigenvalues of (default mixing * dielectric matrix)
  average eigenvalue GAMMA=   1.6887
  2.1844  2.1844  1.1929  1.1929

 Free energy of the ion-electron system (eV)
  ---------------------------------------------------
  alpha Z        PSCENC =         9.60021974
  Ewald energy   TEWEN  =      1168.95220058
  -Hartree energ DENC   =     -1787.81381370
  -exchange      EXHF   =         0.00000000
  -V(xc)+E(xc)   XCENC  =      -237.55446851
  PAW double counting   =      1157.78016184     -882.91213879
  entropy T*S    EENTRO =        -0.00000000
  eigenvalues    EBANDS =      -146.74200402
  atomic energy  EATOM  =       702.42789710
  Solvation  Ediel_sol  =         0.00000000
  ---------------------------------------------------
  free energy    TOTEN  =       -16.26194576 eV

  energy without entropy =      -16.26194576  energy(sigma->0) =      -16.26194576


--------------------------------------------------------------------------------------------------------




--------------------------------------- Iteration      1(  10)  ---------------------------------------


    POTLOK:  cpu time    0.0373: real time    0.0378
    SETDIJ:  cpu time    0.0032: real time    0.0033
     EDDAV:  cpu time    8.1728: real time    8.8816
       DOS:  cpu time    0.0036: real time    0.0036
    CHARGE:  cpu time    0.1944: real time    0.1948
    MIXING:  cpu time    0.0012: real time    0.0012
    --------------------------------------------
      LOOP:  cpu time    8.4126: real time    9.1224

 eigenvalue-minimisations  :  4376
 total energy-change (2. order) : 0.1203117E-02  (-0.1132535E-03)
 number of electron      20.0000000 magnetization 
 augmentation part       -4.4852377 magnetization 

 Broyden mixing:
  rms(total) = 0.51986E-02    rms(broyden)= 0.51986E-02
  rms(prec ) = 0.95661E-02
  weight for this iteration     100.00

 eigenvalues of (default mixing * dielectric matrix)
  average eigenvalue GAMMA=   1.8809
  3.3936  2.6029  1.2505  1.2505  0.9072

 Free energy of the ion-electron system (eV)
  ---------------------------------------------------
  alpha Z        PSCENC =         9.60021974
  Ewald energy   TEWEN  =      1168.95220058
  -Hartree energ DENC   =     -1789.02993213
  -exchange      EXHF   =         0.00000000
  -V(xc)+E(xc)   XCENC  =      -237.54482848
  PAW double counting   =      1147.04282569     -872.16431549
  entropy T*S    EENTRO =        -0.00000000
  eigenvalues    EBANDS =      -145.54480967
  atomic energy  EATOM  =       702.42789710
  Solvation  Ediel_sol  =         0.00000000
  ---------------------------------------------------
  free energy    TOTEN  =       -16.26074265 eV

  energy without entropy =      -16.26074265  energy(sigma->0) =      -16.26074265


--------------------------------------------------------------------------------------------------------




--------------------------------------- Iteration      1(  11)  ---------------------------------------


    POTLOK:  cpu time    0.0373: real time    0.0378
    SETDIJ:  cpu time    0.0032: real time    0.0033
     EDDAV:  cpu time   13.2851: real time   13.7231
       DOS:  cpu time    0.0037: real time    0.0037
    CHARGE:  cpu time    0.1953: real time    0.1957
    MIXING:  cpu time    0.0013: real time    0.0013
    --------------------------------------------
      LOOP:  cpu time   13.5259: real time   13.9648

 eigenvalue-minimisations  :  4256
 total energy-change (2. order) : 0.7757258E-03  (-0.1389800E-03)
 number of electron      20.0000000 magnetization 
 augmentation part       -4.4837710 magnetization 

 Broyden mixing:
  rms(total) = 0.34006E-02    rms(broyden)= 0.34006E-02
  rms(prec ) = 0.50593E-02
  weight for this iteration     100.00

 eigenvalues of (default mixing * dielectric matrix)
  average eigenvalue GAMMA=   1.8385
  3.3997  2.1778  2.1778  1.2005  1.2005  0.8745

 Free energy of the ion-electron system (eV)
  ---------------------------------------------------
  alpha Z        PSCENC =         9.60021974
  Ewald energy   TEWEN  =      1168.95220058
  -Hartree energ DENC   =     -1790.72187753
  -exchange      EXHF   =         0.00000000
  -V(xc)+E(xc)   XCENC  =      -237.51209766
  PAW double counting   =      1148.24769107     -873.36789696
  entropy T*S    EENTRO =        -0.00000000
  eigenvalues    EBANDS =      -143.88610326
  atomic energy  EATOM  =       702.42789710
  Solvation  Ediel_sol  =         0.00000000
  ---------------------------------------------------
  free energy    TOTEN  =       -16.25996692 eV

  energy without entropy =      -16.25996692  energy(sigma->0) =      -16.25996692


--------------------------------------------------------------------------------------------------------




--------------------------------------- Iteration      1(  12)  ---------------------------------------


    POTLOK:  cpu time    0.0378: real time    0.0380
    SETDIJ:  cpu time    0.0033: real time    0.0032
     EDDAV:  cpu time    9.0024: real time    9.1653
       DOS:  cpu time    0.0037: real time    0.0037
    CHARGE:  cpu time    0.1951: real time    0.1955
    MIXING:  cpu time    0.0013: real time    0.0013
    --------------------------------------------
      LOOP:  cpu time    9.2436: real time    9.4070

 eigenvalue-minimisations  :  3596
 total energy-change (2. order) :-0.8154875E-03  (-0.3155005E-04)
 number of electron      20.0000000 magnetization 
 augmentation part       -4.4831478 magnetization 

 Broyden mixing:
  rms(total) = 0.19603E-02    rms(broyden)= 0.19603E-02
  rms(prec ) = 0.29455E-02
  weight for this iteration     100.00

 eigenvalues of (default mixing * dielectric matrix)
  average eigenvalue GAMMA=   2.0736
  4.6082  3.0987  2.5052  1.2177  1.2177  1.0280  0.8397

 Free energy of the ion-electron system (eV)
  ---------------------------------------------------
  alpha Z        PSCENC =         9.60021974
  Ewald energy   TEWEN  =      1168.95220058
  -Hartree energ DENC   =     -1791.32426242
  -exchange      EXHF   =         0.00000000
  -V(xc)+E(xc)   XCENC  =      -237.50265959
  PAW double counting   =      1150.38923218     -875.51257213
  entropy T*S    EENTRO =        -0.00000000
  eigenvalues    EBANDS =      -143.29083787
  atomic energy  EATOM  =       702.42789710
  Solvation  Ediel_sol  =         0.00000000
  ---------------------------------------------------
  free energy    TOTEN  =       -16.26078241 eV

  energy without entropy =      -16.26078241  energy(sigma->0) =      -16.26078241


--------------------------------------------------------------------------------------------------------




--------------------------------------- Iteration      1(  13)  ---------------------------------------


    POTLOK:  cpu time    0.0382: real time    0.0385
    SETDIJ:  cpu time    0.0032: real time    0.0032
     EDDAV:  cpu time    5.7944: real time    5.8071
       DOS:  cpu time    0.0037: real time    0.0037
    CHARGE:  cpu time    0.1994: real time    0.1998
    MIXING:  cpu time    0.0035: real time    0.0035
    --------------------------------------------
      LOOP:  cpu time    6.0425: real time    6.0558

 eigenvalue-minimisations  :  3674
 total energy-change (2. order) :-0.4516159E-03  (-0.8738509E-05)
 number of electron      20.0000000 magnetization 
 augmentation part       -4.4829408 magnetization 

 Broyden mixing:
  rms(total) = 0.12217E-02    rms(broyden)= 0.12217E-02
  rms(prec ) = 0.15818E-02
  weight for this iteration     100.00

 eigenvalues of (default mixing * dielectric matrix)
  average eigenvalue GAMMA=   2.2194
  5.5026  3.3288  2.4708  2.1566  1.1695  1.1695  1.0480  0.9094

 Free energy of the ion-electron system (eV)
  ---------------------------------------------------
  alpha Z        PSCENC =         9.60021974
  Ewald energy   TEWEN  =      1168.95220058
  -Hartree energ DENC   =     -1791.75353678
  -exchange      EXHF   =         0.00000000
  -V(xc)+E(xc)   XCENC  =      -237.50148296
  PAW double counting   =      1149.07628579     -874.19829782
  entropy T*S    EENTRO =        -0.00000000
  eigenvalues    EBANDS =      -142.86451968
  atomic energy  EATOM  =       702.42789710
  Solvation  Ediel_sol  =         0.00000000
  ---------------------------------------------------
  free energy    TOTEN  =       -16.26123402 eV

  energy without entropy =      -16.26123402  energy(sigma->0) =      -16.26123402


--------------------------------------------------------------------------------------------------------




--------------------------------------- Iteration      1(  14)  ---------------------------------------


    POTLOK:  cpu time    0.0395: real time    0.0397
    SETDIJ:  cpu time    0.0033: real time    0.0033
     EDDAV:  cpu time    6.2609: real time    6.4669
       DOS:  cpu time    0.0037: real time    0.0038
    CHARGE:  cpu time    2.6837: real time    2.7344
    MIXING:  cpu time    0.0015: real time    0.0015
    --------------------------------------------
      LOOP:  cpu time    8.9926: real time    9.2495

 eigenvalue-minimisations  :  3968
 total energy-change (2. order) :-0.2616118E-03  (-0.4368086E-05)
 number of electron      20.0000000 magnetization 
 augmentation part       -4.4829201 magnetization 

 Broyden mixing:
  rms(total) = 0.40724E-03    rms(broyden)= 0.40724E-03
  rms(prec ) = 0.63051E-03
  weight for this iteration     100.00

 eigenvalues of (default mixing * dielectric matrix)
  average eigenvalue GAMMA=   2.2406
  6.7264  3.0758  2.5300  2.5300  1.1931  1.1931  1.0650  0.9260  0.9260

 Free energy of the ion-electron system (eV)
  ---------------------------------------------------
  alpha Z        PSCENC =         9.60021974
  Ewald energy   TEWEN  =      1168.95220058
  -Hartree energ DENC   =     -1791.96022709
  -exchange      EXHF   =         0.00000000
  -V(xc)+E(xc)   XCENC  =      -237.50138079
  PAW double counting   =      1149.35046888     -874.47186501
  entropy T*S    EENTRO =        -0.00000000
  eigenvalues    EBANDS =      -142.65880904
  atomic energy  EATOM  =       702.42789710
  Solvation  Ediel_sol  =         0.00000000
  ---------------------------------------------------
  free energy    TOTEN  =       -16.26149563 eV

  energy without entropy =      -16.26149563  energy(sigma->0) =      -16.26149563


--------------------------------------------------------------------------------------------------------




--------------------------------------- Iteration      1(  15)  ---------------------------------------


    POTLOK:  cpu time    0.0392: real time    0.0398
    SETDIJ:  cpu time    0.0033: real time    0.0038
     EDDAV:  cpu time    7.3727: real time    7.9070
       DOS:  cpu time    0.0037: real time    0.0037
    CHARGE:  cpu time    0.1955: real time    0.1959
    MIXING:  cpu time    0.0016: real time    0.0015
    --------------------------------------------
      LOOP:  cpu time    7.6160: real time    8.1517

 eigenvalue-minimisations  :  3808
 total energy-change (2. order) :-0.5614656E-04  (-0.2062102E-06)
 number of electron      20.0000000 magnetization 
 augmentation part       -4.4829374 magnetization 

 Broyden mixing:
  rms(total) = 0.35387E-03    rms(broyden)= 0.35387E-03
  rms(prec ) = 0.52279E-03
  weight for this iteration     100.00

 eigenvalues of (default mixing * dielectric matrix)
  average eigenvalue GAMMA=   2.3520
  6.5191  4.2520  2.7066  2.7066  1.9726  1.1464  1.1464  1.2030  0.9336  0.9336

 Free energy of the ion-electron system (eV)
  ---------------------------------------------------
  alpha Z        PSCENC =         9.60021974
  Ewald energy   TEWEN  =      1168.95220058
  -Hartree energ DENC   =     -1791.97716926
  -exchange      EXHF   =         0.00000000
  -V(xc)+E(xc)   XCENC  =      -237.50164877
  PAW double counting   =      1149.21506115     -874.33636077
  entropy T*S    EENTRO =        -0.00000000
  eigenvalues    EBANDS =      -142.64175155
  atomic energy  EATOM  =       702.42789710
  Solvation  Ediel_sol  =         0.00000000
  ---------------------------------------------------
  free energy    TOTEN  =       -16.26155178 eV

  energy without entropy =      -16.26155178  energy(sigma->0) =      -16.26155178


--------------------------------------------------------------------------------------------------------




--------------------------------------- Iteration      1(  16)  ---------------------------------------


    POTLOK:  cpu time    0.0378: real time    0.0383
    SETDIJ:  cpu time    0.0032: real time    0.0032
     EDDAV:  cpu time    4.0065: real time    4.1600
       DOS:  cpu time    0.0037: real time    0.0037
    CHARGE:  cpu time    3.1792: real time    3.5691
    MIXING:  cpu time    0.0016: real time    0.0016
    --------------------------------------------
      LOOP:  cpu time    7.2320: real time    7.7759

 eigenvalue-minimisations  :  3474
 total energy-change (2. order) :-0.4839182E-04  (-0.8468562E-06)
 number of electron      20.0000000 magnetization 
 augmentation part       -4.4829495 magnetization 

 Broyden mixing:
  rms(total) = 0.13189E-03    rms(broyden)= 0.13189E-03
  rms(prec ) = 0.23198E-03
  weight for this iteration     100.00

 eigenvalues of (default mixing * dielectric matrix)
  average eigenvalue GAMMA=   2.2832
  6.8010  4.4916  2.6401  2.6401  2.2870  1.1640  1.1640  1.1808  0.9333  0.9333
  0.8796

 Free energy of the ion-electron system (eV)
  ---------------------------------------------------
  alpha Z        PSCENC =         9.60021974
  Ewald energy   TEWEN  =      1168.95220058
  -Hartree energ DENC   =     -1792.02967832
  -exchange      EXHF   =         0.00000000
  -V(xc)+E(xc)   XCENC  =      -237.50177805
  PAW double counting   =      1149.02254524     -874.14382588
  entropy T*S    EENTRO =        -0.00000000
  eigenvalues    EBANDS =      -142.58918060
  atomic energy  EATOM  =       702.42789710
  Solvation  Ediel_sol  =         0.00000000
  ---------------------------------------------------
  free energy    TOTEN  =       -16.26160017 eV

  energy without entropy =      -16.26160017  energy(sigma->0) =      -16.26160017


--------------------------------------------------------------------------------------------------------




--------------------------------------- Iteration      1(  17)  ---------------------------------------


    POTLOK:  cpu time    0.0376: real time    0.0379
    SETDIJ:  cpu time    0.0033: real time    0.0033
     EDDAV:  cpu time    4.0671: real time    4.5725
       DOS:  cpu time    0.0037: real time    0.0037
    CHARGE:  cpu time    0.1931: real time    0.1935
    MIXING:  cpu time    0.0017: real time    0.0017
    --------------------------------------------
[...]
      3      -8.6141      2.00000
      4      -8.4738      2.00000
      5      -6.4134      2.00000
      6      -5.5122      2.00000
      7      -5.0539      2.00000
      8      -4.3218      2.00000
      9      -3.9764      2.00000
     10      -3.3777      2.00000
     11       0.5768      0.00000
     12       1.3777      0.00000
     13       1.6685      0.00000
     14       2.3525      0.00000

 k-point    95 :      -0.2667    0.4000    0.0000
  band No.  band energies     occupation 
      1     -14.5358      2.00000
      2     -14.2773      2.00000
      3      -8.8081      2.00000
      4      -8.5893      2.00000
      5      -6.0790      2.00000
      6      -5.1078      2.00000
      7      -4.7941      2.00000
      8      -4.0562      2.00000
      9      -3.8783      2.00000
     10      -3.0775      2.00000
     11       0.1834      0.00000
     12       1.1268      0.00000
     13       1.2322      0.00000
     14       1.6528      0.00000

 k-point    96 :      -0.2000    0.4000    0.0000
  band No.  band energies     occupation 
      1     -14.6091      2.00000
      2     -14.3035      2.00000
      3      -8.9831      2.00000
      4      -8.7011      2.00000
      5      -5.6216      2.00000
      6      -4.8002      2.00000
      7      -4.5383      2.00000
      8      -3.9261      2.00000
      9      -3.4784      2.00000
     10      -2.6668      2.00000
     11      -0.2944      0.00000
     12       0.6498      0.00000
     13       0.7301      0.00000
     14       1.2544      0.00000

 k-point    97 :      -0.1333    0.4000    0.0000
  band No.  band energies     occupation 
      1     -14.6678      2.00000
      2     -14.3291      2.00000
      3      -9.1179      2.00000
      4      -8.7923      2.00000
      5      -5.0832      2.00000
      6      -4.7457      2.00000
      7      -4.1102      2.00000
      8      -3.8849      2.00000
      9      -2.8746      2.00000
     10      -2.3984      2.00000
     11      -0.5987      0.00000
     12      -0.0989      0.00000
     13       0.4942      0.00000
     14       0.8383      0.00000

 k-point    98 :      -0.0667    0.4000    0.0000
  band No.  band energies     occupation 
      1     -14.7056      2.00000
      2     -14.3474      2.00000
      3      -9.2019      2.00000
      4      -8.8513      2.00000
      5      -4.7574      2.00000
      6      -4.5288      2.00000
      7      -3.9061      2.00000
      8      -3.6769      2.00000
      9      -2.5672      2.00000
     10      -2.2631      2.00000
     11      -0.7177      0.00000
     12      -0.3467      0.00000
     13       0.2668      0.00000
     14       0.3696      0.00000

 k-point    99 :       0.0000    0.4667    0.0000
  band No.  band energies     occupation 
      1     -14.5725      2.00000
      2     -14.4470      2.00000
      3      -9.2176      2.00000
      4      -9.0941      2.00000
      5      -4.5138      2.00000
      6      -4.2811      2.00000
      7      -3.7833      2.00000
      8      -3.5803      2.00000
      9      -2.4711      2.00000
     10      -2.1028      2.00000
     11      -0.8558      0.00000
     12      -0.3968      0.00000
     13      -0.0619      0.00000
     14       0.1408      0.00000

 k-point   100 :       0.0667    0.4667    0.0000
  band No.  band energies     occupation 
      1     -14.5617      2.00000
      2     -14.4385      2.00000
      3      -9.1883      2.00000
      4      -9.0677      2.00000
      5      -4.5239      2.00000
      6      -4.3813      2.00000
      7      -3.9625      2.00000
      8      -3.8071      2.00000
      9      -2.3783      2.00000
     10      -2.2745      2.00000
     11      -0.7635      0.00000
     12      -0.6621      0.00000
     13       0.3235      0.00000
     14       0.6210      0.00000

 k-point   101 :       0.1333    0.4667    0.0000
  band No.  band energies     occupation 
      1     -14.5305      2.00000
      2     -14.4141      2.00000
      3      -9.1016      2.00000
      4      -8.9897      2.00000
      5      -4.7981      2.00000
      6      -4.6206      2.00000
      7      -4.2102      2.00000
      8      -4.0957      2.00000
      9      -2.7848      2.00000
     10      -2.5655      2.00000
     11      -0.5034      0.00000
     12      -0.2507      0.00000
     13       0.7965      0.00000
     14       0.9223      0.00000

 k-point   102 :       0.2000    0.4667    0.0000
  band No.  band energies     occupation 
      1     -14.4830      2.00000
      2     -14.3780      2.00000
      3      -8.9609      2.00000
      4      -8.8642      2.00000
      5      -5.3338      2.00000
      6      -5.0047      2.00000
      7      -4.4028      2.00000
      8      -4.1657      2.00000
      9      -3.3402      2.00000
     10      -3.0321      2.00000
     11       0.0428      0.00000
     12       0.4137      0.00000
     13       1.0422      0.00000
     14       1.2717      0.00000

 k-point   103 :       0.2667    0.4667    0.0000
  band No.  band energies     occupation 
      1     -14.4255      2.00000
      2     -14.3368      2.00000
      3      -8.7737      2.00000
      4      -8.6996      2.00000
      5      -5.8315      2.00000
      6      -5.4838      2.00000
      7      -4.5942      2.00000
      8      -4.3299      2.00000
      9      -3.7095      2.00000
     10      -3.4295      2.00000
     11       0.5473      0.00000
     12       0.9043      0.00000
     13       1.4903      0.00000
     14       1.7497      0.00000

 k-point   104 :       0.3333    0.4667    0.0000
  band No.  band energies     occupation 
      1     -14.3663      2.00000
      2     -14.2987      2.00000
      3      -8.5563      2.00000
      4      -8.5114      2.00000
      5      -6.2422      2.00000
      6      -5.9217      2.00000
      7      -4.9110      2.00000
      8      -4.6463      2.00000
      9      -3.8191      2.00000
     10      -3.6178      2.00000
     11       0.8857      0.00000
     12       1.1570      0.00000
     13       2.0851      0.00000
     14       2.3701      0.00000

 k-point   105 :       0.4000    0.4667    0.0000
  band No.  band energies     occupation 
      1     -14.3147      2.00000
      2     -14.2721      2.00000
      3      -8.3434      2.00000
      4      -8.3283      2.00000
      5      -6.5315      2.00000
      6      -6.2915      2.00000
      7      -5.1869      2.00000
      8      -4.9880      2.00000
      9      -3.8073      2.00000
     10      -3.6857      2.00000
     11       1.1287      0.00000
     12       1.2990      0.00000
     13       2.5838      0.00000
     14       2.8193      0.00000

 k-point   106 :       0.4667    0.4667    0.0000
  band No.  band energies     occupation 
      1     -14.2789      2.00000
      2     -14.2644      2.00000
      3      -8.2021      2.00000
      4      -8.2020      2.00000
      5      -6.6507      2.00000
      6      -6.5582      2.00000
      7      -5.3030      2.00000
      8      -5.2287      2.00000
      9      -3.7660      2.00000
     10      -3.7250      2.00000
     11       1.2918      0.00000
     12       1.3499      0.00000
     13       2.7000      0.00000
     14       2.7727      0.00000

 k-point   107 :      -0.4667    0.4667    0.0000
  band No.  band energies     occupation 
      1     -14.2789      2.00000
      2     -14.2644      2.00000
      3      -8.2021      2.00000
      4      -8.2020      2.00000
      5      -6.6507      2.00000
      6      -6.5582      2.00000
      7      -5.3030      2.00000
      8      -5.2287      2.00000
      9      -3.7660      2.00000
     10      -3.7250      2.00000
     11       1.2918      0.00000
     12       1.3499      0.00000
     13       2.7000      0.00000
     14       2.7727      0.00000

 k-point   108 :      -0.4000    0.4667    0.0000
  band No.  band energies     occupation 
      1     -14.3147      2.00000
      2     -14.2721      2.00000
      3      -8.3434      2.00000
      4      -8.3283      2.00000
      5      -6.5315      2.00000
      6      -6.2915      2.00000
      7      -5.1869      2.00000
      8      -4.9880      2.00000
      9      -3.8073      2.00000
     10      -3.6857      2.00000
     11       1.1287      0.00000
     12       1.2990      0.00000
     13       2.5838      0.00000
     14       2.8193      0.00000

 k-point   109 :      -0.3333    0.4667    0.0000
  band No.  band energies     occupation 
      1     -14.3663      2.00000
      2     -14.2987      2.00000
      3      -8.5563      2.00000
      4      -8.5114      2.00000
      5      -6.2422      2.00000
      6      -5.9217      2.00000
      7      -4.9110      2.00000
      8      -4.6463      2.00000
      9      -3.8191      2.00000
     10      -3.6178      2.00000
     11       0.8857      0.00000
     12       1.1570      0.00000
     13       2.0851      0.00000
     14       2.3701      0.00000

 k-point   110 :      -0.2667    0.4667    0.0000
  band No.  band energies     occupation 
      1     -14.4255      2.00000
      2     -14.3368      2.00000
      3      -8.7737      2.00000
      4      -8.6996      2.00000
      5      -5.8315      2.00000
      6      -5.4838      2.00000
      7      -4.5942      2.00000
      8      -4.3299      2.00000
      9      -3.7095      2.00000
     10      -3.4295      2.00000
     11       0.5473      0.00000
     12       0.9043      0.00000
     13       1.4903      0.00000
     14       1.7497      0.00000

 k-point   111 :      -0.2000    0.4667    0.0000
  band No.  band energies     occupation 
      1     -14.4830      2.00000
      2     -14.3780      2.00000
      3      -8.9609      2.00000
      4      -8.8642      2.00000
      5      -5.3338      2.00000
      6      -5.0047      2.00000
      7      -4.4028      2.00000
      8      -4.1657      2.00000
      9      -3.3402      2.00000
     10      -3.0321      2.00000
     11       0.0428      0.00000
     12       0.4137      0.00000
     13       1.0422      0.00000
     14       1.2717      0.00000

 k-point   112 :      -0.1333    0.4667    0.0000
  band No.  band energies     occupation 
      1     -14.5305      2.00000
      2     -14.4141      2.00000
      3      -9.1016      2.00000
      4      -8.9897      2.00000
      5      -4.7981      2.00000
      6      -4.6206      2.00000
      7      -4.2102      2.00000
      8      -4.0957      2.00000
      9      -2.7848      2.00000
     10      -2.5655      2.00000
     11      -0.5034      0.00000
     12      -0.2507      0.00000
     13       0.7965      0.00000
     14       0.9223      0.00000

 k-point   113 :      -0.0667    0.4667    0.0000
  band No.  band energies     occupation 
      1     -14.5617      2.00000
      2     -14.4385      2.00000
      3      -9.1883      2.00000
      4      -9.0677      2.00000
      5      -4.5239      2.00000
      6      -4.3813      2.00000
      7      -3.9625      2.00000
      8      -3.8071      2.00000
      9      -2.3783      2.00000
     10      -2.2745      2.00000
     11      -0.7635      0.00000
     12      -0.6621      0.00000
     13       0.3235      0.00000
     14       0.6210      0.00000


--------------------------------------------------------------------------------------------------------


 soft charge-density along one line, spin component           1
         0         1         2         3         4         5         6         7         8         9
 total charge-density along one line
 
 pseudopotential strength for first ion, spin component:           1
 30.068 -23.424   0.000  -0.089   0.028   0.000  -0.140   0.044
-23.424  28.110  -0.000   0.050  -0.015  -0.000   0.082  -0.025
  0.000  -0.000   6.328   0.000   0.000   9.790   0.000   0.000
 -0.089   0.050   0.000   6.326   0.001   0.000   9.787   0.002
  0.028  -0.015   0.000   0.001   6.328   0.000   0.002   9.790
  0.000  -0.000   9.790   0.000   0.000  15.217   0.000   0.000
 -0.140   0.082   0.000   9.787   0.002   0.000  15.211   0.003
  0.044  -0.025   0.000   0.002   9.790   0.000   0.003  15.216
  0.000   0.000   0.006  -0.000   0.000   0.009  -0.000   0.000
  0.000  -0.000  -0.020   0.000  -0.000  -0.031   0.000  -0.000
 -0.002   0.003  -0.000  -0.022  -0.003  -0.000  -0.035  -0.005
  0.002  -0.001  -0.000   0.007  -0.020  -0.000   0.010  -0.031
 -0.000   0.000  -0.000  -0.000   0.007  -0.000  -0.000   0.010
 total augmentation occupancy for first ion, spin component:           1
  2.026  -0.015   0.000   0.237  -0.070   0.000  -0.042   0.012   0.000   0.000   0.024   0.002   0.000
 -0.015   0.009   0.000  -0.073   0.022  -0.000   0.018  -0.005   0.000  -0.000  -0.002   0.001  -0.000
  0.000   0.000   1.509   0.000  -0.000  -0.406  -0.000   0.000   0.099  -0.042  -0.000   0.000  -0.000
  0.237  -0.073   0.000   1.839  -0.001  -0.000  -0.487  -0.011   0.000   0.000  -0.269  -0.014  -0.000
 -0.070   0.022  -0.000  -0.001   1.497   0.000  -0.011  -0.399   0.000   0.000  -0.063  -0.044  -0.005
  0.000  -0.000  -0.406  -0.000   0.000   0.118   0.000  -0.000  -0.026   0.011   0.000  -0.000   0.000
 -0.042   0.018  -0.000  -0.487  -0.011   0.000   0.141   0.006  -0.000  -0.000   0.075   0.004   0.000
  0.012  -0.005   0.000  -0.011  -0.399  -0.000   0.006   0.115  -0.000  -0.000   0.017   0.012   0.002
  0.000   0.000   0.099   0.000   0.000  -0.026  -0.000  -0.000   0.079   0.000  -0.000  -0.000  -0.000
  0.000  -0.000  -0.042   0.000   0.000   0.011  -0.000  -0.000   0.000   0.021  -0.000   0.000   0.000
  0.024  -0.002  -0.000  -0.269  -0.063   0.000   0.075   0.017  -0.000  -0.000   0.079   0.005   0.001
  0.002   0.001   0.000  -0.014  -0.044  -0.000   0.004   0.012  -0.000   0.000   0.005   0.022   0.000
  0.000  -0.000  -0.000  -0.000  -0.005   0.000   0.000   0.002  -0.000   0.000   0.001   0.000   0.017


------------------------ aborting loop because EDIFF is reached ----------------------------------------


    CHARGE:  cpu time    0.1906: real time    0.1909
    FORLOC:  cpu time    0.0020: real time    0.0020
    FORNL :  cpu time    0.3544: real time    0.3550
    STRESS:  cpu time    0.6216: real time    0.6231
    FORCOR:  cpu time    0.0388: real time    0.0389
    FORHAR:  cpu time    0.0097: real time    0.0097
    MIXING:  cpu time    0.0008: real time    0.0008
    OFIELD:  cpu time    0.0000: real time    0.0000

  FORCE on cell =-STRESS in cart. coord.  units (eV):
  Direction    XX          YY          ZZ          XY          YZ          ZX
  --------------------------------------------------------------------------------------
  Alpha Z     9.60022     9.60022     9.60022
  Ewald    1623.47910  1626.49215 -2083.07774    -0.00000    -0.00000     0.00117
  Hartree  1743.10163  1744.09102 -1696.90524    -0.00000     0.00000     0.00021
  E(xc)     -77.70090   -77.70671   -78.93885     0.00000     0.00000    -0.00001
  Local   -3619.35075 -3622.96626  3525.08109     0.00000    -0.00000    -0.00128
  n-local   162.61590   162.74221   167.27716    -0.00000    -0.00000     0.00012
  augment   -31.87616   -31.83383   -32.80388     0.00000     0.00000     0.00000
  Kinetic   190.39211   189.79603   189.76585     0.00000     0.00000    -0.00019
  Fock        0.00000     0.00000     0.00000     0.00000     0.00000     0.00000
  -------------------------------------------------------------------------------------
  Total       0.26116     0.21482    -0.00138    -0.00000     0.00000     0.00003
  in kB       1.12341     0.92409    -0.00593    -0.00000     0.00000     0.00012
  external pressure =        0.68 kB  Pullay stress =        0.00 kB


 VOLUME and BASIS-vectors are now :
 -----------------------------------------------------------------------------
  energy-cutoff  :      600.00
  volume of cell :      372.46
      direct lattice vectors                 reciprocal lattice vectors
     4.338533197  0.000000000  0.000000000     0.230492647  0.000000000  0.000000000
     0.000000000  4.292477857  0.000000000     0.000000000  0.232965675  0.000000000
     0.000000000  0.000000000 20.000000000     0.000000000  0.000000000  0.050000000

  length of vectors
     4.338533197  4.292477857 20.000000000     0.230492647  0.232965675  0.050000000


 FORCES acting on ions
    electron-ion (+dipol)            ewald-force                    non-local-force                 convergence-correction
 -----------------------------------------------------------------------------------------------
   0.329E+01 0.131E-05 -.145E+03   -.449E+01 -.873E-06 0.149E+03   0.119E+01 -.339E-06 -.379E+01   -.233E-03 -.131E-06 -.328E-03
   0.329E+01 -.212E-05 0.145E+03   -.449E+01 0.317E-05 -.149E+03   0.119E+01 -.983E-06 0.379E+01   -.241E-03 -.586E-07 0.176E-03
   -.415E+01 -.111E-05 -.209E+03   0.449E+01 0.865E-06 0.211E+03   -.346E+00 0.107E-06 -.203E+01   0.386E-02 0.215E-06 -.329E-03
   -.415E+01 0.352E-05 0.209E+03   0.449E+01 -.316E-05 -.211E+03   -.346E+00 -.213E-06 0.203E+01   0.386E-02 -.209E-06 -.718E-05
 -----------------------------------------------------------------------------------------------
   -.170E+01 0.160E-05 0.717E-03   0.888E-15 -.204E-14 -.284E-13   0.170E+01 -.143E-05 -.223E-03   0.725E-02 -.184E-06 -.488E-03
 
 
 POSITION                                       TOTAL-FORCE (eV/Angst)
 -----------------------------------------------------------------------------------
      2.49929      3.21936     11.37327         0.000195     -0.000000      0.000208
      0.33002      1.07312      8.62668         0.000194      0.000000      0.000465
      0.16502      1.07312     11.34642        -0.000180      0.000000     -0.000388
      2.33429      3.21936      8.65363        -0.000209     -0.000000     -0.000285
 -----------------------------------------------------------------------------------
    total drift:                                0.000334     -0.000000      0.000005


--------------------------------------------------------------------------------------------------------



  FREE ENERGIE OF THE ION-ELECTRON SYSTEM (eV)
  ---------------------------------------------------
  free  energy   TOTEN  =       -16.26311475 eV

  energy  without entropy=      -16.26311475  energy(sigma->0) =      -16.26311475
 
 d Force = 0.2269140E-05[ 0.627E-06, 0.391E-05]  d Energy = 0.2417646E-05-0.149E-06
 d Force = 0.4771725E-02[ 0.469E-02, 0.485E-02]  d Ewald  = 0.4771722E-02 0.262E-08


--------------------------------------------------------------------------------------------------------


    POTLOK:  cpu time    0.0399: real time    0.0400


--------------------------------------------------------------------------------------------------------




--------------------------------------------------------------------------------------------------------


  
 reached required accuracy - stopping structural energy minimisation
 writing wavefunctions
     LOOP+:  cpu time   10.2149: real time   10.5960
    4ORBIT:  cpu time    0.0000: real time    0.0000

 total amount of memory used by VASP MPI-rank0    63612. kBytes
=======================================================================

   base      :      30000. kBytes
   nonl-proj :      12656. kBytes
   fftplans  :       2678. kBytes
   grid      :       4349. kBytes
   one-center:          8. kBytes
   wavefun   :      13921. kBytes
 
  
  
 General timing and accounting informations for this job:
 ========================================================
  
                  Total CPU time used (sec):      548.610
                            User time (sec):      547.556
                          System time (sec):        1.054
                         Elapsed time (sec):      589.217
  
                   Maximum memory used (kb):      212552.
                   Average memory used (kb):           0.
  
                          Minor page faults:       186414
                          Major page faults:          131
                 Voluntary context switches:        12783
