
     Program PWSCF v.6.6 starts on  8May2023 at  6:23:51 

     This program is part of the open-source Quantum ESPRESSO suite
     for quantum simulation of materials; please cite
         "P. Giannozzi et al., J. Phys.:Condens. Matter 21 395502 (2009);
         "P. Giannozzi et al., J. Phys.:Condens. Matter 29 465901 (2017);
          URL http://www.quantum-espresso.org", 
     in publications or presentations arising from this work. More details at
     http://www.quantum-espresso.org/quote

     Parallel version (MPI), running on    24 processors

     MPI processes distributed on     1 nodes
     R & G space division:  proc/nbgrp/npool/nimage =      24
     Fft bands division:     nmany     =       1
     Reading input from INCAR-relax.pw
Warning: card &CELL ignored
Warning: card     CELL_DYNAMICS  = "BFGS" ignored
Warning: card     ! CELL_DOFREE = "XY" ignored
Warning: card / ignored

     Current dimensions of program PWSCF are:
     Max number of different atomic species (ntypx) = 10
     Max number of k-points (npk) =  40000
     Max angular momentum in pseudopotentials (lmaxx) =  3

     Subspace diagonalization in iterative solution of the eigenvalue problem:
     a serial algorithm will be used

     Message from routine setup:
     using ibrav=0 with symmetry is DISCOURAGED, use correct ibrav instead
 
     Parallelization info
     --------------------
     sticks:   dense  smooth     PW     G-vecs:    dense   smooth      PW
     Min         133      71     20                26207    10197    1504
     Max         134      72     21                26220    10215    1513
     Sum        3203    1705    485               629105   244919   36161
 


     bravais-lattice index     =            0
     lattice parameter (alat)  =       8.2769  a.u.
     unit-cell volume          =    2534.6301 (a.u.)^3
     number of atoms/cell      =            4
     number of atomic types    =            2
     number of electrons       =        40.00
     number of Kohn-Sham states=           24
     kinetic-energy cutoff     =      80.0000  Ry
     charge density cutoff     =     600.0000  Ry
     convergence threshold     =      1.0E-10
     mixing beta               =       0.7000
     number of iterations used =            8  plain     mixing
     Exchange-correlation= SLA  PW   PBE  PBE
                           (   1   4   3   4   0   0   0)
     nstep                     =          100


     celldm(1)=   8.276885  celldm(2)=   0.000000  celldm(3)=   0.000000
     celldm(4)=   0.000000  celldm(5)=   0.000000  celldm(6)=   0.000000

     crystal axes: (cart. coord. in units of alat)
               a(1) = (   1.000000   0.000000   0.000000 )  
               a(2) = (   0.000000   0.978931   0.000000 )  
               a(3) = (   0.000000   0.000000   4.566274 )  

     reciprocal axes: (cart. coord. in units 2 pi/alat)
               b(1) = (  1.000000  0.000000  0.000000 )  
               b(2) = (  0.000000  1.021523  0.000000 )  
               b(3) = (  0.000000  0.000000  0.218997 )  


     PseudoPot. # 1 for Sn read from file:
     ./Sn_pbe_v1.uspp.F.UPF
     MD5 check sum: 4cf58ce39ec5d5d420df3dd08604eb00
     Pseudo is Ultrasoft + core correction, Zval = 14.0
     Generated by new atomic code, or converted to UPF format
     Using radial grid of  891 points,  6 beta functions with: 
                l(1) =   0
                l(2) =   0
                l(3) =   1
                l(4) =   1
                l(5) =   2
                l(6) =   2
     Q(r) pseudized with  6 coefficients,  rinner =    1.200   1.200   1.200
                                                       1.200   1.200

     PseudoPot. # 2 for Se read from file:
     ./Se_pbe_v1.uspp.F.UPF
     MD5 check sum: 1b3568f3a8ae88f9a2a0ad0698632c85
     Pseudo is Ultrasoft + core correction, Zval =  6.0
     Generated by new atomic code, or converted to UPF format
     Using radial grid of  877 points,  6 beta functions with: 
                l(1) =   0
                l(2) =   0
                l(3) =   1
                l(4) =   1
                l(5) =   2
                l(6) =   2
     Q(r) pseudized with  8 coefficients,  rinner =    1.300   1.300   1.300
                                                       1.300   1.300

     atomic species   valence    mass     pseudopotential
        Sn            14.00   118.71000     Sn( 1.00)
        Se             6.00    78.96000     Se( 1.00)

      2 Sym. Ops. (no inversion) found ( 1 have fractional translation)



   Cartesian axes

     site n.     atom                  positions (alat units)
         1           Sn  tau(   1) = (   0.5839905   0.7341980   0.6600835  )
         2           Sn  tau(   2) = (   0.0839891   0.2447327   0.0300899  )
         3           Se  tau(   3) = (   0.0301155   0.2447327   0.6498687  )
         4           Se  tau(   4) = (   0.5301129   0.7341980   0.0402971  )

     number of k points=    64  Marzari-Vanderbilt smearing, width (Ry)=  0.0100
                       cart. coord. in units 2pi/alat
        k(    1) = (   0.0000000   0.0000000   0.0000000), wk =   0.0088889
        k(    2) = (   0.0000000   0.0681015   0.0000000), wk =   0.0177778
        k(    3) = (   0.0000000   0.1362030   0.0000000), wk =   0.0177778
        k(    4) = (   0.0000000   0.2043046   0.0000000), wk =   0.0177778
        k(    5) = (   0.0000000   0.2724061   0.0000000), wk =   0.0177778
        k(    6) = (   0.0000000   0.3405076   0.0000000), wk =   0.0177778
        k(    7) = (   0.0000000   0.4086091   0.0000000), wk =   0.0177778
        k(    8) = (   0.0000000   0.4767106   0.0000000), wk =   0.0177778
        k(    9) = (   0.0666667   0.0000000   0.0000000), wk =   0.0177778
        k(   10) = (   0.0666667   0.0681015   0.0000000), wk =   0.0355556
        k(   11) = (   0.0666667   0.1362030   0.0000000), wk =   0.0355556
        k(   12) = (   0.0666667   0.2043046   0.0000000), wk =   0.0355556
        k(   13) = (   0.0666667   0.2724061   0.0000000), wk =   0.0355556
        k(   14) = (   0.0666667   0.3405076   0.0000000), wk =   0.0355556
        k(   15) = (   0.0666667   0.4086091   0.0000000), wk =   0.0355556
        k(   16) = (   0.0666667   0.4767106   0.0000000), wk =   0.0355556
        k(   17) = (   0.1333333   0.0000000   0.0000000), wk =   0.0177778
        k(   18) = (   0.1333333   0.0681015   0.0000000), wk =   0.0355556
        k(   19) = (   0.1333333   0.1362030   0.0000000), wk =   0.0355556
        k(   20) = (   0.1333333   0.2043046   0.0000000), wk =   0.0355556
        k(   21) = (   0.1333333   0.2724061   0.0000000), wk =   0.0355556
        k(   22) = (   0.1333333   0.3405076   0.0000000), wk =   0.0355556
        k(   23) = (   0.1333333   0.4086091   0.0000000), wk =   0.0355556
        k(   24) = (   0.1333333   0.4767106   0.0000000), wk =   0.0355556
        k(   25) = (   0.2000000   0.0000000   0.0000000), wk =   0.0177778
        k(   26) = (   0.2000000   0.0681015   0.0000000), wk =   0.0355556
        k(   27) = (   0.2000000   0.1362030   0.0000000), wk =   0.0355556
        k(   28) = (   0.2000000   0.2043046   0.0000000), wk =   0.0355556
        k(   29) = (   0.2000000   0.2724061   0.0000000), wk =   0.0355556
        k(   30) = (   0.2000000   0.3405076   0.0000000), wk =   0.0355556
        k(   31) = (   0.2000000   0.4086091   0.0000000), wk =   0.0355556
        k(   32) = (   0.2000000   0.4767106   0.0000000), wk =   0.0355556
        k(   33) = (   0.2666667   0.0000000   0.0000000), wk =   0.0177778
        k(   34) = (   0.2666667   0.0681015   0.0000000), wk =   0.0355556
        k(   35) = (   0.2666667   0.1362030   0.0000000), wk =   0.0355556
        k(   36) = (   0.2666667   0.2043046   0.0000000), wk =   0.0355556
        k(   37) = (   0.2666667   0.2724061   0.0000000), wk =   0.0355556
        k(   38) = (   0.2666667   0.3405076   0.0000000), wk =   0.0355556
        k(   39) = (   0.2666667   0.4086091   0.0000000), wk =   0.0355556
        k(   40) = (   0.2666667   0.4767106   0.0000000), wk =   0.0355556
        k(   41) = (   0.3333333   0.0000000   0.0000000), wk =   0.0177778
        k(   42) = (   0.3333333   0.0681015   0.0000000), wk =   0.0355556
        k(   43) = (   0.3333333   0.1362030   0.0000000), wk =   0.0355556
        k(   44) = (   0.3333333   0.2043046   0.0000000), wk =   0.0355556
        k(   45) = (   0.3333333   0.2724061   0.0000000), wk =   0.0355556
        k(   46) = (   0.3333333   0.3405076   0.0000000), wk =   0.0355556
        k(   47) = (   0.3333333   0.4086091   0.0000000), wk =   0.0355556
        k(   48) = (   0.3333333   0.4767106   0.0000000), wk =   0.0355556
        k(   49) = (   0.4000000   0.0000000   0.0000000), wk =   0.0177778
        k(   50) = (   0.4000000   0.0681015   0.0000000), wk =   0.0355556
        k(   51) = (   0.4000000   0.1362030   0.0000000), wk =   0.0355556
        k(   52) = (   0.4000000   0.2043046   0.0000000), wk =   0.0355556
        k(   53) = (   0.4000000   0.2724061   0.0000000), wk =   0.0355556
        k(   54) = (   0.4000000   0.3405076   0.0000000), wk =   0.0355556
        k(   55) = (   0.4000000   0.4086091   0.0000000), wk =   0.0355556
        k(   56) = (   0.4000000   0.4767106   0.0000000), wk =   0.0355556
        k(   57) = (   0.4666667   0.0000000   0.0000000), wk =   0.0177778
        k(   58) = (   0.4666667   0.0681015   0.0000000), wk =   0.0355556
        k(   59) = (   0.4666667   0.1362030   0.0000000), wk =   0.0355556
        k(   60) = (   0.4666667   0.2043046   0.0000000), wk =   0.0355556
        k(   61) = (   0.4666667   0.2724061   0.0000000), wk =   0.0355556
        k(   62) = (   0.4666667   0.3405076   0.0000000), wk =   0.0355556
        k(   63) = (   0.4666667   0.4086091   0.0000000), wk =   0.0355556
        k(   64) = (   0.4666667   0.4767106   0.0000000), wk =   0.0355556

     Dense  grid:   629105 G-vectors     FFT dimensions: (  72,  64, 300)

     Smooth grid:   244919 G-vectors     FFT dimensions: (  48,  48, 216)

     Estimated max dynamical RAM per process >     127.62 MB

     Estimated total dynamical RAM >       2.99 GB

     Initial potential from superposition of free atoms

     starting charge   37.99977, renormalised to   40.00000

     negative rho (up, down):  2.843E-03 0.000E+00
     Starting wfcs are   26 randomized atomic wfcs

     total cpu time spent up to now is        3.1 secs

     Self-consistent Calculation

     iteration #  1     ecut=    80.00 Ry     beta= 0.70
     Davidson diagonalization with overlap
     ethr =  1.00E-02,  avg # of iterations =  3.7

     negative rho (up, down):  5.660E-04 0.000E+00

     total cpu time spent up to now is        8.2 secs

     total energy              =    -413.24258542 Ry
     estimated scf accuracy    <       1.34515245 Ry

     iteration #  2     ecut=    80.00 Ry     beta= 0.70
     Davidson diagonalization with overlap
     ethr =  3.36E-03,  avg # of iterations =  2.2

     negative rho (up, down):  1.131E-04 0.000E+00

     total cpu time spent up to now is       13.3 secs

     total energy              =    -413.63945279 Ry
     estimated scf accuracy    <       0.66166564 Ry

     iteration #  3     ecut=    80.00 Ry     beta= 0.70
     Davidson diagonalization with overlap
     ethr =  1.65E-03,  avg # of iterations =  2.0

     negative rho (up, down):  2.517E-05 0.000E+00

     total cpu time spent up to now is       17.7 secs

     total energy              =    -413.79957731 Ry
     estimated scf accuracy    <       0.02330940 Ry

     iteration #  4     ecut=    80.00 Ry     beta= 0.70
     Davidson diagonalization with overlap
     ethr =  5.83E-05,  avg # of iterations =  3.0

     negative rho (up, down):  2.418E-05 0.000E+00

     total cpu time spent up to now is       22.2 secs

     total energy              =    -413.80352252 Ry
     estimated scf accuracy    <       0.00095629 Ry

     iteration #  5     ecut=    80.00 Ry     beta= 0.70
     Davidson diagonalization with overlap
     ethr =  2.39E-06,  avg # of iterations =  6.6

     negative rho (up, down):  2.773E-05 0.000E+00

     total cpu time spent up to now is       27.8 secs

     total energy              =    -413.80368642 Ry
     estimated scf accuracy    <       0.00073024 Ry

     iteration #  6     ecut=    80.00 Ry     beta= 0.70
     Davidson diagonalization with overlap
     ethr =  1.83E-06,  avg # of iterations =  3.5

     negative rho (up, down):  2.795E-05 0.000E+00

     total cpu time spent up to now is       32.4 secs

     total energy              =    -413.80378749 Ry
     estimated scf accuracy    <       0.00024989 Ry

     iteration #  7     ecut=    80.00 Ry     beta= 0.70
     Davidson diagonalization with overlap
     ethr =  6.25E-07,  avg # of iterations =  2.0

     negative rho (up, down):  2.766E-05 0.000E+00

     total cpu time spent up to now is       36.5 secs

     total energy              =    -413.80381176 Ry
     estimated scf accuracy    <       0.00004351 Ry

     iteration #  8     ecut=    80.00 Ry     beta= 0.70
     Davidson diagonalization with overlap
     ethr =  1.09E-07,  avg # of iterations =  3.1

     negative rho (up, down):  2.791E-05 0.000E+00

     total cpu time spent up to now is       41.0 secs

     total energy              =    -413.80382164 Ry
     estimated scf accuracy    <       0.00000020 Ry

     iteration #  9     ecut=    80.00 Ry     beta= 0.70
     Davidson diagonalization with overlap
     ethr =  5.12E-10,  avg # of iterations =  8.4

     negative rho (up, down):  2.807E-05 0.000E+00

     total cpu time spent up to now is       50.1 secs

     total energy              =    -413.80382325 Ry
     estimated scf accuracy    <       0.00000029 Ry

     iteration # 10     ecut=    80.00 Ry     beta= 0.70
     Davidson diagonalization with overlap
     ethr =  5.12E-10,  avg # of iterations =  2.0

     negative rho (up, down):  2.809E-05 0.000E+00

     total cpu time spent up to now is       54.3 secs

     total energy              =    -413.80382330 Ry
     estimated scf accuracy    <          5.9E-09 Ry

     iteration # 11     ecut=    80.00 Ry     beta= 0.70
     Davidson diagonalization with overlap
     ethr =  1.47E-11,  avg # of iterations =  4.2

     negative rho (up, down):  2.809E-05 0.000E+00

     total cpu time spent up to now is       59.4 secs

     total energy              =    -413.80382330 Ry
     estimated scf accuracy    <          1.2E-09 Ry

     iteration # 12     ecut=    80.00 Ry     beta= 0.70
     Davidson diagonalization with overlap
     ethr =  2.95E-12,  avg # of iterations =  2.4

     negative rho (up, down):  2.809E-05 0.000E+00

     total cpu time spent up to now is       63.7 secs

     End of self-consistent calculation

          k = 0.0000 0.0000 0.0000 ( 30691 PWs)   bands (ev):

   -22.1741 -22.1662 -22.1662 -22.1616 -22.1596 -22.1368 -22.1319 -22.1297
   -22.1196 -22.1166 -14.2246 -13.1947  -7.1502  -6.1357  -4.3414  -3.9480
    -3.9348  -2.7498  -2.7112  -1.4775   0.6293   2.4051   2.8812   3.0492

          k = 0.0000 0.0681 0.0000 ( 30667 PWs)   bands (ev):

   -22.1736 -22.1665 -22.1658 -22.1619 -22.1593 -22.1369 -22.1319 -22.1294
   -22.1199 -22.1166 -14.2048 -13.1906  -7.2184  -6.2158  -4.3445  -3.9452
    -3.8529  -2.7433  -2.5978  -1.4911   0.6409   2.4843   2.8648   2.9065

          k = 0.0000 0.1362 0.0000 ( 30683 PWs)   bands (ev):

   -22.1721 -22.1673 -22.1648 -22.1628 -22.1584 -22.1372 -22.1319 -22.1287
   -22.1207 -22.1167 -14.1462 -13.1807  -7.3985  -6.4392  -4.3252  -3.8712
    -3.6890  -2.6883  -2.3377  -1.5367   0.6820   2.3807   2.6450   2.6518

          k = 0.0000 0.2043 0.0000 ( 30675 PWs)   bands (ev):

   -22.1702 -22.1686 -22.1640 -22.1634 -22.1568 -22.1378 -22.1318 -22.1275
   -22.1219 -22.1168 -14.0522 -13.1717  -7.6342  -6.7589  -4.2477  -3.7325
    -3.4730  -2.6017  -1.9954  -1.6211   0.7677   1.7366   2.1841   2.6537

          k = 0.0000 0.2724 0.0000 ( 30643 PWs)   bands (ev):

   -22.1700 -22.1691 -22.1645 -22.1619 -22.1545 -22.1387 -22.1315 -22.1260
   -22.1234 -22.1171 -13.9287 -13.1739  -7.8660  -7.1177  -4.1062  -3.5418
    -3.2392  -2.5087  -1.7309  -1.6167   0.9127   1.0891   1.7046   2.3174

          k = 0.0000 0.3405 0.0000 ( 30627 PWs)   bands (ev):

   -22.1712 -22.1698 -22.1633 -22.1607 -22.1518 -22.1400 -22.1310 -22.1250
   -22.1243 -22.1176 -13.7843 -13.1995  -8.0444  -7.4665  -3.9111  -3.3189
    -3.0447  -2.4455  -1.8037  -1.2437   0.5080   1.1201   1.3172   1.8068

          k = 0.0000 0.4086 0.0000 ( 30571 PWs)   bands (ev):

   -22.1720 -22.1710 -22.1618 -22.1600 -22.1490 -22.1417 -22.1302 -22.1265
   -22.1225 -22.1184 -13.6308 -13.2585  -8.1345  -7.7674  -3.6788  -3.1388
    -2.9351  -2.4549  -1.7250  -0.9981   0.1354   1.0990   1.1823   1.4527

          k = 0.0000 0.4767 0.0000 ( 30522 PWs)   bands (ev):

   -22.1723 -22.1720 -22.1606 -22.1599 -22.1462 -22.1438 -22.1292 -22.1279
   -22.1209 -22.1195 -13.4825 -13.3544  -8.1177  -7.9916  -3.4322  -3.2141
    -2.7517  -2.5630  -1.4610  -1.1294   0.2411   0.6732   1.0914   1.2859

          k = 0.0667 0.0000 0.0000 ( 30667 PWs)   bands (ev):

   -22.1739 -22.1663 -22.1661 -22.1609 -22.1599 -22.1368 -22.1317 -22.1296
   -22.1197 -22.1168 -14.2064 -13.1931  -7.2191  -6.2190  -4.3400  -3.9042
    -3.8781  -2.7291  -2.6024  -1.4965   0.6419   2.4553   2.7573   2.9918

          k = 0.0667 0.0681 0.0000 ( 30658 PWs)   bands (ev):

   -22.1734 -22.1667 -22.1657 -22.1617 -22.1592 -22.1369 -22.1317 -22.1293
   -22.1200 -22.1168 -14.1866 -13.1890  -7.2762  -6.2897  -4.3359  -4.0491
    -3.6601  -2.8240  -2.4075  -1.5071   0.6554   2.5023   2.5244   2.9740

          k = 0.0667 0.1362 0.0000 ( 30662 PWs)   bands (ev):

   -22.1720 -22.1676 -22.1646 -22.1629 -22.1579 -22.1372 -22.1319 -22.1285
   -22.1208 -22.1168 -14.1284 -13.1788  -7.4313  -6.4901  -4.3068  -4.1084
    -3.3921  -2.8592  -2.1032  -1.5427   0.7008   1.9495   2.6289   2.9161

          k = 0.0667 0.2043 0.0000 ( 30665 PWs)   bands (ev):

   -22.1702 -22.1689 -22.1642 -22.1632 -22.1562 -22.1378 -22.1318 -22.1273
   -22.1221 -22.1169 -14.0350 -13.1692  -7.6419  -6.7845  -4.2269  -4.0647
    -3.1225  -2.8113  -1.7858  -1.6051   0.7899   1.3587   2.3886   2.5475

          k = 0.0667 0.2724 0.0000 ( 30651 PWs)   bands (ev):

   -22.1703 -22.1694 -22.1644 -22.1616 -22.1540 -22.1387 -22.1316 -22.1258
   -22.1236 -22.1172 -13.9124 -13.1705  -7.8553  -7.1229  -4.0882  -3.9293
    -2.8962  -2.7176  -1.6709  -1.5107   0.8537   0.9312   1.8566   2.0700

          k = 0.0667 0.3405 0.0000 ( 30601 PWs)   bands (ev):

   -22.1716 -22.1703 -22.1631 -22.1604 -22.1514 -22.1400 -22.1311 -22.1251
   -22.1241 -22.1176 -13.7693 -13.1948  -8.0227  -7.4572  -3.8983  -3.7231
    -2.7858  -2.6348  -1.6698  -1.3348   0.5242   1.0657   1.3807   1.6329

          k = 0.0667 0.4086 0.0000 ( 30568 PWs)   bands (ev):

   -22.1725 -22.1716 -22.1614 -22.1597 -22.1487 -22.1416 -22.1303 -22.1267
   -22.1224 -22.1183 -13.6176 -13.2518  -8.1078  -7.7486  -3.6736  -3.4830
    -2.8320  -2.6392  -1.5494  -1.2730   0.3806   0.7624   1.3803   1.4873

          k = 0.0667 0.4767 0.0000 ( 30547 PWs)   bands (ev):

   -22.1729 -22.1725 -22.1602 -22.1596 -22.1460 -22.1437 -22.1293 -22.1281
   -22.1208 -22.1194 -13.4714 -13.3456  -8.0903  -7.9669  -3.4466  -3.3274
    -2.8971  -2.7677  -1.3838  -1.2847   0.3401   0.4528   1.4380   1.7247

          k = 0.1333 0.0000 0.0000 ( 30639 PWs)   bands (ev):

   -22.1733 -22.1669 -22.1657 -22.1609 -22.1591 -22.1369 -22.1311 -22.1295
   -22.1199 -22.1175 -14.1526 -13.1905  -7.3982  -6.4465  -4.3117  -3.8136
    -3.6914  -2.6704  -2.3207  -1.5562   0.6863   2.2822   2.5500   2.7815

          k = 0.1333 0.0681 0.0000 ( 30650 PWs)   bands (ev):

   -22.1728 -22.1672 -22.1652 -22.1619 -22.1581 -22.1370 -22.1314 -22.1290
   -22.1203 -22.1174 -14.1332 -13.1861  -7.4306  -6.4947  -4.2968  -4.0858
    -3.3749  -2.8511  -2.0861  -1.5564   0.7042   1.9311   2.5592   2.9620

          k = 0.1333 0.1362 0.0000 ( 30661 PWs)   bands (ev):

   -22.1715 -22.1682 -22.1641 -22.1635 -22.1565 -22.1373 -22.1317 -22.1280
   -22.1213 -22.1172 -14.0760 -13.1750  -7.5251  -6.6378  -4.3161  -4.2503
    -3.0384  -3.0190  -1.7587  -1.5550   0.7592   1.3972   2.3642   3.0639

          k = 0.1333 0.2043 0.0000 ( 30637 PWs)   bands (ev):

   -22.1702 -22.1697 -22.1646 -22.1626 -22.1546 -22.1379 -22.1319 -22.1267
   -22.1226 -22.1171 -13.9845 -13.1636  -7.6677  -6.8636  -4.4202  -4.1662
    -3.1111  -2.7396  -1.5411  -1.5377   0.8507   0.9712   1.8462   2.9310

          k = 0.1333 0.2724 0.0000 ( 30636 PWs)   bands (ev):

   -22.1713 -22.1704 -22.1641 -22.1610 -22.1525 -22.1388 -22.1318 -22.1252
   -22.1241 -22.1172 -13.8648 -13.1621  -7.8269  -7.1423  -4.3916  -4.0376
    -3.0835  -2.6068  -1.5424  -1.4765   0.8019   0.9219   1.3704   2.5707

          k = 0.1333 0.3405 0.0000 ( 30588 PWs)   bands (ev):

   -22.1728 -22.1718 -22.1623 -22.1597 -22.1502 -22.1400 -22.1313 -22.1256
   -22.1235 -22.1176 -13.7258 -13.1821  -7.9602  -7.4326  -4.2461  -3.8655
    -3.0219  -2.6459  -1.7161  -1.3901   0.7029   0.8789   1.3623   2.1670

          k = 0.1333 0.4086 0.0000 ( 30561 PWs)   bands (ev):

   -22.1739 -22.1732 -22.1606 -22.1589 -22.1478 -22.1415 -22.1306 -22.1270
   -22.1219 -22.1182 -13.5793 -13.2335  -8.0290  -7.6943  -4.0119  -3.6700
    -3.0419  -2.8064  -1.8330  -1.3895   0.5175   0.9701   1.6086   1.9203

          k = 0.1333 0.4767 0.0000 ( 30565 PWs)   bands (ev):

   -22.1744 -22.1741 -22.1593 -22.1587 -22.1455 -22.1434 -22.1295 -22.1283
   -22.1204 -22.1191 -13.4395 -13.3206  -8.0091  -7.8941  -3.7350  -3.5553
    -3.1342  -3.0132  -1.7426  -1.5399   0.5881   0.8171   1.9093   2.0154

          k = 0.2000 0.0000 0.0000 ( 30651 PWs)   bands (ev):

   -22.1723 -22.1676 -22.1651 -22.1624 -22.1563 -22.1371 -22.1303 -22.1291
   -22.1204 -22.1185 -14.0663 -13.1925  -7.6269  -6.7638  -4.2274  -3.6664
    -3.4379  -2.5849  -1.9434  -1.6568   0.7772   1.6791   2.2678   2.5142

          k = 0.2000 0.0681 0.0000 ( 30672 PWs)   bands (ev):

   -22.1719 -22.1680 -22.1647 -22.1631 -22.1556 -22.1372 -22.1308 -22.1284
   -22.1209 -22.1182 -14.0475 -13.1875  -7.6348  -6.7878  -4.2079  -4.0232
    -3.0786  -2.8039  -1.7330  -1.6332   0.7993   1.3431   2.3175   2.5836

          k = 0.2000 0.1362 0.0000 ( 30635 PWs)   bands (ev):

   -22.1709 -22.1692 -22.1644 -22.1635 -22.1541 -22.1375 -22.1315 -22.1272
   -22.1220 -22.1178 -13.9922 -13.1747  -7.6621  -6.8637  -4.4011  -4.1525
    -3.1166  -2.7155  -1.5470  -1.5010   0.8587   0.9661   1.8290   2.9511

          k = 0.2000 0.2043 0.0000 ( 30624 PWs)   bands (ev):

   -22.1709 -22.1707 -22.1648 -22.1619 -22.1523 -22.1380 -22.1318 -22.1258
   -22.1234 -22.1175 -13.9040 -13.1602  -7.7151  -6.9980  -4.6582  -4.0695
    -3.3261  -2.5292  -1.5578  -1.3882   0.8891   0.9022   1.3748   3.0716

          k = 0.2000 0.2724 0.0000 ( 30604 PWs)   bands (ev):

   -22.1728 -22.1720 -22.1633 -22.1602 -22.1504 -22.1389 -22.1319 -22.1248
   -22.1243 -22.1174 -13.7893 -13.1536  -7.7903  -7.1854  -4.7615  -3.9653
    -3.4016  -2.5269  -1.8822  -1.2582   0.6948   1.1455   1.3432   2.8641

          k = 0.2000 0.3405 0.0000 ( 30599 PWs)   bands (ev):

   -22.1745 -22.1739 -22.1612 -22.1587 -22.1484 -22.1400 -22.1315 -22.1262
   -22.1228 -22.1176 -13.6573 -13.1662  -7.8645  -7.4018  -4.7098  -3.8359
    -3.4081  -2.6507  -2.2401  -1.3300   0.6071   1.4992   1.5527   2.5417

          k = 0.2000 0.4086 0.0000 ( 30569 PWs)   bands (ev):

   -22.1758 -22.1754 -22.1594 -22.1578 -22.1465 -22.1414 -22.1308 -22.1274
   -22.1212 -22.1180 -13.5199 -13.2079  -7.9032  -7.6109  -4.5254  -3.7295
    -3.4555  -2.8520  -2.3873  -1.6094   0.7795   1.6931   1.8347   2.3388

          k = 0.2000 0.4767 0.0000 ( 30555 PWs)   bands (ev):

   -22.1765 -22.1763 -22.1581 -22.1576 -22.1447 -22.1430 -22.1298 -22.1286
   -22.1199 -22.1188 -13.3909 -13.2837  -7.8781  -7.7778  -4.2440  -3.9216
    -3.3310  -3.0930  -2.2483  -1.9530   1.0961   1.4554   2.1399   2.3613

          k = 0.2667 0.0000 0.0000 ( 30676 PWs)   bands (ev):

   -22.1711 -22.1684 -22.1648 -22.1641 -22.1529 -22.1374 -22.1292 -22.1286
   -22.1211 -22.1197 -13.9526 -13.2076  -7.8462  -7.1129  -4.0836  -3.4697
    -3.1748  -2.4939  -1.7747  -1.5264   0.9283   1.0588   1.7793   2.2172

          k = 0.2667 0.0681 0.0000 ( 30664 PWs)   bands (ev):

   -22.1708 -22.1689 -22.1646 -22.1643 -22.1524 -22.1375 -22.1301 -22.1276
   -22.1218 -22.1192 -13.9347 -13.2018  -7.8361  -7.1172  -4.0644  -3.8755
    -2.8353  -2.7200  -1.6987  -1.4077   0.8367   0.9503   1.8186   2.1186

          k = 0.2667 0.1362 0.0000 ( 30654 PWs)   bands (ev):

   -22.1706 -22.1703 -22.1652 -22.1630 -22.1511 -22.1378 -22.1310 -22.1262
   -22.1230 -22.1185 -13.8822 -13.1861  -7.8097  -7.1350  -4.3614  -4.0111
    -3.1126  -2.5769  -1.4679  -1.4443   0.7924   0.9511   1.3427   2.5993

          k = 0.2667 0.2043 0.0000 ( 30614 PWs)   bands (ev):

   -22.1722 -22.1717 -22.1644 -22.1612 -22.1496 -22.1383 -22.1316 -22.1248
   -22.1243 -22.1180 -13.7990 -13.1666  -7.7788  -7.1788  -4.7516  -3.9410
    -3.4396  -2.5195  -1.8255  -1.2388   0.7066   1.1492   1.3367   2.8776

          k = 0.2667 0.2724 0.0000 ( 30618 PWs)   bands (ev):

   -22.1744 -22.1739 -22.1623 -22.1594 -22.1480 -22.1390 -22.1318 -22.1256
   -22.1233 -22.1177 -13.6918 -13.1523  -7.7573  -7.2603  -4.9942  -3.8943
    -3.6167  -2.5899  -2.3161  -1.2891   0.6599   1.5576   1.6773   2.8486

          k = 0.2667 0.3405 0.0000 ( 30621 PWs)   bands (ev):

   -22.1765 -22.1761 -22.1601 -22.1578 -22.1465 -22.1400 -22.1315 -22.1268
   -22.1219 -22.1177 -13.5700 -13.1540  -7.7498  -7.3777  -5.0623  -3.8655
    -3.7208  -2.7523  -2.6833  -1.6026   0.8961   1.8603   2.2024   2.6538

          k = 0.2667 0.4086 0.0000 ( 30611 PWs)   bands (ev):

   -22.1781 -22.1779 -22.1582 -22.1567 -22.1451 -22.1412 -22.1308 -22.1279
   -22.1205 -22.1179 -13.4457 -13.1819  -7.7410  -7.5100  -4.9595  -4.0044
    -3.7375  -2.9886  -2.7471  -1.9761   1.2335   2.2075   2.2840   2.7092

          k = 0.2667 0.4767 0.0000 ( 30590 PWs)   bands (ev):

   -22.1789 -22.1788 -22.1569 -22.1564 -22.1438 -22.1425 -22.1299 -22.1289
   -22.1193 -22.1184 -13.3322 -13.2416  -7.7054  -7.6269  -4.7154  -4.3736
    -3.5339  -3.2663  -2.5828  -2.3125   1.5934   1.9533   2.5507   2.7938

          k = 0.3333 0.0000 0.0000 ( 30674 PWs)   bands (ev):

   -22.1697 -22.1690 -22.1658 -22.1647 -22.1493 -22.1381 -22.1280 -22.1278
   -22.1220 -22.1211 -13.8192 -13.2454  -8.0107  -7.4477  -3.8892  -3.2349
    -2.9885  -2.4315  -1.8291  -1.1167   0.4904   1.1449   1.3961   1.7497

          k = 0.3333 0.0681 0.0000 ( 30644 PWs)   bands (ev):

   -22.1697 -22.1696 -22.1660 -22.1641 -22.1489 -22.1381 -22.1292 -22.1265
   -22.1229 -22.1203 -13.8025 -13.2382  -7.9895  -7.4379  -3.8730  -3.6634
    -2.7425  -2.6524  -1.6602  -1.1761   0.4936   1.1204   1.3322   1.7054

          k = 0.3333 0.1362 0.0000 ( 30648 PWs)   bands (ev):

   -22.1712 -22.1707 -22.1654 -22.1627 -22.1480 -22.1383 -22.1302 -22.1251
   -22.1242 -22.1194 -13.7539 -13.2184  -7.9289  -7.4125  -4.2142  -3.8295
    -3.0899  -2.6315  -1.5585  -1.3354   0.7285   0.8671   1.3447   2.2148

          k = 0.3333 0.2043 0.0000 ( 30629 PWs)   bands (ev):

   -22.1735 -22.1730 -22.1636 -22.1609 -22.1467 -22.1387 -22.1310 -22.1254
   -22.1237 -22.1187 -13.6775 -13.1918  -7.8379  -7.3827  -4.7015  -3.7844
    -3.5096  -2.6439  -2.1215  -1.2809   0.6281   1.5150   1.5496   2.5575

          k = 0.3333 0.2724 0.0000 ( 30609 PWs)   bands (ev):

   -22.1760 -22.1756 -22.1613 -22.1589 -22.1455 -22.1393 -22.1313 -22.1265
   -22.1223 -22.1181 -13.5804 -13.1667  -7.7332  -7.3646  -5.0664  -3.8860
    -3.7308  -2.7448  -2.6279  -1.5841   0.9124   1.8656   2.2255   2.6587

          k = 0.3333 0.3405 0.0000 ( 30629 PWs)   bands (ev):

   -22.1784 -22.1782 -22.1590 -22.1571 -22.1445 -22.1401 -22.1312 -22.1275
   -22.1210 -22.1179 -13.4723 -13.1540  -7.6364  -7.3725  -5.2651  -4.0846
    -3.8996  -2.9489  -2.8731  -1.9563   1.2822   2.2766   2.5951   2.9029

          k = 0.3333 0.4086 0.0000 ( 30610 PWs)   bands (ev):

   -22.1802 -22.1801 -22.1571 -22.1559 -22.1437 -22.1411 -22.1306 -22.1283
   -22.1198 -22.1178 -13.3653 -13.1637  -7.5630  -7.4079  -5.2730  -4.3968
    -3.9763  -3.2482  -2.8407  -2.2570   1.6237   2.4400   2.7161   3.3699

          k = 0.3333 0.4767 0.0000 ( 30617 PWs)   bands (ev):

   -22.1812 -22.1811 -22.1559 -22.1555 -22.1429 -22.1420 -22.1298 -22.1290
   -22.1188 -22.1182 -13.2719 -13.2027  -7.5082  -7.4574  -5.0998  -4.7863
    -3.8357  -3.5712  -2.6896  -2.4922   1.9324   2.2091   3.1056   3.3737

          k = 0.4000 0.0000 0.0000 ( 30602 PWs)   bands (ev):

   -22.1693 -22.1682 -22.1674 -22.1650 -22.1460 -22.1392 -22.1267 -22.1267
   -22.1230 -22.1226 -13.6763 -13.3127  -8.0903  -7.7344  -3.6572  -2.9905
    -2.9810  -2.4391  -1.6967  -0.8478   0.1238   1.1818   1.2221   1.4291

          k = 0.4000 0.0681 0.0000 ( 30610 PWs)   bands (ev):

   -22.1700 -22.1692 -22.1665 -22.1644 -22.1457 -22.1392 -22.1281 -22.1253
   -22.1241 -22.1215 -13.6612 -13.3038  -8.0639  -7.7153  -3.6465  -3.4193
    -2.8308  -2.6667  -1.4791  -1.0827   0.3415   0.7925   1.4684   1.4716

          k = 0.4000 0.1362 0.0000 ( 30639 PWs)   bands (ev):

   -22.1719 -22.1713 -22.1649 -22.1629 -22.1450 -22.1392 -22.1292 -22.1254
   -22.1239 -22.1204 -13.6176 -13.2787  -7.9863  -7.6604  -3.9861  -3.6245
    -3.1397  -2.8091  -1.6419  -1.2852   0.5354   0.9570   1.5951   1.9808

          k = 0.4000 0.2043 0.0000 ( 30659 PWs)   bands (ev):

   -22.1744 -22.1740 -22.1627 -22.1609 -22.1442 -22.1394 -22.1301 -22.1266
   -22.1226 -22.1195 -13.5499 -13.2428  -7.8635  -7.5778  -4.5295  -3.7159
    -3.5355  -2.8440  -2.2407  -1.5368   0.8139   1.7250   1.8334   2.3429

          k = 0.4000 0.2724 0.0000 ( 30643 PWs)   bands (ev):

   -22.1772 -22.1770 -22.1603 -22.1587 -22.1434 -22.1398 -22.1306 -22.1275
   -22.1213 -22.1187 -13.4655 -13.2044  -7.7082  -7.4814  -4.9805  -4.1188
    -3.6501  -2.9648  -2.6851  -1.9486   1.2640   2.2248   2.3186   2.7314

          k = 0.4000 0.3405 0.0000 ( 30633 PWs)   bands (ev):

   -22.1798 -22.1797 -22.1581 -22.1569 -22.1429 -22.1404 -22.1305 -22.1282
   -22.1201 -22.1182 -13.3744 -13.1738  -7.5434  -7.3905  -5.2930  -4.4787
    -3.8938  -3.2249  -2.8332  -2.2549   1.6364   2.4492   2.7358   3.4384

          k = 0.4000 0.4086 0.0000 ( 30672 PWs)   bands (ev):

   -22.1819 -22.1818 -22.1563 -22.1556 -22.1425 -22.1410 -22.1301 -22.1286
   -22.1192 -22.1180 -13.2884 -13.1616  -7.4037  -7.3247  -5.4267  -4.8101
    -4.0991  -3.5756  -2.7891  -2.4336   1.9300   2.4377   3.2232   3.8446

          k = 0.4000 0.4767 0.0000 ( 30638 PWs)   bands (ev):

   -22.1830 -22.1829 -22.1553 -22.1550 -22.1421 -22.1416 -22.1296 -22.1291
   -22.1184 -22.1180 -13.2193 -13.1758  -7.3201  -7.2977  -5.3621  -5.1304
    -4.0929  -3.8950  -2.6839  -2.5639   2.1651   2.3380   3.5874   3.8147

          k = 0.4667 0.0000 0.0000 ( 30618 PWs)   bands (ev):

   -22.1692 -22.1685 -22.1669 -22.1658 -22.1431 -22.1408 -22.1255 -22.1254
   -22.1241 -22.1241 -13.5360 -13.4113  -8.0698  -7.9479  -3.4053  -3.1631
    -2.7375  -2.5442  -1.3837  -1.0136   0.2674   0.7092   1.1743   1.3682

          k = 0.4667 0.0681 0.0000 ( 30642 PWs)   bands (ev):

   -22.1700 -22.1697 -22.1659 -22.1650 -22.1429 -22.1407 -22.1268 -22.1255
   -22.1241 -22.1228 -13.5230 -13.4004  -8.0424  -7.9230  -3.4093  -3.2605
    -2.9311  -2.7953  -1.2577  -1.1112   0.3227   0.4657   1.5210   1.7189

          k = 0.4667 0.1362 0.0000 ( 30657 PWs)   bands (ev):

   -22.1721 -22.1719 -22.1641 -22.1634 -22.1425 -22.1406 -22.1280 -22.1267
   -22.1227 -22.1215 -13.4853 -13.3691  -7.9616  -7.8500  -3.7159  -3.5112
    -3.2119  -3.0356  -1.5662  -1.3963   0.6020   0.8202   1.8838   2.0219

          k = 0.4667 0.2043 0.0000 ( 30631 PWs)   bands (ev):

   -22.1749 -22.1747 -22.1619 -22.1612 -22.1421 -22.1405 -22.1290 -22.1278
   -22.1215 -22.1204 -13.4277 -13.3226  -7.8320  -7.7344  -4.2687  -3.9666
    -3.3262  -3.0818  -2.1249  -1.8579   1.1388   1.4978   2.1326   2.3419

          k = 0.4667 0.2724 0.0000 ( 30638 PWs)   bands (ev):

   -22.1779 -22.1778 -22.1595 -22.1590 -22.1418 -22.1406 -22.1296 -22.1285
   -22.1203 -22.1195 -13.3581 -13.2688  -7.6637  -7.5870  -4.7625  -4.4537
    -3.4616  -3.2182  -2.5387  -2.2793   1.6298   1.9889   2.5779   2.8249

          k = 0.4667 0.3405 0.0000 ( 30621 PWs)   bands (ev):

   -22.1806 -22.1806 -22.1574 -22.1570 -22.1417 -22.1409 -22.1297 -22.1289
   -22.1194 -22.1187 -13.2866 -13.2180  -7.4760  -7.4265  -5.1474  -4.8592
    -3.7577  -3.5181  -2.6874  -2.4922   1.9507   2.2259   3.1440   3.4299

          k = 0.4667 0.4086 0.0000 ( 30651 PWs)   bands (ev):

   -22.1828 -22.1827 -22.1558 -22.1555 -22.1417 -22.1412 -22.1296 -22.1291
   -22.1186 -22.1182 -13.2247 -13.1813  -7.3040  -7.2823  -5.3891  -5.1663
    -4.0574  -3.8688  -2.6863  -2.5666   2.1722   2.3450   3.5938   3.8186

          k = 0.4667 0.4767 0.0000 ( 30630 PWs)   bands (ev):

   -22.1839 -22.1839 -22.1549 -22.1548 -22.1416 -22.1415 -22.1293 -22.1292
   -22.1181 -22.1180 -13.1828 -13.1679  -7.1978  -7.1935  -5.4623  -5.3745
    -4.1988  -4.1250  -2.6466  -2.6061   2.3163   2.3752   3.8241   3.9465

     the Fermi energy is    -0.7847 ev

!    total energy              =    -413.80382330 Ry
     estimated scf accuracy    <          4.3E-11 Ry
     smearing contrib. (-TS)   =       0.00009130 Ry
     internal energy E=F+TS    =    -413.80391460 Ry

     The total energy is F=E-TS. E is the sum of the following terms:
     one-electron contribution =   -1189.70652608 Ry
     hartree contribution      =     607.06640883 Ry
     xc contribution           =    -154.42020458 Ry
     ewald contribution        =     323.25640723 Ry

     convergence has been achieved in  12 iterations

     negative rho (up, down):  2.809E-05 0.000E+00

     Forces acting on atoms (cartesian axes, Ry/au):

     atom    1 type  1   force =    -0.00087294    0.00000000    0.00058207
     atom    2 type  1   force =    -0.00087716    0.00000000   -0.00058858
     atom    3 type  2   force =     0.00087428    0.00000000    0.00036674
     atom    4 type  2   force =     0.00087583    0.00000000   -0.00036023

     Total force =     0.002003     Total SCF correction =     0.000011

     BFGS Geometry Optimization

     number of scf cycles    =   1
     number of bfgs steps    =   0

     energy   new            =    -413.8038233024 Ry

     new trust radius        =       0.0010563350 bohr
     new conv_thr            =            1.0E-10 Ry


ATOMIC_POSITIONS (crystal)
Sn            0.5838850219        0.7500000000        0.1445716593
Sn            0.0838831004        0.2500000000        0.0065740322
Se            0.0302211717        0.2500000000        0.1423289501
Se            0.5302186799        0.7500000000        0.0088154123



     Writing output data file ./wfc-out/pwscf.save/
     NEW-OLD atomic charge density approx. for the potential

     negative rho (up, down):  3.940E-05 0.000E+00

     total cpu time spent up to now is       66.2 secs

     Self-consistent Calculation

     iteration #  1     ecut=    80.00 Ry     beta= 0.70
     Davidson diagonalization with overlap
     ethr =  1.00E-06,  avg # of iterations =  2.0

     Threshold (ethr) on eigenvalues was too large:
     Diagonalizing with lowered threshold

     Davidson diagonalization with overlap
     ethr =  2.67E-10,  avg # of iterations =  6.6

     negative rho (up, down):  2.982E-05 0.000E+00

     total cpu time spent up to now is       77.4 secs

     total energy              =    -413.80382712 Ry
     estimated scf accuracy    <       0.00000017 Ry

     iteration #  2     ecut=    80.00 Ry     beta= 0.70
     Davidson diagonalization with overlap
     ethr =  4.22E-10,  avg # of iterations =  2.1

     negative rho (up, down):  2.843E-05 0.000E+00

     total cpu time spent up to now is       81.6 secs

     total energy              =    -413.80382710 Ry
     estimated scf accuracy    <       0.00000012 Ry

     iteration #  3     ecut=    80.00 Ry     beta= 0.70
     Davidson diagonalization with overlap
     ethr =  2.93E-10,  avg # of iterations =  2.0

     negative rho (up, down):  2.817E-05 0.000E+00

     total cpu time spent up to now is       85.7 secs

     total energy              =    -413.80382713 Ry
     estimated scf accuracy    <          5.6E-09 Ry

     iteration #  4     ecut=    80.00 Ry     beta= 0.70
     Davidson diagonalization with overlap
     ethr =  1.39E-11,  avg # of iterations =  2.7

     negative rho (up, down):  2.811E-05 0.000E+00

     total cpu time spent up to now is       90.2 secs

     total energy              =    -413.80382714 Ry
     estimated scf accuracy    <          1.1E-09 Ry

     iteration #  5     ecut=    80.00 Ry     beta= 0.70
     Davidson diagonalization with overlap
     ethr =  2.65E-12,  avg # of iterations =  3.0

     negative rho (up, down):  2.809E-05 0.000E+00

     total cpu time spent up to now is       94.5 secs

     total energy              =    -413.80382714 Ry
     estimated scf accuracy    <          1.6E-09 Ry

     iteration #  6     ecut=    80.00 Ry     beta= 0.70
     Davidson diagonalization with overlap
     ethr =  2.65E-12,  avg # of iterations =  2.5

     negative rho (up, down):  2.809E-05 0.000E+00

     total cpu time spent up to now is       98.6 secs

     total energy              =    -413.80382714 Ry
     estimated scf accuracy    <          2.3E-10 Ry

     iteration #  7     ecut=    80.00 Ry     beta= 0.70
     Davidson diagonalization with overlap
     ethr =  5.78E-13,  avg # of iterations =  2.1

     negative rho (up, down):  2.809E-05 0.000E+00

     total cpu time spent up to now is      102.7 secs

     End of self-consistent calculation

          k = 0.0000 0.0000 0.0000 ( 30691 PWs)   bands (ev):

   -22.1742 -22.1664 -22.1662 -22.1616 -22.1597 -22.1369 -22.1320 -22.1299
   -22.1197 -22.1168 -14.2229 -13.1936  -7.1491  -6.1355  -4.3407  -3.9476
    -3.9330  -2.7486  -2.7116  -1.4774   0.6286   2.4087   2.8816   3.0512

          k = 0.0000 0.0681 0.0000 ( 30667 PWs)   bands (ev):

   -22.1737 -22.1666 -22.1660 -22.1619 -22.1594 -22.1370 -22.1320 -22.1296
   -22.1200 -22.1168 -14.2030 -13.1895  -7.2173  -6.2156  -4.3438  -3.9442
    -3.8517  -2.7428  -2.5975  -1.4910   0.6402   2.4878   2.8664   2.9065

          k = 0.0000 0.1362 0.0000 ( 30683 PWs)   bands (ev):

   -22.1722 -22.1674 -22.1649 -22.1628 -22.1585 -22.1373 -22.1321 -22.1288
   -22.1209 -22.1169 -14.1444 -13.1796  -7.3974  -6.4390  -4.3244  -3.8701
    -3.6877  -2.6879  -2.3373  -1.5366   0.6813   2.3812   2.6459   2.6548

          k = 0.0000 0.2043 0.0000 ( 30675 PWs)   bands (ev):

   -22.1703 -22.1687 -22.1641 -22.1635 -22.1569 -22.1379 -22.1320 -22.1276
   -22.1221 -22.1170 -14.0505 -13.1705  -7.6331  -6.7585  -4.2467  -3.7313
    -3.4717  -2.6012  -1.9950  -1.6210   0.7670   1.7367   2.1843   2.6552

          k = 0.0000 0.2724 0.0000 ( 30643 PWs)   bands (ev):

   -22.1700 -22.1692 -22.1646 -22.1620 -22.1546 -22.1388 -22.1317 -22.1261
   -22.1236 -22.1173 -13.9270 -13.1728  -7.8648  -7.1172  -4.1051  -3.5404
    -3.2380  -2.5079  -1.7308  -1.6163   0.9120   1.0891   1.7041   2.3174

          k = 0.0000 0.3405 0.0000 ( 30627 PWs)   bands (ev):

   -22.1713 -22.1698 -22.1635 -22.1608 -22.1519 -22.1401 -22.1312 -22.1252
   -22.1245 -22.1178 -13.7827 -13.1983  -8.0433  -7.4658  -3.9100  -3.3173
    -3.0435  -2.4443  -1.8036  -1.2432   0.5076   1.1194   1.3162   1.8061

          k = 0.0000 0.4086 0.0000 ( 30571 PWs)   bands (ev):

   -22.1721 -22.1711 -22.1619 -22.1601 -22.1490 -22.1418 -22.1304 -22.1267
   -22.1227 -22.1186 -13.6293 -13.2572  -8.1335  -7.7667  -3.6776  -3.1369
    -2.9341  -2.4535  -1.7247  -0.9972   0.1345   1.0977   1.1818   1.4517

          k = 0.0000 0.4767 0.0000 ( 30522 PWs)   bands (ev):

   -22.1724 -22.1720 -22.1607 -22.1600 -22.1463 -22.1438 -22.1294 -22.1281
   -22.1211 -22.1197 -13.4811 -13.3531  -8.1168  -7.9907  -3.4309  -3.2125
    -2.7503  -2.5615  -1.4605  -1.1286   0.2400   0.6723   1.0899   1.2844

          k = 0.0667 0.0000 0.0000 ( 30667 PWs)   bands (ev):

   -22.1740 -22.1664 -22.1662 -22.1610 -22.1600 -22.1369 -22.1318 -22.1298
   -22.1198 -22.1170 -14.2046 -13.1920  -7.2182  -6.2188  -4.3394  -3.9024
    -3.8776  -2.7278  -2.6028  -1.4964   0.6413   2.4589   2.7591   2.9919

          k = 0.0667 0.0681 0.0000 ( 30658 PWs)   bands (ev):

   -22.1735 -22.1668 -22.1658 -22.1617 -22.1593 -22.1370 -22.1319 -22.1295
   -22.1201 -22.1170 -14.1849 -13.1879  -7.2753  -6.2895  -4.3352  -4.0479
    -3.6590  -2.8234  -2.4073  -1.5070   0.6547   2.5034   2.5280   2.9738

          k = 0.0667 0.1362 0.0000 ( 30662 PWs)   bands (ev):

   -22.1720 -22.1677 -22.1647 -22.1630 -22.1580 -22.1373 -22.1320 -22.1286
   -22.1210 -22.1170 -14.1266 -13.1777  -7.4303  -6.4899  -4.3060  -4.1072
    -3.3908  -2.8588  -2.1028  -1.5425   0.7001   1.9499   2.6316   2.9168

          k = 0.0667 0.2043 0.0000 ( 30665 PWs)   bands (ev):

   -22.1703 -22.1689 -22.1643 -22.1633 -22.1563 -22.1379 -22.1320 -22.1274
   -22.1223 -22.1171 -14.0333 -13.1681  -7.6409  -6.7842  -4.2259  -4.0635
    -3.1211  -2.8108  -1.7853  -1.6050   0.7892   1.3586   2.3890   2.5479

          k = 0.0667 0.2724 0.0000 ( 30651 PWs)   bands (ev):

   -22.1704 -22.1695 -22.1645 -22.1618 -22.1541 -22.1388 -22.1318 -22.1259
   -22.1237 -22.1173 -13.9108 -13.1694  -7.8542  -7.1224  -4.0871  -3.9280
    -2.8948  -2.7170  -1.6708  -1.5100   0.8531   0.9305   1.8560   2.0699

          k = 0.0667 0.3405 0.0000 ( 30601 PWs)   bands (ev):

   -22.1717 -22.1704 -22.1632 -22.1605 -22.1515 -22.1401 -22.1313 -22.1253
   -22.1243 -22.1178 -13.7677 -13.1935  -8.0216  -7.4566  -3.8971  -3.7218
    -2.7844  -2.6339  -1.6695  -1.3341   0.5233   1.0651   1.3795   1.6324

          k = 0.0667 0.4086 0.0000 ( 30568 PWs)   bands (ev):

   -22.1726 -22.1717 -22.1616 -22.1598 -22.1487 -22.1417 -22.1305 -22.1268
   -22.1225 -22.1185 -13.6161 -13.2506  -8.1067  -7.7479  -3.6724  -3.4815
    -2.8308  -2.6380  -1.5489  -1.2724   0.3798   0.7613   1.3792   1.4863

          k = 0.0667 0.4767 0.0000 ( 30547 PWs)   bands (ev):

   -22.1729 -22.1726 -22.1603 -22.1597 -22.1461 -22.1437 -22.1295 -22.1282
   -22.1209 -22.1196 -13.4700 -13.3443  -8.0893  -7.9660  -3.4452  -3.3258
    -2.8960  -2.7664  -1.3831  -1.2841   0.3392   0.4516   1.4368   1.7234

          k = 0.1333 0.0000 0.0000 ( 30639 PWs)   bands (ev):

   -22.1734 -22.1669 -22.1658 -22.1610 -22.1592 -22.1370 -22.1313 -22.1296
   -22.1201 -22.1176 -14.1509 -13.1893  -7.3973  -6.4464  -4.3110  -3.8117
    -3.6908  -2.6691  -2.3209  -1.5560   0.6855   2.2838   2.5535   2.7816

          k = 0.1333 0.0681 0.0000 ( 30650 PWs)   bands (ev):

   -22.1729 -22.1673 -22.1654 -22.1620 -22.1582 -22.1371 -22.1315 -22.1292
   -22.1205 -22.1175 -14.1314 -13.1849  -7.4297  -6.4946  -4.2961  -4.0845
    -3.3737  -2.8502  -2.0858  -1.5562   0.7034   1.9319   2.5624   2.9624

          k = 0.1333 0.1362 0.0000 ( 30661 PWs)   bands (ev):

   -22.1716 -22.1683 -22.1643 -22.1636 -22.1566 -22.1374 -22.1319 -22.1281
   -22.1215 -22.1174 -14.0743 -13.1738  -7.5242  -6.6376  -4.3148  -4.2494
    -3.0379  -3.0177  -1.7582  -1.5548   0.7585   1.3974   2.3654   3.0641

          k = 0.1333 0.2043 0.0000 ( 30637 PWs)   bands (ev):

   -22.1703 -22.1698 -22.1647 -22.1627 -22.1547 -22.1380 -22.1321 -22.1268
   -22.1228 -22.1173 -13.9828 -13.1625  -7.6667  -6.8633  -4.4191  -4.1651
    -3.1107  -2.7382  -1.5403  -1.5375   0.8500   0.9707   1.8458   2.9313

          k = 0.1333 0.2724 0.0000 ( 30636 PWs)   bands (ev):

   -22.1714 -22.1705 -22.1642 -22.1611 -22.1526 -22.1389 -22.1319 -22.1253
   -22.1242 -22.1174 -13.8632 -13.1609  -7.8258  -7.1418  -4.3904  -4.0364
    -3.0831  -2.6054  -1.5416  -1.4761   0.8010   0.9213   1.3694   2.5706

          k = 0.1333 0.3405 0.0000 ( 30588 PWs)   bands (ev):

   -22.1729 -22.1719 -22.1624 -22.1598 -22.1502 -22.1401 -22.1315 -22.1257
   -22.1237 -22.1178 -13.7242 -13.1809  -7.9591  -7.4320  -4.2449  -3.8642
    -3.0213  -2.6446  -1.7156  -1.3896   0.7019   0.8780   1.3613   2.1667

          k = 0.1333 0.4086 0.0000 ( 30561 PWs)   bands (ev):

   -22.1739 -22.1733 -22.1607 -22.1590 -22.1479 -22.1416 -22.1307 -22.1272
   -22.1221 -22.1184 -13.5778 -13.2322  -8.0279  -7.6935  -4.0107  -3.6687
    -3.0409  -2.8052  -1.8329  -1.3890   0.5165   0.9696   1.6077   1.9195

          k = 0.1333 0.4767 0.0000 ( 30565 PWs)   bands (ev):

   -22.1744 -22.1742 -22.1594 -22.1588 -22.1456 -22.1435 -22.1297 -22.1285
   -22.1206 -22.1193 -13.4381 -13.3193  -8.0081  -7.8932  -3.7336  -3.5538
    -3.1333  -3.0121  -1.7426  -1.5396   0.5874   0.8167   1.9083   2.0143

          k = 0.2000 0.0000 0.0000 ( 30651 PWs)   bands (ev):

   -22.1724 -22.1677 -22.1653 -22.1625 -22.1564 -22.1372 -22.1304 -22.1293
   -22.1206 -22.1186 -14.0646 -13.1913  -7.6263  -6.7638  -4.2267  -3.6645
    -3.4371  -2.5834  -1.9435  -1.6565   0.7763   1.6805   2.2678   2.5170

          k = 0.2000 0.0681 0.0000 ( 30672 PWs)   bands (ev):

   -22.1720 -22.1681 -22.1648 -22.1632 -22.1557 -22.1373 -22.1310 -22.1286
   -22.1211 -22.1184 -14.0457 -13.1863  -7.6341  -6.7877  -4.2071  -4.0217
    -3.0773  -2.8028  -1.7327  -1.6329   0.7985   1.3437   2.3191   2.5840

          k = 0.2000 0.1362 0.0000 ( 30635 PWs)   bands (ev):

   -22.1710 -22.1693 -22.1645 -22.1636 -22.1542 -22.1376 -22.1316 -22.1274
   -22.1222 -22.1180 -13.9904 -13.1735  -7.6613  -6.8636  -4.3997  -4.1516
    -3.1158  -2.7142  -1.5467  -1.5004   0.8579   0.9660   1.8291   2.9513

          k = 0.2000 0.2043 0.0000 ( 30624 PWs)   bands (ev):

   -22.1709 -22.1708 -22.1649 -22.1620 -22.1524 -22.1381 -22.1320 -22.1260
   -22.1236 -22.1177 -13.9023 -13.1589  -7.7143  -6.9977  -4.6570  -4.0684
    -3.3255  -2.5278  -1.5571  -1.3877   0.8883   0.9016   1.3741   3.0711

          k = 0.2000 0.2724 0.0000 ( 30604 PWs)   bands (ev):

   -22.1728 -22.1721 -22.1634 -22.1603 -22.1505 -22.1390 -22.1320 -22.1250
   -22.1245 -22.1176 -13.7877 -13.1523  -7.7892  -7.1849  -4.7604  -3.9640
    -3.4012  -2.5256  -1.8816  -1.2577   0.6940   1.1448   1.3423   2.8636

          k = 0.2000 0.3405 0.0000 ( 30599 PWs)   bands (ev):

   -22.1746 -22.1739 -22.1613 -22.1588 -22.1485 -22.1401 -22.1317 -22.1263
   -22.1229 -22.1178 -13.6557 -13.1649  -7.8633  -7.4011  -4.7087  -3.8344
    -3.4075  -2.6494  -2.2400  -1.3297   0.6064   1.4985   1.5519   2.5412

          k = 0.2000 0.4086 0.0000 ( 30569 PWs)   bands (ev):

   -22.1759 -22.1755 -22.1595 -22.1579 -22.1466 -22.1415 -22.1309 -22.1276
   -22.1214 -22.1182 -13.5184 -13.2066  -7.9021  -7.6101  -4.5244  -3.7281
    -3.4545  -2.8507  -2.3877  -1.6095   0.7790   1.6928   1.8339   2.3379

          k = 0.2000 0.4767 0.0000 ( 30555 PWs)   bands (ev):

   -22.1766 -22.1764 -22.1582 -22.1577 -22.1448 -22.1431 -22.1299 -22.1288
   -22.1201 -22.1190 -13.3894 -13.2823  -7.8769  -7.7768  -4.2429  -3.9205
    -3.3297  -3.0917  -2.2488  -1.9534   1.0959   1.4552   2.1390   2.3603

          k = 0.2667 0.0000 0.0000 ( 30676 PWs)   bands (ev):

   -22.1712 -22.1684 -22.1649 -22.1642 -22.1530 -22.1375 -22.1294 -22.1287
   -22.1213 -22.1199 -13.9509 -13.2063  -7.8457  -7.1129  -4.0829  -3.4677
    -3.1738  -2.4922  -1.7743  -1.5264   0.9273   1.0599   1.7790   2.2189

          k = 0.2667 0.0681 0.0000 ( 30664 PWs)   bands (ev):

   -22.1709 -22.1690 -22.1647 -22.1644 -22.1525 -22.1376 -22.1302 -22.1277
   -22.1220 -22.1194 -13.9330 -13.2005  -7.8355  -7.1172  -4.0637  -3.8739
    -2.8340  -2.7186  -1.6982  -1.4074   0.8371   0.9493   1.8191   2.1187

          k = 0.2667 0.1362 0.0000 ( 30654 PWs)   bands (ev):

   -22.1706 -22.1703 -22.1653 -22.1631 -22.1512 -22.1379 -22.1311 -22.1264
   -22.1232 -22.1187 -13.8805 -13.1848  -7.8091  -7.1349  -4.3599  -4.0103
    -3.1114  -2.5756  -1.4674  -1.4438   0.7924   0.9502   1.3424   2.5993

          k = 0.2667 0.2043 0.0000 ( 30614 PWs)   bands (ev):

   -22.1723 -22.1718 -22.1645 -22.1614 -22.1496 -22.1384 -22.1317 -22.1250
   -22.1245 -22.1182 -13.7973 -13.1653  -7.7781  -7.1786  -4.7503  -3.9399
    -3.4387  -2.5182  -1.8251  -1.2383   0.7059   1.1489   1.3360   2.8768

          k = 0.2667 0.2724 0.0000 ( 30618 PWs)   bands (ev):

   -22.1745 -22.1740 -22.1624 -22.1595 -22.1480 -22.1391 -22.1319 -22.1258
   -22.1235 -22.1179 -13.6901 -13.1510  -7.7564  -7.2599  -4.9931  -3.8929
    -3.6161  -2.5887  -2.3162  -1.2890   0.6594   1.5569   1.6768   2.8477

          k = 0.2667 0.3405 0.0000 ( 30621 PWs)   bands (ev):

   -22.1765 -22.1762 -22.1602 -22.1579 -22.1465 -22.1401 -22.1316 -22.1270
   -22.1221 -22.1178 -13.5684 -13.1527  -7.7487  -7.3770  -5.0613  -3.8640
    -3.7199  -2.7510  -2.6838  -1.6029   0.8957   1.8597   2.2020   2.6530

          k = 0.2667 0.4086 0.0000 ( 30611 PWs)   bands (ev):

   -22.1781 -22.1779 -22.1583 -22.1568 -22.1452 -22.1413 -22.1310 -22.1280
   -22.1207 -22.1181 -13.4442 -13.1805  -7.7398  -7.5090  -4.9587  -4.0035
    -3.7361  -2.9872  -2.7478  -1.9766   1.2333   2.2070   2.2837   2.7083

          k = 0.2667 0.4767 0.0000 ( 30590 PWs)   bands (ev):

   -22.1790 -22.1789 -22.1570 -22.1565 -22.1439 -22.1426 -22.1301 -22.1291
   -22.1195 -22.1186 -13.3307 -13.2402  -7.7042  -7.6258  -4.7146  -4.3728
    -3.5325  -3.2649  -2.5835  -2.3131   1.5932   1.9531   2.5502   2.7932

          k = 0.3333 0.0000 0.0000 ( 30674 PWs)   bands (ev):

   -22.1698 -22.1691 -22.1659 -22.1648 -22.1494 -22.1382 -22.1282 -22.1280
   -22.1221 -22.1213 -13.8175 -13.2439  -8.0104  -7.4477  -3.8885  -3.2328
    -2.9875  -2.4295  -1.8286  -1.1165   0.4913   1.1438   1.3955   1.7506

          k = 0.3333 0.0681 0.0000 ( 30644 PWs)   bands (ev):

   -22.1698 -22.1697 -22.1661 -22.1642 -22.1490 -22.1382 -22.1293 -22.1267
   -22.1230 -22.1205 -13.8008 -13.2368  -7.9892  -7.4380  -3.8722  -3.6617
    -2.7412  -2.6506  -1.6595  -1.1759   0.4941   1.1195   1.3321   1.7051

          k = 0.3333 0.1362 0.0000 ( 30648 PWs)   bands (ev):

   -22.1713 -22.1708 -22.1655 -22.1629 -22.1481 -22.1384 -22.1304 -22.1253
   -22.1243 -22.1196 -13.7522 -13.2171  -7.9285  -7.4125  -4.2126  -3.8287
    -3.0882  -2.6303  -1.5585  -1.3347   0.7280   0.8674   1.3440   2.2145

          k = 0.3333 0.2043 0.0000 ( 30629 PWs)   bands (ev):

   -22.1735 -22.1730 -22.1637 -22.1610 -22.1468 -22.1388 -22.1312 -22.1256
   -22.1239 -22.1189 -13.6759 -13.1904  -7.8373  -7.3825  -4.7001  -3.7833
    -3.5082  -2.6427  -2.1218  -1.2806   0.6278   1.5152   1.5490   2.5567

          k = 0.3333 0.2724 0.0000 ( 30609 PWs)   bands (ev):

   -22.1761 -22.1757 -22.1614 -22.1590 -22.1456 -22.1394 -22.1315 -22.1267
   -22.1225 -22.1183 -13.5788 -13.1654  -7.7324  -7.3642  -5.0652  -3.8843
    -3.7299  -2.7436  -2.6285  -1.5844   0.9122   1.8652   2.2254   2.6577

          k = 0.3333 0.3405 0.0000 ( 30629 PWs)   bands (ev):

   -22.1784 -22.1782 -22.1591 -22.1572 -22.1446 -22.1403 -22.1313 -22.1276
   -22.1212 -22.1180 -13.4708 -13.1526  -7.6354  -7.3718  -5.2642  -4.0831
    -3.8987  -2.9476  -2.8739  -1.9569   1.2819   2.2763   2.5944   2.9026

          k = 0.3333 0.4086 0.0000 ( 30610 PWs)   bands (ev):

   -22.1803 -22.1802 -22.1572 -22.1561 -22.1438 -22.1412 -22.1307 -22.1284
   -22.1200 -22.1180 -13.3638 -13.1623  -7.5617  -7.4068  -5.2723  -4.3959
    -3.9752  -3.2470  -2.8412  -2.2576   1.6234   2.4395   2.7160   3.3695

          k = 0.3333 0.4767 0.0000 ( 30617 PWs)   bands (ev):

   -22.1813 -22.1812 -22.1560 -22.1556 -22.1430 -22.1421 -22.1300 -22.1292
   -22.1190 -22.1183 -13.2704 -13.2013  -7.5069  -7.4561  -5.0992  -4.7857
    -3.8347  -3.5701  -2.6900  -2.4927   1.9321   2.2087   3.1055   3.3735

          k = 0.4000 0.0000 0.0000 ( 30602 PWs)   bands (ev):

   -22.1694 -22.1683 -22.1674 -22.1651 -22.1461 -22.1393 -22.1269 -22.1269
   -22.1232 -22.1228 -13.6746 -13.3112  -8.0901  -7.7345  -3.6564  -2.9895
    -2.9789  -2.4369  -1.6960  -0.8470   0.1241   1.1809   1.2225   1.4280

          k = 0.4000 0.0681 0.0000 ( 30610 PWs)   bands (ev):

   -22.1701 -22.1693 -22.1666 -22.1645 -22.1458 -22.1393 -22.1282 -22.1255
   -22.1243 -22.1217 -13.6595 -13.3023  -8.0637  -7.7153  -3.6457  -3.4176
    -2.8296  -2.6646  -1.4783  -1.0826   0.3422   0.7923   1.4674   1.4709

          k = 0.4000 0.1362 0.0000 ( 30639 PWs)   bands (ev):

   -22.1720 -22.1714 -22.1650 -22.1630 -22.1451 -22.1393 -22.1294 -22.1256
   -22.1241 -22.1206 -13.6159 -13.2772  -7.9860  -7.6604  -3.9844  -3.6236
    -3.1376  -2.8080  -1.6423  -1.2848   0.5353   0.9579   1.5943   1.9800

          k = 0.4000 0.2043 0.0000 ( 30659 PWs)   bands (ev):

   -22.1745 -22.1741 -22.1628 -22.1610 -22.1443 -22.1395 -22.1303 -22.1268
   -22.1228 -22.1197 -13.5482 -13.2414  -7.8631  -7.5776  -4.5280  -3.7142
    -3.5342  -2.8429  -2.2415  -1.5370   0.8139   1.7257   1.8328   2.3419

          k = 0.4000 0.2724 0.0000 ( 30643 PWs)   bands (ev):

   -22.1773 -22.1771 -22.1604 -22.1588 -22.1435 -22.1399 -22.1307 -22.1277
   -22.1215 -22.1189 -13.4639 -13.2029  -7.7075  -7.4809  -4.9792  -4.1169
    -3.6491  -2.9636  -2.6860  -1.9492   1.2638   2.2246   2.3182   2.7313

          k = 0.4000 0.3405 0.0000 ( 30633 PWs)   bands (ev):

   -22.1799 -22.1798 -22.1582 -22.1570 -22.1430 -22.1405 -22.1307 -22.1283
   -22.1203 -22.1184 -13.3728 -13.1723  -7.5424  -7.3896  -5.2920  -4.4772
    -3.8931  -3.2238  -2.8338  -2.2555   1.6361   2.4485   2.7360   3.4387

          k = 0.4000 0.4086 0.0000 ( 30672 PWs)   bands (ev):

   -22.1819 -22.1819 -22.1564 -22.1557 -22.1426 -22.1412 -22.1303 -22.1288
   -22.1193 -22.1181 -13.2869 -13.1601  -7.4023  -7.3235  -5.4261  -4.8094
    -4.0984  -3.5747  -2.7895  -2.4340   1.9296   2.4373   3.2235   3.8449

          k = 0.4000 0.4767 0.0000 ( 30638 PWs)   bands (ev):

   -22.1830 -22.1830 -22.1554 -22.1551 -22.1422 -22.1417 -22.1298 -22.1292
   -22.1186 -22.1182 -13.2178 -13.1744  -7.3185  -7.2962  -5.3618  -5.1301
    -4.0921  -3.8942  -2.6842  -2.5642   2.1649   2.3378   3.5876   3.8147

          k = 0.4667 0.0000 0.0000 ( 30618 PWs)   bands (ev):

   -22.1692 -22.1686 -22.1670 -22.1659 -22.1432 -22.1409 -22.1257 -22.1256
   -22.1243 -22.1242 -13.5344 -13.4098  -8.0698  -7.9479  -3.4044  -3.1622
    -2.7352  -2.5419  -1.3828  -1.0125   0.2675   0.7094   1.1733   1.3672

          k = 0.4667 0.0681 0.0000 ( 30642 PWs)   bands (ev):

   -22.1701 -22.1697 -22.1660 -22.1651 -22.1430 -22.1408 -22.1270 -22.1256
   -22.1242 -22.1230 -13.5213 -13.3988  -8.0423  -7.9230  -3.4084  -3.2593
    -2.9293  -2.7931  -1.2569  -1.1108   0.3232   0.4657   1.5202   1.7181

          k = 0.4667 0.1362 0.0000 ( 30657 PWs)   bands (ev):

   -22.1722 -22.1720 -22.1642 -22.1635 -22.1426 -22.1407 -22.1282 -22.1269
   -22.1229 -22.1217 -13.4836 -13.3675  -7.9614  -7.8500  -3.7141  -3.5098
    -3.2102  -3.0344  -1.5666  -1.3964   0.6024   0.8211   1.8830   2.0211

          k = 0.4667 0.2043 0.0000 ( 30631 PWs)   bands (ev):

   -22.1749 -22.1748 -22.1620 -22.1613 -22.1422 -22.1406 -22.1292 -22.1280
   -22.1216 -22.1206 -13.4261 -13.3210  -7.8317  -7.7342  -4.2670  -3.9647
    -3.3250  -3.0807  -2.1257  -1.8584   1.1391   1.4982   2.1322   2.3415

          k = 0.4667 0.2724 0.0000 ( 30638 PWs)   bands (ev):

   -22.1779 -22.1778 -22.1596 -22.1591 -22.1419 -22.1407 -22.1297 -22.1287
   -22.1205 -22.1196 -13.3566 -13.2673  -7.6631  -7.5865  -4.7609  -4.4520
    -3.4606  -3.2171  -2.5396  -2.2801   1.6295   1.9885   2.5782   2.8254

          k = 0.4667 0.3405 0.0000 ( 30621 PWs)   bands (ev):

   -22.1807 -22.1806 -22.1575 -22.1571 -22.1418 -22.1410 -22.1299 -22.1291
   -22.1195 -22.1189 -13.2851 -13.2165  -7.4750  -7.4257  -5.1463  -4.8580
    -3.7570  -3.5172  -2.6879  -2.4927   1.9502   2.2253   3.1445   3.4306

          k = 0.4667 0.4086 0.0000 ( 30651 PWs)   bands (ev):

   -22.1828 -22.1828 -22.1559 -22.1556 -22.1418 -22.1413 -22.1297 -22.1292
   -22.1188 -22.1184 -13.2232 -13.1799  -7.3026  -7.2810  -5.3886  -5.1657
    -4.0567  -3.8681  -2.6865  -2.5669   2.1719   2.3447   3.5943   3.8190

          k = 0.4667 0.4767 0.0000 ( 30630 PWs)   bands (ev):

   -22.1840 -22.1839 -22.1550 -22.1549 -22.1417 -22.1416 -22.1295 -22.1293
   -22.1183 -22.1182 -13.1813 -13.1665  -7.1961  -7.1918  -5.4622  -5.3744
    -4.1981  -4.1243  -2.6468  -2.6063   2.3162   2.3751   3.8239   3.9457

     the Fermi energy is    -0.7836 ev

!    total energy              =    -413.80382714 Ry
     estimated scf accuracy    <          1.8E-12 Ry
     smearing contrib. (-TS)   =       0.00009055 Ry
     internal energy E=F+TS    =    -413.80391769 Ry

     The total energy is F=E-TS. E is the sum of the following terms:
     one-electron contribution =   -1189.58880637 Ry
     hartree contribution      =     607.00782083 Ry
     xc contribution           =    -154.41975105 Ry
     ewald contribution        =     323.19681891 Ry

     convergence has been achieved in   7 iterations

     negative rho (up, down):  2.809E-05 0.000E+00

     Forces acting on atoms (cartesian axes, Ry/au):

     atom    1 type  1   force =    -0.00082816    0.00000000    0.00047488
     atom    2 type  1   force =    -0.00082775    0.00000000   -0.00048332
     atom    3 type  2   force =     0.00082733    0.00000000    0.00028829
     atom    4 type  2   force =     0.00082858    0.00000000   -0.00027985

     Total force =     0.001834     Total SCF correction =     0.000007

     number of scf cycles    =   2
     number of bfgs steps    =   1

     energy   old            =    -413.8038233024 Ry
     energy   new            =    -413.8038271350 Ry

     CASE: energy  _new < energy  _old


     WARNING: bfgs curvature condition failed, Theta= 0.876
     new trust radius        =       0.0011619685 bohr
     new conv_thr            =            3.8E-12 Ry


ATOMIC_POSITIONS (crystal)
Sn            0.5837650163        0.7500000000        0.1445873279
Sn            0.0837629977        0.2500000000        0.0065581132
Se            0.0303411314        0.2500000000        0.1423385604
Se            0.5303388286        0.7500000000        0.0088060524



     Writing output data file ./wfc-out/pwscf.save/
     NEW-OLD atomic charge density approx. for the potential

     negative rho (up, down):  4.071E-05 0.000E+00

     total cpu time spent up to now is      104.9 secs

     Self-consistent Calculation

     iteration #  1     ecut=    80.00 Ry     beta= 0.70
     Davidson diagonalization with overlap
     ethr =  1.00E-06,  avg # of iterations =  2.0

     Threshold (ethr) on eigenvalues was too large:
     Diagonalizing with lowered threshold

     Davidson diagonalization with overlap
     ethr =  3.08E-10,  avg # of iterations =  6.7

     negative rho (up, down):  2.997E-05 0.000E+00

     total cpu time spent up to now is      115.9 secs

     total energy              =    -413.80383099 Ry
     estimated scf accuracy    <       0.00000019 Ry

     iteration #  2     ecut=    80.00 Ry     beta= 0.70
     Davidson diagonalization with overlap
     ethr =  4.69E-10,  avg # of iterations =  2.0

     negative rho (up, down):  2.844E-05 0.000E+00

     total cpu time spent up to now is      120.1 secs

     total energy              =    -413.80383098 Ry
     estimated scf accuracy    <       0.00000012 Ry

     iteration #  3     ecut=    80.00 Ry     beta= 0.70
     Davidson diagonalization with overlap
     ethr =  2.92E-10,  avg # of iterations =  2.0

     negative rho (up, down):  2.817E-05 0.000E+00

     total cpu time spent up to now is      124.2 secs

     total energy              =    -413.80383100 Ry
     estimated scf accuracy    <       0.00000001 Ry

     iteration #  4     ecut=    80.00 Ry     beta= 0.70
     Davidson diagonalization with overlap
     ethr =  2.52E-11,  avg # of iterations =  3.0

     negative rho (up, down):  2.811E-05 0.000E+00

     total cpu time spent up to now is      128.5 secs

     total energy              =    -413.80383100 Ry
     estimated scf accuracy    <       0.00000002 Ry

     iteration #  5     ecut=    80.00 Ry     beta= 0.70
     Davidson diagonalization with overlap
     ethr =  2.52E-11,  avg # of iterations =  2.5

     negative rho (up, down):  2.809E-05 0.000E+00

     total cpu time spent up to now is      132.6 secs

     total energy              =    -413.80383101 Ry
     estimated scf accuracy    <          1.4E-09 Ry

     iteration #  6     ecut=    80.00 Ry     beta= 0.70
     Davidson diagonalization with overlap
     ethr =  3.42E-12,  avg # of iterations =  2.4

     negative rho (up, down):  2.809E-05 0.000E+00

     total cpu time spent up to now is      136.8 secs

     total energy              =    -413.80383101 Ry
     estimated scf accuracy    <          7.3E-11 Ry

     iteration #  7     ecut=    80.00 Ry     beta= 0.70
     Davidson diagonalization with overlap
     ethr =  1.83E-13,  avg # of iterations =  3.6

     negative rho (up, down):  2.809E-05 0.000E+00

     total cpu time spent up to now is      141.4 secs

     End of self-consistent calculation

          k = 0.0000 0.0000 0.0000 ( 30691 PWs)   bands (ev):

   -22.1743 -22.1665 -22.1663 -22.1617 -22.1598 -22.1370 -22.1322 -22.1300
   -22.1199 -22.1170 -14.2210 -13.1924  -7.1481  -6.1353  -4.3401  -3.9472
    -3.9310  -2.7472  -2.7120  -1.4773   0.6280   2.4127   2.8820   3.0534

          k = 0.0000 0.0681 0.0000 ( 30667 PWs)   bands (ev):

   -22.1738 -22.1667 -22.1661 -22.1620 -22.1595 -22.1371 -22.1322 -22.1298
   -22.1202 -22.1170 -14.2011 -13.1883  -7.2163  -6.2154  -4.3430  -3.9431
    -3.8503  -2.7422  -2.5972  -1.4908   0.6396   2.4916   2.8683   2.9066

          k = 0.0000 0.1362 0.0000 ( 30683 PWs)   bands (ev):

   -22.1723 -22.1675 -22.1651 -22.1629 -22.1586 -22.1374 -22.1322 -22.1290
   -22.1210 -22.1171 -14.1426 -13.1784  -7.3963  -6.4387  -4.3234  -3.8689
    -3.6864  -2.6874  -2.3369  -1.5365   0.6807   2.3816   2.6467   2.6581

          k = 0.0000 0.2043 0.0000 ( 30675 PWs)   bands (ev):

   -22.1704 -22.1687 -22.1642 -22.1636 -22.1570 -22.1380 -22.1321 -22.1278
   -22.1223 -22.1172 -14.0487 -13.1693  -7.6319  -6.7582  -4.2456  -3.7300
    -3.4704  -2.6005  -1.9946  -1.6209   0.7663   1.7368   2.1844   2.6568

          k = 0.0000 0.2724 0.0000 ( 30643 PWs)   bands (ev):

   -22.1701 -22.1692 -22.1647 -22.1621 -22.1547 -22.1389 -22.1319 -22.1263
   -22.1238 -22.1175 -13.9253 -13.1715  -7.8637  -7.1167  -4.1039  -3.5390
    -3.2366  -2.5070  -1.7307  -1.6159   0.9114   1.0889   1.7036   2.3174

          k = 0.0000 0.3405 0.0000 ( 30627 PWs)   bands (ev):

   -22.1713 -22.1699 -22.1636 -22.1609 -22.1520 -22.1402 -22.1313 -22.1253
   -22.1247 -22.1180 -13.7810 -13.1970  -8.0421  -7.4652  -3.9088  -3.3155
    -3.0422  -2.4430  -1.8035  -1.2426   0.5071   1.1188   1.3151   1.8053

          k = 0.0000 0.4086 0.0000 ( 30571 PWs)   bands (ev):

   -22.1722 -22.1712 -22.1620 -22.1602 -22.1491 -22.1419 -22.1306 -22.1269
   -22.1229 -22.1188 -13.6276 -13.2558  -8.1323  -7.7659  -3.6763  -3.1348
    -2.9331  -2.4519  -1.7245  -0.9962   0.1334   1.0961   1.1812   1.4506

          k = 0.0000 0.4767 0.0000 ( 30522 PWs)   bands (ev):

   -22.1725 -22.1721 -22.1608 -22.1602 -22.1464 -22.1439 -22.1295 -22.1283
   -22.1213 -22.1199 -13.4796 -13.3516  -8.1157  -7.9898  -3.4295  -3.2109
    -2.7488  -2.5598  -1.4600  -1.1277   0.2389   0.6714   1.0881   1.2828

          k = 0.0667 0.0000 0.0000 ( 30667 PWs)   bands (ev):

   -22.1741 -22.1665 -22.1663 -22.1611 -22.1601 -22.1370 -22.1320 -22.1300
   -22.1200 -22.1172 -14.2028 -13.1908  -7.2172  -6.2186  -4.3387  -3.9004
    -3.8771  -2.7264  -2.6032  -1.4962   0.6406   2.4629   2.7610   2.9921

          k = 0.0667 0.0681 0.0000 ( 30658 PWs)   bands (ev):

   -22.1736 -22.1668 -22.1659 -22.1618 -22.1594 -22.1371 -22.1321 -22.1297
   -22.1203 -22.1172 -14.1830 -13.1866  -7.2743  -6.2893  -4.3344  -4.0466
    -3.6578  -2.8227  -2.4070  -1.5068   0.6540   2.5046   2.5319   2.9737

          k = 0.0667 0.1362 0.0000 ( 30662 PWs)   bands (ev):

   -22.1721 -22.1677 -22.1649 -22.1631 -22.1581 -22.1374 -22.1322 -22.1288
   -22.1212 -22.1172 -14.1248 -13.1764  -7.4292  -6.4896  -4.3050  -4.1060
    -3.3895  -2.8583  -2.1023  -1.5424   0.6994   1.9502   2.6347   2.9175

          k = 0.0667 0.2043 0.0000 ( 30665 PWs)   bands (ev):

   -22.1703 -22.1690 -22.1644 -22.1634 -22.1564 -22.1380 -22.1322 -22.1276
   -22.1225 -22.1173 -14.0315 -13.1668  -7.6397  -6.7838  -4.2248  -4.0623
    -3.1197  -2.8103  -1.7847  -1.6048   0.7886   1.3583   2.3895   2.5482

          k = 0.0667 0.2724 0.0000 ( 30651 PWs)   bands (ev):

   -22.1705 -22.1695 -22.1647 -22.1619 -22.1542 -22.1389 -22.1320 -22.1261
   -22.1239 -22.1175 -13.9090 -13.1681  -7.8530  -7.1219  -4.0859  -3.9268
    -2.8933  -2.7163  -1.6706  -1.5093   0.8524   0.9298   1.8552   2.0697

          k = 0.0667 0.3405 0.0000 ( 30601 PWs)   bands (ev):

   -22.1718 -22.1705 -22.1633 -22.1607 -22.1516 -22.1402 -22.1315 -22.1255
   -22.1244 -22.1180 -13.7661 -13.1922  -8.0204  -7.4559  -3.8958  -3.7204
    -2.7829  -2.6329  -1.6693  -1.3333   0.5224   1.0646   1.3782   1.6316

          k = 0.0667 0.4086 0.0000 ( 30568 PWs)   bands (ev):

   -22.1727 -22.1717 -22.1617 -22.1599 -22.1488 -22.1418 -22.1307 -22.1270
   -22.1227 -22.1187 -13.6145 -13.2492  -8.1056  -7.7470  -3.6710  -3.4800
    -2.8295  -2.6367  -1.5483  -1.2718   0.3788   0.7601   1.3780   1.4854

          k = 0.0667 0.4767 0.0000 ( 30547 PWs)   bands (ev):

   -22.1730 -22.1727 -22.1605 -22.1599 -22.1462 -22.1439 -22.1296 -22.1284
   -22.1211 -22.1198 -13.4685 -13.3428  -8.0882  -7.9650  -3.4437  -3.3241
    -2.8948  -2.7650  -1.3824  -1.2834   0.3381   0.4504   1.4354   1.7221

          k = 0.1333 0.0000 0.0000 ( 30639 PWs)   bands (ev):

   -22.1735 -22.1670 -22.1659 -22.1611 -22.1593 -22.1371 -22.1315 -22.1298
   -22.1203 -22.1178 -14.1490 -13.1881  -7.3965  -6.4463  -4.3103  -3.8096
    -3.6902  -2.6675  -2.3212  -1.5557   0.6848   2.2856   2.5575   2.7817

          k = 0.1333 0.0681 0.0000 ( 30650 PWs)   bands (ev):

   -22.1730 -22.1674 -22.1655 -22.1621 -22.1583 -22.1372 -22.1317 -22.1293
   -22.1207 -22.1177 -14.1296 -13.1836  -7.4289  -6.4945  -4.2953  -4.0831
    -3.3725  -2.8493  -2.0856  -1.5560   0.7026   1.9328   2.5660   2.9629

          k = 0.1333 0.1362 0.0000 ( 30661 PWs)   bands (ev):

   -22.1717 -22.1684 -22.1644 -22.1637 -22.1567 -22.1375 -22.1321 -22.1283
   -22.1217 -22.1176 -14.0724 -13.1725  -7.5232  -6.6374  -4.3136  -4.2485
    -3.0372  -3.0164  -1.7576  -1.5546   0.7577   1.3974   2.3668   3.0644

          k = 0.1333 0.2043 0.0000 ( 30637 PWs)   bands (ev):

   -22.1704 -22.1698 -22.1649 -22.1629 -22.1548 -22.1381 -22.1322 -22.1270
   -22.1230 -22.1175 -13.9810 -13.1612  -7.6656  -6.8630  -4.4179  -4.1640
    -3.1102  -2.7367  -1.5395  -1.5373   0.8493   0.9701   1.8454   2.9316

          k = 0.1333 0.2724 0.0000 ( 30636 PWs)   bands (ev):

   -22.1715 -22.1706 -22.1643 -22.1613 -22.1527 -22.1390 -22.1321 -22.1255
   -22.1244 -22.1176 -13.8614 -13.1596  -7.8246  -7.1413  -4.3893  -4.0351
    -3.0826  -2.6039  -1.5407  -1.4758   0.8000   0.9206   1.3683   2.5706

          k = 0.1333 0.3405 0.0000 ( 30588 PWs)   bands (ev):

   -22.1729 -22.1719 -22.1625 -22.1599 -22.1503 -22.1402 -22.1317 -22.1259
   -22.1239 -22.1180 -13.7225 -13.1795  -7.9579  -7.4313  -4.2437  -3.8628
    -3.0206  -2.6432  -1.7150  -1.3890   0.7008   0.8770   1.3603   2.1663

          k = 0.1333 0.4086 0.0000 ( 30561 PWs)   bands (ev):

   -22.1740 -22.1733 -22.1608 -22.1591 -22.1480 -22.1417 -22.1309 -22.1273
   -22.1223 -22.1186 -13.5762 -13.2308  -8.0268  -7.6926  -4.0094  -3.6672
    -3.0399  -2.8039  -1.8328  -1.3884   0.5153   0.9689   1.6067   1.9186

          k = 0.1333 0.4767 0.0000 ( 30565 PWs)   bands (ev):

   -22.1745 -22.1743 -22.1596 -22.1590 -22.1457 -22.1436 -22.1299 -22.1287
   -22.1208 -22.1195 -13.4365 -13.3178  -8.0070  -7.8922  -3.7322  -3.5522
    -3.1322  -3.0109  -1.7426  -1.5394   0.5865   0.8161   1.9074   2.0131

          k = 0.2000 0.0000 0.0000 ( 30651 PWs)   bands (ev):

   -22.1725 -22.1678 -22.1654 -22.1626 -22.1565 -22.1373 -22.1306 -22.1295
   -22.1208 -22.1188 -14.0627 -13.1899  -7.6256  -6.7638  -4.2259  -3.6624
    -3.4363  -2.5817  -1.9437  -1.6561   0.7754   1.6819   2.2676   2.5201

          k = 0.2000 0.0681 0.0000 ( 30672 PWs)   bands (ev):

   -22.1721 -22.1682 -22.1650 -22.1633 -22.1558 -22.1374 -22.1311 -22.1288
   -22.1213 -22.1186 -14.0439 -13.1850  -7.6334  -6.7877  -4.2063  -4.0202
    -3.0760  -2.8015  -1.7324  -1.6326   0.7976   1.3443   2.3209   2.5845

          k = 0.2000 0.1362 0.0000 ( 30635 PWs)   bands (ev):

   -22.1711 -22.1694 -22.1646 -22.1638 -22.1543 -22.1377 -22.1318 -22.1276
   -22.1224 -22.1182 -13.9886 -13.1721  -7.6605  -6.8635  -4.3983  -4.1507
    -3.1149  -2.7127  -1.5464  -1.4997   0.8571   0.9659   1.8293   2.9516

          k = 0.2000 0.2043 0.0000 ( 30624 PWs)   bands (ev):

   -22.1710 -22.1708 -22.1650 -22.1621 -22.1525 -22.1382 -22.1322 -22.1262
   -22.1237 -22.1179 -13.9005 -13.1576  -7.7133  -6.9974  -4.6557  -4.0673
    -3.3249  -2.5264  -1.5563  -1.3873   0.8876   0.9010   1.3734   3.0706

          k = 0.2000 0.2724 0.0000 ( 30604 PWs)   bands (ev):

   -22.1729 -22.1722 -22.1635 -22.1604 -22.1506 -22.1391 -22.1322 -22.1251
   -22.1247 -22.1178 -13.7859 -13.1510  -7.7882  -7.1844  -4.7593  -3.9626
    -3.4007  -2.5242  -1.8811  -1.2571   0.6931   1.1439   1.3414   2.8631

          k = 0.2000 0.3405 0.0000 ( 30599 PWs)   bands (ev):

   -22.1747 -22.1740 -22.1615 -22.1590 -22.1486 -22.1402 -22.1319 -22.1265
   -22.1231 -22.1179 -13.6540 -13.1635  -7.8621  -7.4003  -4.7077  -3.8328
    -3.4069  -2.6480  -2.2400  -1.3294   0.6055   1.4978   1.5510   2.5406

          k = 0.2000 0.4086 0.0000 ( 30569 PWs)   bands (ev):

   -22.1760 -22.1756 -22.1596 -22.1580 -22.1467 -22.1416 -22.1311 -22.1278
   -22.1216 -22.1184 -13.5168 -13.2052  -7.9008  -7.6091  -4.5233  -3.7266
    -3.4535  -2.8493  -2.3882  -1.6095   0.7785   1.6925   1.8330   2.3369

          k = 0.2000 0.4767 0.0000 ( 30555 PWs)   bands (ev):

   -22.1766 -22.1765 -22.1584 -22.1578 -22.1449 -22.1432 -22.1301 -22.1290
   -22.1203 -22.1192 -13.3879 -13.2809  -7.8757  -7.7757  -4.2418  -3.9192
    -3.3284  -3.0902  -2.2494  -1.9538   1.0955   1.4550   2.1382   2.3592

          k = 0.2667 0.0000 0.0000 ( 30676 PWs)   bands (ev):

   -22.1713 -22.1685 -22.1650 -22.1643 -22.1531 -22.1377 -22.1296 -22.1289
   -22.1215 -22.1201 -13.9490 -13.2049  -7.8453  -7.1130  -4.0821  -3.4655
    -3.1729  -2.4903  -1.7738  -1.5264   0.9263   1.0611   1.7786   2.2208

          k = 0.2667 0.0681 0.0000 ( 30664 PWs)   bands (ev):

   -22.1710 -22.1691 -22.1648 -22.1645 -22.1526 -22.1377 -22.1304 -22.1279
   -22.1222 -22.1196 -13.9311 -13.1990  -7.8351  -7.1172  -4.0629  -3.8723
    -2.8326  -2.7170  -1.6978  -1.4071   0.8376   0.9483   1.8197   2.1187

          k = 0.2667 0.1362 0.0000 ( 30654 PWs)   bands (ev):

   -22.1707 -22.1704 -22.1654 -22.1632 -22.1513 -22.1380 -22.1313 -22.1266
   -22.1234 -22.1189 -13.8786 -13.1834  -7.8085  -7.1348  -4.3584  -4.0093
    -3.1101  -2.5742  -1.4668  -1.4433   0.7923   0.9494   1.3421   2.5993

          k = 0.2667 0.2043 0.0000 ( 30614 PWs)   bands (ev):

   -22.1724 -22.1719 -22.1646 -22.1615 -22.1497 -22.1385 -22.1319 -22.1252
   -22.1247 -22.1184 -13.7955 -13.1639  -7.7773  -7.1783  -4.7489  -3.9387
    -3.4377  -2.5169  -1.8248  -1.2377   0.7052   1.1485   1.3352   2.8761

          k = 0.2667 0.2724 0.0000 ( 30618 PWs)   bands (ev):

   -22.1746 -22.1740 -22.1625 -22.1596 -22.1481 -22.1392 -22.1321 -22.1260
   -22.1237 -22.1181 -13.6884 -13.1496  -7.7555  -7.2594  -4.9919  -3.8912
    -3.6154  -2.5873  -2.3163  -1.2888   0.6587   1.5561   1.6763   2.8468

          k = 0.2667 0.3405 0.0000 ( 30621 PWs)   bands (ev):

   -22.1766 -22.1763 -22.1603 -22.1580 -22.1466 -22.1403 -22.1318 -22.1272
   -22.1223 -22.1180 -13.5668 -13.1513  -7.7475  -7.3762  -5.0603  -3.8624
    -3.7190  -2.7495  -2.6844  -1.6032   0.8953   1.8591   2.2015   2.6523

          k = 0.2667 0.4086 0.0000 ( 30611 PWs)   bands (ev):

   -22.1782 -22.1780 -22.1584 -22.1570 -22.1453 -22.1415 -22.1312 -22.1282
   -22.1209 -22.1183 -13.4426 -13.1791  -7.7385  -7.5080  -4.9578  -4.0025
    -3.7345  -2.9857  -2.7486  -1.9772   1.2330   2.2064   2.2835   2.7074

          k = 0.2667 0.4767 0.0000 ( 30590 PWs)   bands (ev):

   -22.1791 -22.1790 -22.1572 -22.1567 -22.1440 -22.1427 -22.1302 -22.1292
   -22.1197 -22.1188 -13.3292 -13.2387  -7.7029  -7.6245  -4.7138  -4.3719
    -3.5310  -3.2634  -2.5843  -2.3139   1.5930   1.9529   2.5496   2.7924

          k = 0.3333 0.0000 0.0000 ( 30674 PWs)   bands (ev):

   -22.1699 -22.1692 -22.1660 -22.1649 -22.1495 -22.1383 -22.1283 -22.1281
   -22.1223 -22.1215 -13.8156 -13.2424  -8.0101  -7.4478  -3.8877  -3.2306
    -2.9864  -2.4274  -1.8281  -1.1162   0.4922   1.1427   1.3948   1.7517

          k = 0.3333 0.0681 0.0000 ( 30644 PWs)   bands (ev):

   -22.1699 -22.1698 -22.1662 -22.1644 -22.1491 -22.1384 -22.1295 -22.1269
   -22.1232 -22.1207 -13.7990 -13.2352  -7.9889  -7.4380  -3.8714  -3.6599
    -2.7399  -2.6485  -1.6589  -1.1757   0.4947   1.1185   1.3321   1.7047

          k = 0.3333 0.1362 0.0000 ( 30648 PWs)   bands (ev):

   -22.1714 -22.1709 -22.1656 -22.1630 -22.1482 -22.1385 -22.1306 -22.1255
   -22.1245 -22.1198 -13.7504 -13.2155  -7.9281  -7.4124  -4.2110  -3.8278
    -3.0864  -2.6291  -1.5586  -1.3340   0.7275   0.8678   1.3432   2.2141

          k = 0.3333 0.2043 0.0000 ( 30629 PWs)   bands (ev):

   -22.1736 -22.1731 -22.1638 -22.1611 -22.1469 -22.1389 -22.1313 -22.1258
   -22.1241 -22.1190 -13.6741 -13.1889  -7.8368  -7.3822  -4.6986  -3.7821
    -3.5066  -2.6414  -2.1222  -1.2804   0.6274   1.5153   1.5483   2.5558

          k = 0.3333 0.2724 0.0000 ( 30609 PWs)   bands (ev):

   -22.1761 -22.1758 -22.1615 -22.1591 -22.1457 -22.1395 -22.1317 -22.1269
   -22.1227 -22.1185 -13.5771 -13.1639  -7.7315  -7.3637  -5.0639  -3.8823
    -3.7290  -2.7422  -2.6293  -1.5847   0.9119   1.8647   2.2254   2.6567

          k = 0.3333 0.3405 0.0000 ( 30629 PWs)   bands (ev):

   -22.1785 -22.1783 -22.1592 -22.1574 -22.1447 -22.1404 -22.1315 -22.1278
   -22.1214 -22.1182 -13.4691 -13.1512  -7.6342  -7.3710  -5.2632  -4.0815
    -3.8977  -2.9462  -2.8747  -1.9575   1.2817   2.2761   2.5938   2.9022

          k = 0.3333 0.4086 0.0000 ( 30610 PWs)   bands (ev):

   -22.1803 -22.1802 -22.1574 -22.1562 -22.1439 -22.1413 -22.1309 -22.1286
   -22.1202 -22.1182 -13.3622 -13.1609  -7.5602  -7.4056  -5.2716  -4.3951
    -3.9740  -3.2456  -2.8418  -2.2583   1.6232   2.4391   2.7159   3.3690

          k = 0.3333 0.4767 0.0000 ( 30617 PWs)   bands (ev):

   -22.1813 -22.1813 -22.1562 -22.1558 -22.1431 -22.1422 -22.1302 -22.1294
   -22.1192 -22.1185 -13.2689 -13.1998  -7.5053  -7.4547  -5.0987  -4.7852
    -3.8335  -3.5689  -2.6906  -2.4933   1.9319   2.2085   3.1054   3.3732

          k = 0.4000 0.0000 0.0000 ( 30602 PWs)   bands (ev):

   -22.1695 -22.1684 -22.1675 -22.1652 -22.1462 -22.1394 -22.1271 -22.1271
   -22.1233 -22.1230 -13.6727 -13.3096  -8.0900  -7.7346  -3.6556  -2.9885
    -2.9765  -2.4345  -1.6953  -0.8462   0.1245   1.1799   1.2230   1.4269

          k = 0.4000 0.0681 0.0000 ( 30610 PWs)   bands (ev):

   -22.1702 -22.1694 -22.1667 -22.1646 -22.1459 -22.1394 -22.1284 -22.1257
   -22.1245 -22.1219 -13.6577 -13.3006  -8.0635  -7.7154  -3.6449  -3.4157
    -2.8283  -2.6622  -1.4775  -1.0825   0.3430   0.7921   1.4665   1.4700

          k = 0.4000 0.1362 0.0000 ( 30639 PWs)   bands (ev):

   -22.1721 -22.1715 -22.1651 -22.1631 -22.1452 -22.1394 -22.1296 -22.1258
   -22.1243 -22.1208 -13.6141 -13.2756  -7.9857  -7.6603  -3.9826  -3.6227
    -3.1353  -2.8068  -1.6429  -1.2843   0.5351   0.9588   1.5935   1.9791

          k = 0.4000 0.2043 0.0000 ( 30659 PWs)   bands (ev):

   -22.1746 -22.1742 -22.1629 -22.1611 -22.1444 -22.1396 -22.1305 -22.1269
   -22.1229 -22.1199 -13.5465 -13.2398  -7.8626  -7.5774  -4.5263  -3.7123
    -3.5327  -2.8417  -2.2424  -1.5372   0.8139   1.7265   1.8323   2.3408

          k = 0.4000 0.2724 0.0000 ( 30643 PWs)   bands (ev):

   -22.1774 -22.1772 -22.1605 -22.1590 -22.1436 -22.1400 -22.1309 -22.1279
   -22.1217 -22.1191 -13.4622 -13.2014  -7.7068  -7.4804  -4.9777  -4.1149
    -3.6481  -2.9623  -2.6871  -1.9498   1.2636   2.2246   2.3178   2.7313

          k = 0.4000 0.3405 0.0000 ( 30633 PWs)   bands (ev):

   -22.1800 -22.1799 -22.1583 -22.1571 -22.1431 -22.1406 -22.1309 -22.1285
   -22.1205 -22.1186 -13.3712 -13.1708  -7.5413  -7.3888  -5.2910  -4.4757
    -3.8923  -3.2226  -2.8344  -2.2561   1.6357   2.4479   2.7362   3.4391

          k = 0.4000 0.4086 0.0000 ( 30672 PWs)   bands (ev):

   -22.1820 -22.1819 -22.1566 -22.1558 -22.1427 -22.1413 -22.1305 -22.1290
   -22.1195 -22.1183 -13.2853 -13.1586  -7.4008  -7.3221  -5.4255  -4.8086
    -4.0976  -3.5737  -2.7899  -2.4345   1.9294   2.4369   3.2238   3.8451

          k = 0.4000 0.4767 0.0000 ( 30638 PWs)   bands (ev):

   -22.1831 -22.1831 -22.1555 -22.1552 -22.1423 -22.1419 -22.1299 -22.1294
   -22.1188 -22.1184 -13.2163 -13.1728  -7.3167  -7.2945  -5.3616  -5.1299
    -4.0912  -3.8933  -2.6845  -2.5646   2.1648   2.3377   3.5878   3.8146

          k = 0.4667 0.0000 0.0000 ( 30618 PWs)   bands (ev):

   -22.1693 -22.1687 -22.1671 -22.1660 -22.1433 -22.1410 -22.1258 -22.1258
   -22.1245 -22.1244 -13.5326 -13.4080  -8.0697  -7.9480  -3.4036  -3.1612
    -2.7327  -2.5394  -1.3818  -1.0114   0.2675   0.7096   1.1722   1.3661

          k = 0.4667 0.0681 0.0000 ( 30642 PWs)   bands (ev):

   -22.1702 -22.1698 -22.1661 -22.1652 -22.1431 -22.1410 -22.1272 -22.1258
   -22.1244 -22.1231 -13.5195 -13.3971  -8.0423  -7.9230  -3.4075  -3.2579
    -2.9274  -2.7906  -1.2562  -1.1104   0.3237   0.4657   1.5193   1.7173

          k = 0.4667 0.1362 0.0000 ( 30657 PWs)   bands (ev):

   -22.1723 -22.1721 -22.1643 -22.1636 -22.1427 -22.1408 -22.1284 -22.1271
   -22.1231 -22.1219 -13.4819 -13.3658  -7.9613  -7.8499  -3.7122  -3.5084
    -3.2083  -3.0332  -1.5671  -1.3964   0.6028   0.8220   1.8822   2.0203

          k = 0.4667 0.2043 0.0000 ( 30631 PWs)   bands (ev):

   -22.1750 -22.1749 -22.1621 -22.1615 -22.1423 -22.1407 -22.1294 -22.1281
   -22.1218 -22.1208 -13.4244 -13.3194  -7.8314  -7.7339  -4.2651  -3.9627
    -3.3238  -3.0794  -2.1266  -1.8591   1.1393   1.4987   2.1318   2.3411

          k = 0.4667 0.2724 0.0000 ( 30638 PWs)   bands (ev):

   -22.1780 -22.1779 -22.1598 -22.1592 -22.1420 -22.1408 -22.1299 -22.1289
   -22.1207 -22.1198 -13.3549 -13.2656  -7.6625  -7.5860  -4.7593  -4.4502
    -3.4594  -3.2159  -2.5405  -2.2809   1.6292   1.9881   2.5785   2.8260

          k = 0.4667 0.3405 0.0000 ( 30621 PWs)   bands (ev):

   -22.1808 -22.1807 -22.1576 -22.1572 -22.1419 -22.1411 -22.1301 -22.1292
   -22.1197 -22.1191 -13.2835 -13.2150  -7.4740  -7.4247  -5.1451  -4.8566
    -3.7562  -3.5162  -2.6885  -2.4933   1.9497   2.2247   3.1451   3.4314

          k = 0.4667 0.4086 0.0000 ( 30651 PWs)   bands (ev):

   -22.1829 -22.1829 -22.1560 -22.1557 -22.1419 -22.1414 -22.1299 -22.1294
   -22.1190 -22.1186 -13.2216 -13.1783  -7.3011  -7.2795  -5.3880  -5.1651
    -4.0560  -3.8673  -2.6869  -2.5673   2.1717   2.3444   3.5949   3.8195

          k = 0.4667 0.4767 0.0000 ( 30630 PWs)   bands (ev):

   -22.1840 -22.1840 -22.1551 -22.1550 -22.1419 -22.1417 -22.1297 -22.1295
   -22.1185 -22.1184 -13.1798 -13.1650  -7.1941  -7.1899  -5.4622  -5.3744
    -4.1973  -4.1235  -2.6470  -2.6065   2.3162   2.3751   3.8238   3.9448

     the Fermi energy is    -0.7823 ev

!    total energy              =    -413.80383101 Ry
     estimated scf accuracy    <          9.5E-13 Ry
     smearing contrib. (-TS)   =       0.00008971 Ry
     internal energy E=F+TS    =    -413.80392072 Ry

     The total energy is F=E-TS. E is the sum of the following terms:
     one-electron contribution =   -1189.46897761 Ry
[...]

   -22.1773 -22.1706 -22.1702 -22.1653 -22.1629 -22.1402 -22.1364 -22.1339
   -22.1245 -22.1213 -14.1701 -13.1751  -7.2688  -6.2984  -4.3213  -4.0425
    -3.6530  -2.8159  -2.4048  -1.5139   0.6581   2.5184   2.5903   2.9780

          k = 0.0667 0.1362 0.0000 ( 30662 PWs)   bands (ev):

   -22.1759 -22.1715 -22.1692 -22.1667 -22.1615 -22.1405 -22.1365 -22.1331
   -22.1253 -22.1213 -14.1122 -13.1653  -7.4222  -6.4957  -4.2919  -4.1022
    -3.3835  -2.8545  -2.0966  -1.5495   0.7036   1.9471   2.6809   2.9282

          k = 0.0667 0.2043 0.0000 ( 30665 PWs)   bands (ev):

   -22.1740 -22.1727 -22.1682 -22.1678 -22.1597 -22.1411 -22.1364 -22.1319
   -22.1266 -22.1215 -14.0193 -13.1562  -7.6309  -6.7858  -4.2123  -4.0581
    -3.1121  -2.8067  -1.7762  -1.6117   0.7928   1.3450   2.3940   2.5466

          k = 0.0667 0.2724 0.0000 ( 30651 PWs)   bands (ev):

   -22.1741 -22.1729 -22.1689 -22.1663 -22.1573 -22.1419 -22.1362 -22.1304
   -22.1280 -22.1218 -13.8974 -13.1581  -7.8425  -7.1199  -4.0743  -3.9215
    -2.8841  -2.7105  -1.6763  -1.4981   0.8316   0.9340   1.8404   2.0577

          k = 0.0667 0.3405 0.0000 ( 30601 PWs)   bands (ev):

   -22.1753 -22.1737 -22.1677 -22.1650 -22.1546 -22.1432 -22.1357 -22.1296
   -22.1288 -22.1223 -13.7551 -13.1827  -8.0087  -7.4504  -3.8850  -3.7130
    -2.7739  -2.6230  -1.6713  -1.3215   0.4981   1.0633   1.3604   1.6109

          k = 0.0667 0.4086 0.0000 ( 30568 PWs)   bands (ev):

   -22.1762 -22.1751 -22.1661 -22.1643 -22.1518 -22.1448 -22.1348 -22.1311
   -22.1271 -22.1230 -13.6041 -13.2399  -8.0934  -7.7387  -3.6606  -3.4693
    -2.8227  -2.6235  -1.5445  -1.2624   0.3559   0.7374   1.3500   1.4835

          k = 0.0667 0.4767 0.0000 ( 30547 PWs)   bands (ev):

   -22.1764 -22.1761 -22.1649 -22.1642 -22.1492 -22.1468 -22.1338 -22.1325
   -22.1255 -22.1241 -13.4587 -13.3334  -8.0765  -7.9546  -3.4327  -3.3108
    -2.8883  -2.7531  -1.3742  -1.2745   0.3134   0.4238   1.4069   1.7034

          k = 0.1333 0.0000 0.0000 ( 30639 PWs)   bands (ev):

   -22.1772 -22.1708 -22.1702 -22.1648 -22.1627 -22.1402 -22.1357 -22.1341
   -22.1244 -22.1219 -14.1359 -13.1761  -7.3940  -6.4557  -4.3007  -3.7905
    -3.6973  -2.6460  -2.3291  -1.5612   0.6872   2.3111   2.6177   2.7717

          k = 0.1333 0.0681 0.0000 ( 30650 PWs)   bands (ev):

   -22.1767 -22.1711 -22.1698 -22.1658 -22.1617 -22.1403 -22.1360 -22.1336
   -22.1248 -22.1218 -14.1166 -13.1718  -7.4256  -6.5030  -4.2851  -4.0759
    -3.3675  -2.8375  -2.0838  -1.5616   0.7052   1.9390   2.6223   2.9685

          k = 0.1333 0.1362 0.0000 ( 30661 PWs)   bands (ev):

   -22.1753 -22.1721 -22.1687 -22.1674 -22.1600 -22.1406 -22.1364 -22.1326
   -22.1258 -22.1217 -14.0597 -13.1611  -7.5181  -6.6435  -4.3082  -4.2370
    -3.0303  -3.0091  -1.7509  -1.5602   0.7606   1.3896   2.3870   3.0736

          k = 0.1333 0.2043 0.0000 ( 30637 PWs)   bands (ev):

   -22.1738 -22.1735 -22.1689 -22.1672 -22.1581 -22.1411 -22.1365 -22.1313
   -22.1271 -22.1217 -13.9687 -13.1503  -7.6579  -6.8653  -4.4137  -4.1513
    -3.1060  -2.7277  -1.5418  -1.5290   0.8525   0.9517   1.8372   2.9369

          k = 0.1333 0.2724 0.0000 ( 30636 PWs)   bands (ev):

   -22.1751 -22.1738 -22.1686 -22.1656 -22.1558 -22.1420 -22.1364 -22.1298
   -22.1285 -22.1218 -13.8497 -13.1493  -7.8145  -7.1394  -4.3857  -4.0221
    -3.0790  -2.5946  -1.5301  -1.4764   0.7764   0.9206   1.3514   2.5678

          k = 0.1333 0.3405 0.0000 ( 30588 PWs)   bands (ev):

   -22.1765 -22.1753 -22.1669 -22.1643 -22.1534 -22.1432 -22.1359 -22.1300
   -22.1282 -22.1222 -13.7114 -13.1698  -7.9460  -7.4256  -4.2399  -3.8502
    -3.0150  -2.6350  -1.7100  -1.3836   0.6815   0.8550   1.3551   2.1570

          k = 0.1333 0.4086 0.0000 ( 30561 PWs)   bands (ev):

   -22.1775 -22.1767 -22.1651 -22.1635 -22.1510 -22.1447 -22.1351 -22.1315
   -22.1266 -22.1229 -13.5658 -13.2214  -8.0140  -7.6838  -4.0042  -3.6551
    -3.0320  -2.7964  -1.8335  -1.3803   0.4907   0.9518   1.6038   1.9027

          k = 0.1333 0.4767 0.0000 ( 30565 PWs)   bands (ev):

   -22.1780 -22.1777 -22.1639 -22.1633 -22.1487 -22.1466 -22.1341 -22.1328
   -22.1251 -22.1238 -13.4267 -13.3083  -7.9945  -7.8811  -3.7245  -3.5407
    -3.1255  -3.0038  -1.7426  -1.5348   0.5650   0.7993   1.9038   1.9980

          k = 0.2000 0.0000 0.0000 ( 30651 PWs)   bands (ev):

   -22.1762 -22.1715 -22.1696 -22.1662 -22.1599 -22.1404 -22.1348 -22.1337
   -22.1249 -22.1229 -14.0494 -13.1775  -7.6258  -6.7726  -4.2192  -3.6422
    -3.4403  -2.5581  -1.9480  -1.6594   0.7756   1.7000   2.2538   2.5704

          k = 0.2000 0.0681 0.0000 ( 30672 PWs)   bands (ev):

   -22.1757 -22.1719 -22.1692 -22.1670 -22.1592 -22.1405 -22.1354 -22.1330
   -22.1254 -22.1227 -14.0307 -13.1726  -7.6328  -6.7959  -4.1990  -4.0102
    -3.0698  -2.7845  -1.7301  -1.6359   0.7978   1.3461   2.3489   2.5845

          k = 0.2000 0.1362 0.0000 ( 30635 PWs)   bands (ev):

   -22.1746 -22.1731 -22.1685 -22.1680 -22.1577 -22.1408 -22.1361 -22.1318
   -22.1265 -22.1223 -13.9757 -13.1602  -7.6579  -6.8696  -4.3908  -4.1413
    -3.1031  -2.7046  -1.5489  -1.4928   0.8577   0.9554   1.8308   2.9562

          k = 0.2000 0.2043 0.0000 ( 30624 PWs)   bands (ev):

   -22.1747 -22.1742 -22.1691 -22.1664 -22.1558 -22.1413 -22.1365 -22.1304
   -22.1279 -22.1220 -13.8880 -13.1463  -7.7075  -7.0001  -4.6505  -4.0548
    -3.3179  -2.5182  -1.5495  -1.3864   0.8837   0.8864   1.3626   3.0754

          k = 0.2000 0.2724 0.0000 ( 30604 PWs)   bands (ev):

   -22.1765 -22.1755 -22.1677 -22.1647 -22.1537 -22.1422 -22.1365 -22.1293
   -22.1289 -22.1220 -13.7741 -13.1403  -7.7789  -7.1828  -4.7562  -3.9472
    -3.3976  -2.5165  -1.8792  -1.2518   0.6794   1.1255   1.3348   2.8663

          k = 0.2000 0.3405 0.0000 ( 30599 PWs)   bands (ev):

   -22.1782 -22.1774 -22.1657 -22.1632 -22.1517 -22.1433 -22.1362 -22.1306
   -22.1274 -22.1222 -13.6428 -13.1534  -7.8500  -7.3944  -4.7060  -3.8169
    -3.4036  -2.6399  -2.2449  -1.3245   0.5887   1.4807   1.5458   2.5414

          k = 0.2000 0.4086 0.0000 ( 30569 PWs)   bands (ev):

   -22.1795 -22.1790 -22.1639 -22.1623 -22.1498 -22.1447 -22.1354 -22.1319
   -22.1259 -22.1227 -13.5062 -13.1955  -7.8871  -7.5994  -4.5221  -3.7149
    -3.4454  -2.8400  -2.3979  -1.6099   0.7656   1.6820   1.8275   2.3310

          k = 0.2000 0.4767 0.0000 ( 30555 PWs)   bands (ev):

   -22.1801 -22.1799 -22.1626 -22.1621 -22.1480 -22.1462 -22.1343 -22.1331
   -22.1245 -22.1234 -13.3779 -13.2712  -7.8620  -7.7633  -4.2397  -3.9147
    -3.3162  -3.0793  -2.2584  -1.9592   1.0870   1.4488   2.1317   2.3511

          k = 0.2667 0.0000 0.0000 ( 30676 PWs)   bands (ev):

   -22.1749 -22.1723 -22.1691 -22.1680 -22.1566 -22.1408 -22.1338 -22.1332
   -22.1256 -22.1242 -13.9355 -13.1919  -7.8479  -7.1215  -4.0773  -3.4438
    -3.1742  -2.4639  -1.7746  -1.5269   0.9240   1.0738   1.7605   2.2526

          k = 0.2667 0.0681 0.0000 ( 30664 PWs)   bands (ev):

   -22.1746 -22.1728 -22.1687 -22.1685 -22.1561 -22.1409 -22.1347 -22.1321
   -22.1263 -22.1237 -13.9177 -13.1861  -7.8370  -7.1252  -4.0576  -3.8595
    -2.8256  -2.6943  -1.6978  -1.4045   0.8378   0.9459   1.8281   2.1122

          k = 0.2667 0.1362 0.0000 ( 30654 PWs)   bands (ev):

   -22.1742 -22.1742 -22.1694 -22.1674 -22.1547 -22.1412 -22.1356 -22.1308
   -22.1275 -22.1230 -13.8655 -13.1709  -7.8085  -7.1411  -4.3483  -4.0024
    -3.0914  -2.5672  -1.4641  -1.4411   0.7846   0.9452   1.3394   2.5984

          k = 0.2667 0.2043 0.0000 ( 30614 PWs)   bands (ev):

   -22.1761 -22.1752 -22.1686 -22.1657 -22.1531 -22.1417 -22.1362 -22.1294
   -22.1289 -22.1225 -13.7829 -13.1520  -7.7739  -7.1815  -4.7415  -3.9274
    -3.4246  -2.5104  -1.8277  -1.2321   0.6939   1.1382   1.3315   2.8752

          k = 0.2667 0.2724 0.0000 ( 30618 PWs)   bands (ev):

   -22.1782 -22.1774 -22.1666 -22.1638 -22.1514 -22.1424 -22.1364 -22.1301
   -22.1279 -22.1222 -13.6763 -13.1384  -7.7476  -7.2581  -4.9880  -3.8720
    -3.6107  -2.5800  -2.3253  -1.2857   0.6477   1.5512   1.6642   2.8484

          k = 0.2667 0.3405 0.0000 ( 30621 PWs)   bands (ev):

   -22.1802 -22.1797 -22.1644 -22.1622 -22.1498 -22.1434 -22.1361 -22.1313
   -22.1265 -22.1222 -13.5554 -13.1408  -7.7353  -7.3699  -5.0599  -3.8424
    -3.7155  -2.7401  -2.6993  -1.6068   0.8901   1.8522   2.1889   2.6559

          k = 0.2667 0.4086 0.0000 ( 30611 PWs)   bands (ev):

   -22.1818 -22.1815 -22.1625 -22.1611 -22.1485 -22.1446 -22.1354 -22.1324
   -22.1251 -22.1225 -13.4319 -13.1691  -7.7234  -7.4969  -4.9598  -4.0013
    -3.7163  -2.9738  -2.7646  -1.9863   1.2332   2.1975   2.2882   2.6949

          k = 0.2667 0.4767 0.0000 ( 30590 PWs)   bands (ev):

   -22.1826 -22.1825 -22.1613 -22.1608 -22.1472 -22.1459 -22.1344 -22.1334
   -22.1240 -22.1231 -13.3190 -13.2288  -7.6870  -7.6101  -4.7165  -4.3736
    -3.5148  -3.2492  -2.5987  -2.3262   1.5969   1.9587   2.5390   2.7802

          k = 0.3333 0.0000 0.0000 ( 30674 PWs)   bands (ev):

   -22.1735 -22.1729 -22.1697 -22.1690 -22.1531 -22.1416 -22.1325 -22.1324
   -22.1264 -22.1256 -13.8018 -13.2288  -8.0148  -7.4562  -3.8842  -3.2067
    -2.9862  -2.3978  -1.8257  -1.1120   0.4998   1.1381   1.3725   1.7706

          k = 0.3333 0.0681 0.0000 ( 30644 PWs)   bands (ev):

   -22.1735 -22.1735 -22.1700 -22.1684 -22.1526 -22.1416 -22.1337 -22.1311
   -22.1274 -22.1248 -13.7853 -13.2217  -7.9930  -7.4460  -3.8677  -3.6447
    -2.7331  -2.6201  -1.6544  -1.1749   0.4978   1.1112   1.3357   1.6904

          k = 0.3333 0.1362 0.0000 ( 30648 PWs)   bands (ev):

   -22.1751 -22.1743 -22.1696 -22.1670 -22.1516 -22.1418 -22.1349 -22.1296
   -22.1287 -22.1239 -13.7370 -13.2025  -7.9303  -7.4188  -4.1980  -3.8230
    -3.0594  -2.6233  -1.5657  -1.3272   0.7178   0.8693   1.3422   2.2069

          k = 0.3333 0.2043 0.0000 ( 30629 PWs)   bands (ev):

   -22.1773 -22.1766 -22.1678 -22.1652 -22.1503 -22.1422 -22.1357 -22.1300
   -22.1282 -22.1232 -13.6612 -13.1765  -7.8357  -7.3857  -4.6884  -3.7731
    -3.4838  -2.6354  -2.1361  -1.2770   0.6185   1.5143   1.5460   2.5521

          k = 0.3333 0.2724 0.0000 ( 30609 PWs)   bands (ev):

   -22.1798 -22.1793 -22.1655 -22.1632 -22.1491 -22.1428 -22.1360 -22.1311
   -22.1269 -22.1227 -13.5648 -13.1523  -7.7256  -7.3627  -5.0580  -3.8544
    -3.7265  -2.7343  -2.6482  -1.5889   0.9090   1.8605   2.2211   2.6564

          k = 0.3333 0.3405 0.0000 ( 30629 PWs)   bands (ev):

   -22.1821 -22.1818 -22.1632 -22.1614 -22.1481 -22.1437 -22.1358 -22.1320
   -22.1255 -22.1224 -13.4576 -13.1403  -7.6224  -7.3642  -5.2628  -4.0624
    -3.8939  -2.9357  -2.8929  -1.9676   1.2848   2.2695   2.6000   2.8924

          k = 0.3333 0.4086 0.0000 ( 30610 PWs)   bands (ev):

   -22.1839 -22.1837 -22.1614 -22.1602 -22.1472 -22.1446 -22.1352 -22.1327
   -22.1244 -22.1224 -13.3513 -13.1505  -7.5433  -7.3928  -5.2765  -4.3969
    -3.9593  -3.2337  -2.8564  -2.2709   1.6314   2.4493   2.7078   3.3572

          k = 0.3333 0.4767 0.0000 ( 30617 PWs)   bands (ev):

   -22.1849 -22.1848 -22.1602 -22.1598 -22.1464 -22.1456 -22.1343 -22.1335
   -22.1234 -22.1228 -13.2585 -13.1897  -7.4863  -7.4373  -5.1065  -4.7925
    -3.8194  -3.5562  -2.7037  -2.5062   1.9433   2.2207   3.0962   3.3625

          k = 0.4000 0.0000 0.0000 ( 30602 PWs)   bands (ev):

   -22.1732 -22.1721 -22.1713 -22.1692 -22.1497 -22.1427 -22.1313 -22.1312
   -22.1275 -22.1271 -13.6586 -13.2955  -8.0963  -7.7428  -3.6530  -2.9878
    -2.9499  -2.4029  -1.6893  -0.8347   0.1250   1.1547   1.2308   1.4239

          k = 0.4000 0.0681 0.0000 ( 30610 PWs)   bands (ev):

   -22.1740 -22.1730 -22.1705 -22.1686 -22.1494 -22.1427 -22.1326 -22.1298
   -22.1286 -22.1260 -13.6437 -13.2867  -8.0692  -7.7232  -3.6422  -3.3994
    -2.8200  -2.6301  -1.4696  -1.0838   0.3512   0.7868   1.4493   1.4643

          k = 0.4000 0.1362 0.0000 ( 30639 PWs)   bands (ev):

   -22.1758 -22.1751 -22.1690 -22.1671 -22.1487 -22.1428 -22.1338 -22.1300
   -22.1284 -22.1249 -13.6005 -13.2621  -7.9898  -7.6667  -3.9667  -3.6197
    -3.1028  -2.8008  -1.6561  -1.2794   0.5285   0.9706   1.5919   1.9658

          k = 0.4000 0.2043 0.0000 ( 30659 PWs)   bands (ev):

   -22.1783 -22.1778 -22.1668 -22.1651 -22.1478 -22.1430 -22.1348 -22.1311
   -22.1271 -22.1240 -13.5334 -13.2269  -7.8636  -7.5810  -4.5129  -3.6952
    -3.5149  -2.8351  -2.2618  -1.5407   0.8118   1.7365   1.8312   2.3346

          k = 0.4000 0.2724 0.0000 ( 30643 PWs)   bands (ev):

   -22.1810 -22.1807 -22.1644 -22.1629 -22.1471 -22.1434 -22.1352 -22.1320
   -22.1258 -22.1232 -13.4498 -13.1894  -7.7029  -7.4795  -4.9688  -4.0915
    -3.6417  -2.9537  -2.7075  -1.9596   1.2656   2.2229   2.3219   2.7328

          k = 0.4000 0.3405 0.0000 ( 30633 PWs)   bands (ev):

   -22.1836 -22.1834 -22.1622 -22.1610 -22.1465 -22.1441 -22.1351 -22.1326
   -22.1247 -22.1227 -13.3596 -13.1596  -7.5305  -7.3815  -5.2892  -4.4627
    -3.8877  -3.2130  -2.8498  -2.2686   1.6425   2.4546   2.7337   3.4412

          k = 0.4000 0.4086 0.0000 ( 30672 PWs)   bands (ev):

   -22.1855 -22.1855 -22.1604 -22.1597 -22.1462 -22.1448 -22.1347 -22.1331
   -22.1237 -22.1225 -13.2744 -13.1480  -7.3822  -7.3072  -5.4324  -4.8120
    -4.0880  -3.5642  -2.8019  -2.4466   1.9415   2.4496   3.2216   3.8424

          k = 0.4000 0.4767 0.0000 ( 30638 PWs)   bands (ev):

   -22.1866 -22.1866 -22.1594 -22.1591 -22.1459 -22.1454 -22.1341 -22.1335
   -22.1230 -22.1226 -13.2058 -13.1625  -7.2937  -7.2732  -5.3749  -5.1428
    -4.0796  -3.8830  -2.6956  -2.5758   2.1811   2.3544   3.5849   3.8086

          k = 0.4667 0.0000 0.0000 ( 30618 PWs)   bands (ev):

   -22.1731 -22.1724 -22.1708 -22.1698 -22.1468 -22.1444 -22.1300 -22.1299
   -22.1286 -22.1286 -13.5183 -13.3937  -8.0771  -7.9559  -3.4017  -3.1600
    -2.7033  -2.5079  -1.3725  -0.9987   0.2675   0.7140   1.1463   1.3418

          k = 0.4667 0.0681 0.0000 ( 30642 PWs)   bands (ev):

   -22.1739 -22.1735 -22.1699 -22.1691 -22.1466 -22.1444 -22.1314 -22.1300
   -22.1286 -22.1273 -13.5054 -13.3829  -8.0491  -7.9305  -3.4056  -3.2506
    -2.9060  -2.7596  -1.2488  -1.1082   0.3281   0.4628   1.5008   1.7142

          k = 0.4667 0.1362 0.0000 ( 30657 PWs)   bands (ev):

   -22.1760 -22.1757 -22.1682 -22.1675 -22.1462 -22.1442 -22.1326 -22.1313
   -22.1272 -22.1260 -13.4681 -13.3521  -7.9666  -7.8559  -3.6943  -3.4987
    -3.1857  -3.0244  -1.5775  -1.3991   0.6042   0.8316   1.8816   2.0155

          k = 0.4667 0.2043 0.0000 ( 30631 PWs)   bands (ev):

   -22.1787 -22.1785 -22.1660 -22.1654 -22.1457 -22.1442 -22.1336 -22.1323
   -22.1260 -22.1249 -13.4113 -13.3063  -7.8338  -7.7372  -4.2479  -3.9417
    -3.3140  -3.0717  -2.1427  -1.8692   1.1425   1.5061   2.1333   2.3444

          k = 0.4667 0.2724 0.0000 ( 30638 PWs)   bands (ev):

   -22.1816 -22.1815 -22.1636 -22.1631 -22.1455 -22.1443 -22.1341 -22.1331
   -22.1248 -22.1240 -13.3425 -13.2533  -7.6603  -7.5847  -4.7466  -4.4326
    -3.4516  -3.2073  -2.5577  -2.2947   1.6329   1.9920   2.5815   2.8341

          k = 0.4667 0.3405 0.0000 ( 30621 PWs)   bands (ev):

   -22.1843 -22.1843 -22.1615 -22.1611 -22.1454 -22.1446 -22.1342 -22.1334
   -22.1239 -22.1232 -13.2719 -13.2035  -7.4646  -7.4166  -5.1406  -4.8484
    -3.7506  -3.5088  -2.7020  -2.5062   1.9575   2.2322   3.1481   3.4384

          k = 0.4667 0.4086 0.0000 ( 30651 PWs)   bands (ev):

   -22.1864 -22.1864 -22.1599 -22.1596 -22.1455 -22.1450 -22.1340 -22.1335
   -22.1232 -22.1228 -13.2107 -13.1675  -7.2824  -7.2624  -5.3952  -5.1706
    -4.0486  -3.8597  -2.6979  -2.5784   2.1858   2.3588   3.5982   3.8220

          k = 0.4667 0.4767 0.0000 ( 30630 PWs)   bands (ev):

   -22.1876 -22.1876 -22.1590 -22.1589 -22.1455 -22.1453 -22.1338 -22.1336
   -22.1227 -22.1226 -13.1693 -13.1545  -7.1679  -7.1646  -5.4797  -5.3916
    -4.1872  -4.1140  -2.6572  -2.6168   2.3360   2.3951   3.8163   3.9266

     the Fermi energy is    -0.7624 ev

!    total energy              =    -413.80385994 Ry
     estimated scf accuracy    <          1.8E-13 Ry
     smearing contrib. (-TS)   =       0.00007591 Ry
     internal energy E=F+TS    =    -413.80393585 Ry

     The total energy is F=E-TS. E is the sum of the following terms:
     one-electron contribution =   -1189.44879517 Ry
     hartree contribution      =     606.93743686 Ry
     xc contribution           =    -154.41557973 Ry
     ewald contribution        =     323.12300220 Ry

     convergence has been achieved in   8 iterations

     negative rho (up, down):  2.818E-05 0.000E+00

     Forces acting on atoms (cartesian axes, Ry/au):

     atom    1 type  1   force =    -0.00002684    0.00000000    0.00003019
     atom    2 type  1   force =    -0.00002745    0.00000000   -0.00002827
     atom    3 type  2   force =     0.00002670    0.00000000    0.00003112
     atom    4 type  2   force =     0.00002759    0.00000000   -0.00003304

     Total force =     0.000082     Total SCF correction =     0.000003

     bfgs converged in  17 scf cycles and  16 bfgs steps
     (criteria: energy <  1.0E-06 Ry, force <  3.8E-05 Ry/Bohr)

     End of BFGS Geometry Optimization

     Final energy   =    -413.8038599366 Ry

     File ./wfc-out/pwscf.bfgs deleted, as requested
Begin final coordinates

ATOMIC_POSITIONS (crystal)
Sn            0.5815157864        0.7500000000        0.1445167265
Sn            0.0815169998        0.2500000000        0.0066280658
Se            0.0325882619        0.2500000000        0.1424565800
Se            0.5325869259        0.7500000000        0.0086886817
End final coordinates



     Writing output data file ./wfc-out/pwscf.save/
 
     init_run     :      1.96s CPU      2.78s WALL (       1 calls)
     electrons    :    627.18s CPU    695.48s WALL (      17 calls)
     update_pot   :      7.06s CPU      7.15s WALL (      16 calls)
     forces       :     14.90s CPU     17.84s WALL (      17 calls)

     Called by init_run:
     wfcinit      :      1.20s CPU      1.30s WALL (       1 calls)
     potinit      :      0.15s CPU      0.17s WALL (       1 calls)
     hinit0       :      0.28s CPU      0.58s WALL (       1 calls)

     Called by electrons:
     c_bands      :    502.90s CPU    521.75s WALL (     150 calls)
     sum_band     :     99.81s CPU    125.49s WALL (     150 calls)
     v_of_rho     :      5.58s CPU      5.82s WALL (     151 calls)
     newd         :     19.78s CPU     44.17s WALL (     151 calls)
     mix_rho      :      0.79s CPU      0.85s WALL (     150 calls)

     Called by c_bands:
     init_us_2    :     12.55s CPU     13.63s WALL (   20352 calls)
     cegterg      :    442.34s CPU    457.48s WALL (    9600 calls)

     Called by *egterg:
     cdiaghg      :     26.92s CPU     27.41s WALL (   36380 calls)
     h_psi        :    331.50s CPU    344.59s WALL (   38492 calls)
     s_psi        :     16.04s CPU     16.46s WALL (   38492 calls)
     g_psi        :      1.75s CPU      1.79s WALL (   28828 calls)

     Called by h_psi:
     h_psi:calbec :     24.09s CPU     25.00s WALL (   38492 calls)
     vloc_psi     :    283.85s CPU    295.54s WALL (   38492 calls)
     add_vuspsi   :     20.32s CPU     20.78s WALL (   38492 calls)

     General routines
     calbec       :     33.84s CPU     35.06s WALL (   52444 calls)
     fft          :      4.98s CPU      5.16s WALL (    2148 calls)
     ffts         :      0.16s CPU      0.16s WALL (     301 calls)
     fftw         :    303.49s CPU    315.86s WALL ( 1452934 calls)
     interpolate  :      0.38s CPU      0.38s WALL (     151 calls)
 
     Parallel routines
     fft_scatt_xy :     42.40s CPU     44.16s WALL ( 1455383 calls)
     fft_scatt_yz :    173.72s CPU    180.68s WALL ( 1455383 calls)
 
     PWSCF        :  10m54.78s CPU  12m45.38s WALL

 
   This run was terminated on:   6:36:36   8May2023            

=------------------------------------------------------------------------------=
   JOB DONE.
=------------------------------------------------------------------------------=
