
     Program PWSCF v.6.6 starts on  8May2023 at  6:36:37 

     This program is part of the open-source Quantum ESPRESSO suite
     for quantum simulation of materials; please cite
         "P. Giannozzi et al., J. Phys.:Condens. Matter 21 395502 (2009);
         "P. Giannozzi et al., J. Phys.:Condens. Matter 29 465901 (2017);
          URL http://www.quantum-espresso.org", 
     in publications or presentations arising from this work. More details at
     http://www.quantum-espresso.org/quote

     Parallel version (MPI), running on    24 processors

     MPI processes distributed on     1 nodes
     R & G space division:  proc/nbgrp/npool/nimage =      24
     Fft bands division:     nmany     =       1
     Reading input from INCAR-nscf.pw

     Current dimensions of program PWSCF are:
     Max number of different atomic species (ntypx) = 10
     Max number of k-points (npk) =  40000
     Max angular momentum in pseudopotentials (lmaxx) =  3

     Atomic positions and unit cell read from directory:
     ./wfc-out/pwscf.save/
     Atomic positions from file used, from input discarded
 

     Subspace diagonalization in iterative solution of the eigenvalue problem:
     a serial algorithm will be used

 
     Parallelization info
     --------------------
     sticks:   dense  smooth     PW     G-vecs:    dense   smooth      PW
     Min         133      71     21                26207    10197    1655
     Max         134      72     22                26220    10215    1677
     Sum        3203    1705    505               629105   244919   40033
 


     bravais-lattice index     =            0
     lattice parameter (alat)  =       8.2769  a.u.
     unit-cell volume          =    2534.6301 (a.u.)^3
     number of atoms/cell      =            4
     number of atomic types    =            2
     number of electrons       =        40.00
     number of Kohn-Sham states=           20
     kinetic-energy cutoff     =      80.0000  Ry
     charge density cutoff     =     600.0000  Ry
     Exchange-correlation= SLA  PW   PBE  PBE
                           (   1   4   3   4   0   0   0)

     celldm(1)=   8.276885  celldm(2)=   0.000000  celldm(3)=   0.000000
     celldm(4)=   0.000000  celldm(5)=   0.000000  celldm(6)=   0.000000

     crystal axes: (cart. coord. in units of alat)
               a(1) = (   1.000000   0.000000   0.000000 )  
               a(2) = (   0.000000   0.978931   0.000000 )  
               a(3) = (   0.000000   0.000000   4.566274 )  

     reciprocal axes: (cart. coord. in units 2 pi/alat)
               b(1) = (  1.000000  0.000000  0.000000 )  
               b(2) = (  0.000000  1.021523  0.000000 )  
               b(3) = (  0.000000  0.000000  0.218997 )  


     PseudoPot. # 1 for Sn read from file:
     ./Sn_pbe_v1.uspp.F.UPF
     MD5 check sum: 4cf58ce39ec5d5d420df3dd08604eb00
     Pseudo is Ultrasoft + core correction, Zval = 14.0
     Generated by new atomic code, or converted to UPF format
     Using radial grid of  891 points,  6 beta functions with: 
                l(1) =   0
                l(2) =   0
                l(3) =   1
                l(4) =   1
                l(5) =   2
                l(6) =   2
     Q(r) pseudized with  6 coefficients,  rinner =    1.200   1.200   1.200
                                                       1.200   1.200

     PseudoPot. # 2 for Se read from file:
     ./Se_pbe_v1.uspp.F.UPF
     MD5 check sum: 1b3568f3a8ae88f9a2a0ad0698632c85
     Pseudo is Ultrasoft + core correction, Zval =  6.0
     Generated by new atomic code, or converted to UPF format
     Using radial grid of  877 points,  6 beta functions with: 
                l(1) =   0
                l(2) =   0
                l(3) =   1
                l(4) =   1
                l(5) =   2
                l(6) =   2
     Q(r) pseudized with  8 coefficients,  rinner =    1.300   1.300   1.300
                                                       1.300   1.300

     atomic species   valence    mass     pseudopotential
        Sn            14.00   118.71000     Sn( 1.00)
        Se             6.00    78.96000     Se( 1.00)

     No symmetry found



   Cartesian axes

     site n.     atom                  positions (alat units)
         1           Sn  tau(   1) = (   0.5815158   0.7341980   0.6599030  )
         2           Sn  tau(   2) = (   0.0815170   0.2447327   0.0302656  )
         3           Se  tau(   3) = (   0.0325883   0.2447327   0.6504958  )
         4           Se  tau(   4) = (   0.5325869   0.7341980   0.0396749  )

     number of k points=   120

     Number of k-points >= 100: set verbosity='high' to print them.

     Dense  grid:   629105 G-vectors     FFT dimensions: (  72,  64, 300)

     Smooth grid:   244919 G-vectors     FFT dimensions: (  48,  48, 216)

     Estimated max dynamical RAM per process >      89.37 MB

     Estimated total dynamical RAM >       2.09 GB

     The potential is recalculated from file :
     ./wfc-out/pwscf.save/charge-density


     negative rho (up, down):  2.818E-05 0.000E+00
     Starting wfcs are   26 randomized atomic wfcs

     Band Structure Calculation
     Davidson diagonalization with overlap

     ethr =  2.50E-13,  avg # of iterations = 58.0

     total cpu time spent up to now is      113.5 secs

     End of band structure calculation

     Number of k-points >= 100: set verbosity='high' to print the bands.

     highest occupied level (ev):    -0.8486



               ==================================================
                            POLARIZATION CALCULATION
                         !!! NOT THOROUGHLY TESTED !!!
               --------------------------------------------------


                     K-POINTS STRINGS USED IN CALCULATIONS
                     ~~~~~~~~~~~~~~~~~~~~~~~~~~~~~~~~~~~~~

       G-vector along string (2 pi/a):  1.00000  0.00000  0.00000
       Modulus of the vector (1/bohr):  0.75912
       Number of k-points per string:  15
       Number of different strings  :   8


                               IONIC POLARIZATION
                               ~~~~~~~~~~~~~~~~~~

  ============================================================================
    Ion    Species    Charge              Position                Phase
  ----------------------------------------------------------------------------
     1        Sn      14.000       0.5815  0.7342  0.6599     0.14122 (mod 2)
     2        Sn      14.000       0.0815  0.2447  0.0303    -0.85876 (mod 2)
     3        Se       6.000       0.0326  0.2447  0.6505     0.19553 (mod 2)
     4        Se       6.000       0.5326  0.7342  0.0397    -0.80448 (mod 2)
  ----------------------------------------------------------------------------
                                               IONIC PHASE:   0.67351 (mod 2)
  ============================================================================


                            ELECTRONIC POLARIZATION
                            ~~~~~~~~~~~~~~~~~~~~~~~

  ============================================================================
    String     Weight      First k-point in string         Phase
  ----------------------------------------------------------------------------
       1      0.066667      0.0000  0.0000  0.0000    -0.46131
       2      0.133333      0.0000  0.0681  0.0000    -0.32619
       3      0.133333      0.0000  0.1362  0.0000    -0.22486
       4      0.133333      0.0000  0.2043  0.0000    -0.16379
       5      0.133333      0.0000  0.2724  0.0000    -0.11017
       6      0.133333      0.0000  0.3405  0.0000    -0.06641
       7      0.133333      0.0000  0.4086  0.0000    -0.04299
       8      0.133333      0.0000  0.4767  0.0000    -0.03572
  ----------------------------------------------------------------------------
                                          ELECTRONIC PHASE:  -0.16010
  ============================================================================


                               SUMMARY OF PHASES
                               ~~~~~~~~~~~~~~~~~

                          Ionic Phase:  0.67351
                     Electronic Phase: -0.16010
                          TOTAL PHASE:  0.51341 MOD_TOT: 2


                             VALUES OF POLARIZATION
                             ~~~~~~~~~~~~~~~~~~~~~~

        The calculation of phases done along the direction of vector 1
        of the reciprocal lattice gives the following contribution to
        the polarization vector (in different units, and being Omega
        the volume of the unit cell):

           P =   4.2493979  (mod  16.5537691)  (e/Omega).bohr

           P =   0.0016765  (mod   0.0065310)  e/bohr^2

           P =   0.0958504  (mod   0.3733908)  C/m^2

        The polarization direction is:  ( 1.00000 , 0.00000 , 0.00000 )


               ==================================================



     Writing output data file ./wfc-out/pwscf.save/
 
     init_run     :      0.82s CPU      1.10s WALL (       1 calls)
     electrons    :    115.49s CPU    119.73s WALL (       1 calls)

     Called by init_run:
     wfcinit      :      0.00s CPU      0.01s WALL (       1 calls)
     potinit      :      0.06s CPU      0.09s WALL (       1 calls)
     hinit0       :      0.28s CPU      0.29s WALL (       1 calls)

     Called by electrons:
     c_bands      :    108.17s CPU    112.14s WALL (       1 calls)
     v_of_rho     :      0.04s CPU      0.05s WALL (       1 calls)
     newd         :      0.14s CPU      0.29s WALL (       1 calls)

     Called by c_bands:
     init_us_2    :      0.16s CPU      0.22s WALL (     344 calls)
     cegterg      :     98.56s CPU    101.98s WALL (     368 calls)

     Called by *egterg:
     cdiaghg      :      5.01s CPU      5.08s WALL (    7079 calls)
     h_psi        :     74.03s CPU     76.99s WALL (    7447 calls)
     s_psi        :      3.38s CPU      3.47s WALL (    7447 calls)
     g_psi        :      0.57s CPU      0.58s WALL (    6959 calls)

     Called by h_psi:
     h_psi:calbec :      5.08s CPU      5.27s WALL (    7447 calls)
     vloc_psi     :     64.04s CPU     66.71s WALL (    7447 calls)
     add_vuspsi   :      4.29s CPU      4.40s WALL (    7447 calls)

     General routines
     calbec       :      5.86s CPU      6.08s WALL (    7671 calls)
     fft          :      0.04s CPU      0.05s WALL (      13 calls)
     ffts         :      0.00s CPU      0.00s WALL (       1 calls)
     fftw         :     57.60s CPU     60.01s WALL (  276356 calls)
     interpolate  :      0.00s CPU      0.00s WALL (       1 calls)
     davcio       :      0.09s CPU      0.52s WALL (     464 calls)
 
     Parallel routines
     fft_scatt_xy :      7.39s CPU      7.71s WALL (  276370 calls)
     fft_scatt_yz :     32.23s CPU     33.56s WALL (  276370 calls)
 
     PWSCF        :   1m58.63s CPU   3m 2.82s WALL

 
   This run was terminated on:   6:39:40   8May2023            

=------------------------------------------------------------------------------=
   JOB DONE.
=------------------------------------------------------------------------------=
