 vasp.5.4.4.18Apr17-6-g9f103f2a35 (build Oct 01 2024 10:11:53) complex          
  
 executed on              Shaheen date 2025.02.19  15:18:42
 running on  192 total cores
 distrk:  each k-point on  192 cores,    1 groups
 distr:  one band on NCORES_PER_BAND=  24 cores,    8 groups


--------------------------------------------------------------------------------------------------------


 INCAR:
 POTCAR:    PAW_PBE Mo 08Apr2002                  
 POTCAR:    PAW_PBE S 06Sep2000                   
 POTCAR:    PAW_PBE Te 08Apr2002                  
 POTCAR:    PAW_PBE Mo 08Apr2002                  
   VRHFIN =Mo: 4p5s4d                                                           
   LEXCH  = PE                                                                  
   EATOM  =   217.5176 eV,   15.9871 Ry                                         
                                                                                
   TITEL  = PAW_PBE Mo 08Apr2002                                                
   LULTRA =        F    use ultrasoft PP ?                                      
   IUNSCR =        1    unscreen: 0-lin 1-nonlin 2-no                           
   RPACOR =    2.200    partial core radius                                     
   POMASS =   95.940; ZVAL   =    6.000    mass and valenz                      
   RCORE  =    2.750    outmost cutoff radius                                   
   RWIGS  =    2.750; RWIGS  =    1.455    wigner-seitz radius (au A)           
   ENMAX  =  224.584; ENMIN  =  168.438 eV                                      
   RCLOC  =    2.111    cutoff for local pot                                    
   LCOR   =        T    correct aug charges                                     
   LPAW   =        T    paw PP                                                  
   EAUG   =  345.278                                                            
   DEXC   =    0.000                                                            
   RMAX   =    2.821    core radius for proj-oper                               
   RAUG   =    1.300    factor for augmentation sphere                          
   RDEP   =    2.815    radius for radial grids                                 
   RDEPT  =    2.211    core radius for aug-charge                              
                                                                                
   Atomic configuration                                                         
   12 entries                                                                   
     n  l   j            E        occ.                                          
     1  0  0.50    -19819.0341   2.0000                                         
     2  0  0.50     -2799.0127   2.0000                                         
     2  1  1.50     -2502.0276   6.0000                                         
     3  0  0.50      -476.4448   2.0000                                         
     3  1  1.50      -379.1496   6.0000                                         
     3  2  2.50      -220.9367  10.0000                                         
     4  0  0.50       -64.3378   2.0000                                         
     4  1  1.50       -38.4773   6.0000                                         
     4  2  2.50        -3.7535   5.0000                                         
     5  0  0.50        -4.0862   1.0000                                         
     5  1  0.50        -2.7701   0.0000                                         
     4  3  2.50        -1.3606   0.0000                                         
   Description                                                                  
     l       E           TYP  RCUT    TYP  RCUT                                 
     2     -3.7534765     23  2.500                                             
     2     -5.1140591     23  2.500                                             
     0     -4.0861560     23  2.600                                             
     0     13.6058260     23  2.600                                             
     1      5.4423304     23  2.750                                             
     1     27.2116520     23  2.750                                             
  local pseudopotential read in
  partial core-charges read in
  partial kinetic energy density read in
  atomic valenz-charges read in
  non local Contribution for L=           2  read in
    real space projection operators read in
  non local Contribution for L=           2  read in
    real space projection operators read in
  non local Contribution for L=           0  read in
    real space projection operators read in
  non local Contribution for L=           0  read in
    real space projection operators read in
  non local Contribution for L=           1  read in
    real space projection operators read in
  non local Contribution for L=           1  read in
    real space projection operators read in
    PAW grid and wavefunctions read in
 
   number of l-projection  operators is LMAX  =           6
   number of lm-projection operators is LMMAX =          18
 
 POTCAR:    PAW_PBE S 06Sep2000                   
   VRHFIN =S : s2p4                                                             
   LEXCH  = PE                                                                  
   EATOM  =   276.8230 eV,   20.3459 Ry                                         
                                                                                
   TITEL  = PAW_PBE S 06Sep2000                                                 
   LULTRA =        F    use ultrasoft PP ?                                      
   IUNSCR =        1    unscreen: 0-lin 1-nonlin 2-no                           
   RPACOR =    1.500    partial core radius                                     
   POMASS =   32.066; ZVAL   =    6.000    mass and valenz                      
   RCORE  =    1.900    outmost cutoff radius                                   
   RWIGS  =    2.200; RWIGS  =    1.164    wigner-seitz radius (au A)           
   ENMAX  =  258.689; ENMIN  =  194.016 eV                                      
   ICORE  =        2    local potential                                         
   LCOR   =        T    correct aug charges                                     
   LPAW   =        T    paw PP                                                  
   EAUG   =  335.092                                                            
   DEXC   =    0.000                                                            
   RMAX   =    1.942    core radius for proj-oper                               
   RAUG   =    1.300    factor for augmentation sphere                          
   RDEP   =    1.954    radius for radial grids                                 
   RDEPT  =    1.744    core radius for aug-charge                              
                                                                                
   Atomic configuration                                                         
    6 entries                                                                   
     n  l   j            E        occ.                                          
     1  0  0.50     -2405.8406   2.0000                                         
     2  0  0.50      -211.7007   2.0000                                         
     2  1  1.50      -156.4958   6.0000                                         
     3  0  0.50       -17.2562   2.0000                                         
     3  1  0.50        -7.0085   4.0000                                         
     3  2  1.50        -6.8029   0.0000                                         
   Description                                                                  
     l       E           TYP  RCUT    TYP  RCUT                                 
     0    -17.2561641     23  1.900                                             
     0    -15.8743224     23  1.900                                             
     1     -7.0085400     23  1.900                                             
     1     -2.7779785     23  1.900                                             
     2     -6.8029130     23  1.900                                             
  local pseudopotential read in
  partial core-charges read in
  partial kinetic energy density read in
  atomic valenz-charges read in
  non local Contribution for L=           0  read in
    real space projection operators read in
  non local Contribution for L=           0  read in
    real space projection operators read in
  non local Contribution for L=           1  read in
    real space projection operators read in
  non local Contribution for L=           1  read in
    real space projection operators read in
    PAW grid and wavefunctions read in
 
   number of l-projection  operators is LMAX  =           4
   number of lm-projection operators is LMMAX =           8
 
 POTCAR:    PAW_PBE Te 08Apr2002                  
   VRHFIN =Te: s2p4                                                             
   LEXCH  = PE                                                                  
   EATOM  =   223.2721 eV,   16.4100 Ry                                         
                                                                                
   TITEL  = PAW_PBE Te 08Apr2002                                                
   LULTRA =        F    use ultrasoft PP ?                                      
   IUNSCR =        1    unscreen: 0-lin 1-nonlin 2-no                           
   RPACOR =    2.200    partial core radius                                     
   POMASS =  127.600; ZVAL   =    6.000    mass and valenz                      
   RCORE  =    2.300    outmost cutoff radius                                   
   RWIGS  =    2.900; RWIGS  =    1.535    wigner-seitz radius (au A)           
   ENMAX  =  174.982; ENMIN  =  131.236 eV                                      
   ICORE  =        3    local potential                                         
   LCOR   =        T    correct aug charges                                     
   LPAW   =        T    paw PP                                                  
   EAUG   =  368.792                                                            
   DEXC   =    0.000                                                            
   RMAX   =    2.345    core radius for proj-oper                               
   RAUG   =    1.300    factor for augmentation sphere                          
   RDEP   =    2.397    radius for radial grids                                 
   RDEPT  =    2.174    core radius for aug-charge                              
                                                                                
   Atomic configuration                                                         
   13 entries                                                                   
     n  l   j            E        occ.                                          
     1  0  0.50    -31621.2075   2.0000                                         
     2  0  0.50     -4848.7941   2.0000                                         
     2  1  1.50     -4352.1960   6.0000                                         
     3  0  0.50      -964.9612   2.0000                                         
     3  1  1.50      -803.6179   6.0000                                         
     3  2  2.50      -559.8710  10.0000                                         
     4  0  0.50      -164.3522   2.0000                                         
     4  1  1.50      -114.3756   6.0000                                         
     4  2  2.50       -41.6483  10.0000                                         
     5  0  0.50       -15.1072   2.0000                                         
     5  1  0.50        -5.9526   4.0000                                         
     5  2  1.50        -5.4423   0.0000                                         
     4  3  2.50        -5.4423   0.0000                                         
   Description                                                                  
     l       E           TYP  RCUT    TYP  RCUT                                 
     0    -15.1072389     23  2.300                                             
     0    -16.4678215     23  2.300                                             
     1     -5.9526306     23  2.300                                             
     1     -2.4873968     23  2.300                                             
     2     -5.4423304     23  2.300                                             
     3     -1.3605826     23  2.300                                             
  local pseudopotential read in
  partial core-charges read in
  partial kinetic energy density read in
  atomic valenz-charges read in
  non local Contribution for L=           0  read in
    real space projection operators read in
  non local Contribution for L=           0  read in
    real space projection operators read in
  non local Contribution for L=           1  read in
    real space projection operators read in
  non local Contribution for L=           1  read in
    real space projection operators read in
  non local Contribution for L=           2  read in
    real space projection operators read in
    PAW grid and wavefunctions read in
 
   number of l-projection  operators is LMAX  =           5
   number of lm-projection operators is LMMAX =          13
 
  PAW_PBE Mo 08Apr2002                  :
 energy of atom  1       EATOM= -217.5176
 kinetic energy error for atom=    0.0005 (will be added to EATOM!!)
  PAW_PBE S 06Sep2000                   :
 energy of atom  2       EATOM= -276.8230
 kinetic energy error for atom=    0.0009 (will be added to EATOM!!)
  PAW_PBE Te 08Apr2002                  :
 energy of atom  3       EATOM= -223.2721
 kinetic energy error for atom=    0.0004 (will be added to EATOM!!)
 
 
 POSCAR: Generated by VASPKIT code               
  positions in direct lattice
  velocities in cartesian coordinates
 exchange correlation table for  LEXCH =        8
   RHO(1)=    0.500       N(1)  =     2000
   RHO(2)=  100.500       N(2)  =     4000
 


--------------------------------------------------------------------------------------------------------


 ion  position               nearest neighbor table
   1  0.500  0.167  0.507-   4 2.44   4 2.44   3 2.44   6 2.72   6 2.72   5 2.72   2 3.38   2 3.38
                             2 3.38   2 3.38
   2  0.000  0.667  0.507-   3 2.44   3 2.44   4 2.44   5 2.72   5 2.72   6 2.72   1 3.38   1 3.38
                             1 3.38   1 3.38
   3  0.500  0.833  0.580-   2 2.44   2 2.44   1 2.44
   4  0.000  0.333  0.580-   1 2.44   1 2.44   2 2.44
   5  0.500  0.833  0.413-   2 2.72   2 2.72   1 2.72   6 3.38   6 3.38   6 3.38   6 3.38
   6  0.000  0.333  0.413-   1 2.72   1 2.72   2 2.72   5 3.38   5 3.38   5 3.38   5 3.38
 

IMPORTANT INFORMATION: All symmetrisations will be switched off!
NOSYMM: (Re-)initialisation of all symmetry stuff for point group C_1.

 
 
 KPOINTS: K-Spacing Value to Generate K-Mesh: 0.01

Automatic generation of k-mesh.
Space group operators:
 irot       det(A)        alpha          n_x          n_y          n_z        tau_x        tau_y        tau_z
    1     1.000000     0.000000     1.000000     0.000000     0.000000     0.000000     0.000000     0.000000
 
 Subroutine IBZKPT returns following result:
 ===========================================
 
 Found    105 irreducible k-points:
 
 Following reciprocal coordinates:
            Coordinates               Weight
  0.000000  0.000000  0.000000      1.000000
  0.052632  0.000000  0.000000      2.000000
  0.105263  0.000000  0.000000      2.000000
  0.157895  0.000000  0.000000      2.000000
  0.210526  0.000000  0.000000      2.000000
  0.263158  0.000000  0.000000      2.000000
  0.315789  0.000000  0.000000      2.000000
  0.368421  0.000000  0.000000      2.000000
  0.421053  0.000000  0.000000      2.000000
  0.473684  0.000000  0.000000      2.000000
  0.000000  0.090909  0.000000      2.000000
  0.052632  0.090909  0.000000      2.000000
  0.105263  0.090909  0.000000      2.000000
  0.157895  0.090909  0.000000      2.000000
  0.210526  0.090909  0.000000      2.000000
  0.263158  0.090909  0.000000      2.000000
  0.315789  0.090909  0.000000      2.000000
  0.368421  0.090909  0.000000      2.000000
  0.421053  0.090909  0.000000      2.000000
  0.473684  0.090909  0.000000      2.000000
 -0.473684  0.090909  0.000000      2.000000
 -0.421053  0.090909  0.000000      2.000000
 -0.368421  0.090909  0.000000      2.000000
 -0.315789  0.090909  0.000000      2.000000
 -0.263158  0.090909  0.000000      2.000000
 -0.210526  0.090909  0.000000      2.000000
 -0.157895  0.090909  0.000000      2.000000
 -0.105263  0.090909  0.000000      2.000000
 -0.052632  0.090909  0.000000      2.000000
  0.000000  0.181818  0.000000      2.000000
  0.052632  0.181818  0.000000      2.000000
  0.105263  0.181818  0.000000      2.000000
  0.157895  0.181818  0.000000      2.000000
  0.210526  0.181818  0.000000      2.000000
  0.263158  0.181818  0.000000      2.000000
  0.315789  0.181818  0.000000      2.000000
  0.368421  0.181818  0.000000      2.000000
  0.421053  0.181818  0.000000      2.000000
  0.473684  0.181818  0.000000      2.000000
 -0.473684  0.181818  0.000000      2.000000
 -0.421053  0.181818  0.000000      2.000000
 -0.368421  0.181818  0.000000      2.000000
 -0.315789  0.181818  0.000000      2.000000
 -0.263158  0.181818  0.000000      2.000000
 -0.210526  0.181818  0.000000      2.000000
 -0.157895  0.181818  0.000000      2.000000
 -0.105263  0.181818  0.000000      2.000000
 -0.052632  0.181818  0.000000      2.000000
  0.000000  0.272727  0.000000      2.000000
  0.052632  0.272727  0.000000      2.000000
  0.105263  0.272727  0.000000      2.000000
  0.157895  0.272727  0.000000      2.000000
  0.210526  0.272727  0.000000      2.000000
  0.263158  0.272727  0.000000      2.000000
  0.315789  0.272727  0.000000      2.000000
  0.368421  0.272727  0.000000      2.000000
  0.421053  0.272727  0.000000      2.000000
  0.473684  0.272727  0.000000      2.000000
 -0.473684  0.272727  0.000000      2.000000
 -0.421053  0.272727  0.000000      2.000000
 -0.368421  0.272727  0.000000      2.000000
 -0.315789  0.272727  0.000000      2.000000
 -0.263158  0.272727  0.000000      2.000000
 -0.210526  0.272727  0.000000      2.000000
 -0.157895  0.272727  0.000000      2.000000
 -0.105263  0.272727  0.000000      2.000000
 -0.052632  0.272727  0.000000      2.000000
  0.000000  0.363636  0.000000      2.000000
  0.052632  0.363636  0.000000      2.000000
  0.105263  0.363636  0.000000      2.000000
  0.157895  0.363636  0.000000      2.000000
  0.210526  0.363636  0.000000      2.000000
  0.263158  0.363636  0.000000      2.000000
  0.315789  0.363636  0.000000      2.000000
  0.368421  0.363636  0.000000      2.000000
  0.421053  0.363636  0.000000      2.000000
  0.473684  0.363636  0.000000      2.000000
 -0.473684  0.363636  0.000000      2.000000
 -0.421053  0.363636  0.000000      2.000000
 -0.368421  0.363636  0.000000      2.000000
 -0.315789  0.363636  0.000000      2.000000
 -0.263158  0.363636  0.000000      2.000000
 -0.210526  0.363636  0.000000      2.000000
 -0.157895  0.363636  0.000000      2.000000
 -0.105263  0.363636  0.000000      2.000000
 -0.052632  0.363636  0.000000      2.000000
  0.000000  0.454545  0.000000      2.000000
  0.052632  0.454545  0.000000      2.000000
  0.105263  0.454545  0.000000      2.000000
  0.157895  0.454545  0.000000      2.000000
  0.210526  0.454545  0.000000      2.000000
  0.263158  0.454545  0.000000      2.000000
  0.315789  0.454545  0.000000      2.000000
  0.368421  0.454545  0.000000      2.000000
  0.421053  0.454545  0.000000      2.000000
  0.473684  0.454545  0.000000      2.000000
 -0.473684  0.454545  0.000000      2.000000
 -0.421053  0.454545  0.000000      2.000000
 -0.368421  0.454545  0.000000      2.000000
 -0.315789  0.454545  0.000000      2.000000
 -0.263158  0.454545  0.000000      2.000000
 -0.210526  0.454545  0.000000      2.000000
 -0.157895  0.454545  0.000000      2.000000
 -0.105263  0.454545  0.000000      2.000000
 -0.052632  0.454545  0.000000      2.000000
 
 Following cartesian coordinates:
            Coordinates               Weight
  0.000000  0.000000  0.000000      1.000000
  0.015647  0.000000  0.000000      2.000000
  0.031295  0.000000  0.000000      2.000000
  0.046942  0.000000  0.000000      2.000000
  0.062590  0.000000  0.000000      2.000000
  0.078237  0.000000  0.000000      2.000000
  0.093884  0.000000  0.000000      2.000000
  0.109532  0.000000  0.000000      2.000000
  0.125179  0.000000  0.000000      2.000000
  0.140827  0.000000  0.000000      2.000000
  0.000000  0.015527  0.000000      2.000000
  0.015647  0.015527  0.000000      2.000000
  0.031295  0.015527  0.000000      2.000000
  0.046942  0.015527  0.000000      2.000000
  0.062590  0.015527  0.000000      2.000000
  0.078237  0.015527  0.000000      2.000000
  0.093884  0.015527  0.000000      2.000000
  0.109532  0.015527  0.000000      2.000000
  0.125179  0.015527  0.000000      2.000000
  0.140827  0.015527  0.000000      2.000000
 -0.140827  0.015527  0.000000      2.000000
 -0.125179  0.015527  0.000000      2.000000
 -0.109532  0.015527  0.000000      2.000000
 -0.093884  0.015527  0.000000      2.000000
 -0.078237  0.015527  0.000000      2.000000
 -0.062590  0.015527  0.000000      2.000000
 -0.046942  0.015527  0.000000      2.000000
 -0.031295  0.015527  0.000000      2.000000
 -0.015647  0.015527  0.000000      2.000000
  0.000000  0.031053  0.000000      2.000000
  0.015647  0.031053  0.000000      2.000000
  0.031295  0.031053  0.000000      2.000000
  0.046942  0.031053  0.000000      2.000000
  0.062590  0.031053  0.000000      2.000000
  0.078237  0.031053  0.000000      2.000000
  0.093884  0.031053  0.000000      2.000000
  0.109532  0.031053  0.000000      2.000000
  0.125179  0.031053  0.000000      2.000000
  0.140827  0.031053  0.000000      2.000000
 -0.140827  0.031053  0.000000      2.000000
 -0.125179  0.031053  0.000000      2.000000
 -0.109532  0.031053  0.000000      2.000000
 -0.093884  0.031053  0.000000      2.000000
 -0.078237  0.031053  0.000000      2.000000
 -0.062590  0.031053  0.000000      2.000000
 -0.046942  0.031053  0.000000      2.000000
 -0.031295  0.031053  0.000000      2.000000
 -0.015647  0.031053  0.000000      2.000000
  0.000000  0.046580  0.000000      2.000000
  0.015647  0.046580  0.000000      2.000000
  0.031295  0.046580  0.000000      2.000000
  0.046942  0.046580  0.000000      2.000000
  0.062590  0.046580  0.000000      2.000000
  0.078237  0.046580  0.000000      2.000000
  0.093884  0.046580  0.000000      2.000000
  0.109532  0.046580  0.000000      2.000000
  0.125179  0.046580  0.000000      2.000000
  0.140827  0.046580  0.000000      2.000000
 -0.140827  0.046580  0.000000      2.000000
 -0.125179  0.046580  0.000000      2.000000
 -0.109532  0.046580  0.000000      2.000000
 -0.093884  0.046580  0.000000      2.000000
 -0.078237  0.046580  0.000000      2.000000
 -0.062590  0.046580  0.000000      2.000000
 -0.046942  0.046580  0.000000      2.000000
 -0.031295  0.046580  0.000000      2.000000
 -0.015647  0.046580  0.000000      2.000000
  0.000000  0.062106  0.000000      2.000000
  0.015647  0.062106  0.000000      2.000000
  0.031295  0.062106  0.000000      2.000000
  0.046942  0.062106  0.000000      2.000000
  0.062590  0.062106  0.000000      2.000000
  0.078237  0.062106  0.000000      2.000000
  0.093884  0.062106  0.000000      2.000000
  0.109532  0.062106  0.000000      2.000000
  0.125179  0.062106  0.000000      2.000000
  0.140827  0.062106  0.000000      2.000000
 -0.140827  0.062106  0.000000      2.000000
 -0.125179  0.062106  0.000000      2.000000
 -0.109532  0.062106  0.000000      2.000000
 -0.093884  0.062106  0.000000      2.000000
 -0.078237  0.062106  0.000000      2.000000
 -0.062590  0.062106  0.000000      2.000000
 -0.046942  0.062106  0.000000      2.000000
 -0.031295  0.062106  0.000000      2.000000
 -0.015647  0.062106  0.000000      2.000000
  0.000000  0.077633  0.000000      2.000000
  0.015647  0.077633  0.000000      2.000000
  0.031295  0.077633  0.000000      2.000000
  0.046942  0.077633  0.000000      2.000000
  0.062590  0.077633  0.000000      2.000000
  0.078237  0.077633  0.000000      2.000000
  0.093884  0.077633  0.000000      2.000000
  0.109532  0.077633  0.000000      2.000000
  0.125179  0.077633  0.000000      2.000000
  0.140827  0.077633  0.000000      2.000000
 -0.140827  0.077633  0.000000      2.000000
 -0.125179  0.077633  0.000000      2.000000
 -0.109532  0.077633  0.000000      2.000000
 -0.093884  0.077633  0.000000      2.000000
 -0.078237  0.077633  0.000000      2.000000
 -0.062590  0.077633  0.000000      2.000000
 -0.046942  0.077633  0.000000      2.000000
 -0.031295  0.077633  0.000000      2.000000
 -0.015647  0.077633  0.000000      2.000000
 


--------------------------------------------------------------------------------------------------------




 Dimension of arrays:
   k-points           NKPTS =    105   k-points in BZ     NKDIM =    105   number of bands    NBANDS=     24
   number of dos      NEDOS =    301   number of ions     NIONS =      6
   non local maximal  LDIM  =      6   non local SUM 2l+1 LMDIM =     18
   total plane-waves  NPLWV = 217728
   max r-space proj   IRMAX =      1   max aug-charges    IRDMAX=  35243
   dimension x,y,z NGX =    28 NGY =   48 NGZ =  162
   dimension x,y,z NGXF=    56 NGYF=   96 NGZF=  324
   support grid    NGXF=    56 NGYF=   96 NGZF=  324
   ions per type =               2   2   2
   NGX,Y,Z   is equivalent  to a cutoff of  13.84, 13.63, 13.30 a.u.
   NGXF,Y,Z  is equivalent  to a cutoff of  27.68, 27.26, 26.60 a.u.

 SYSTEM =  unknown system                          
 POSCAR =  Generated by VASPKIT code               

 Startparameter for this run:
   NWRITE =      2    write-flag & timer
   PREC   = accura    normal or accurate (medium, high low for compatibility)
   ISTART =      0    job   : 0-new  1-cont  2-samecut
   ICHARG =      2    charge: 1-file 2-atom 10-const
   ISPIN  =      1    spin polarized calculation?
   LNONCOLLINEAR =      F non collinear calculations
   LSORBIT =      F    spin-orbit coupling
   INIWAV =      1    electr: 0-lowe 1-rand  2-diag
   LASPH  =      F    aspherical Exc in radial PAW
   METAGGA=      F    non-selfconsistent MetaGGA calc.

 Electronic Relaxation 1
   ENCUT  =  600.0 eV  44.10 Ry    6.64 a.u.   6.72 11.69 40.45*2*pi/ulx,y,z
   ENINI  =  600.0     initial cutoff
   ENAUG  =  368.8 eV  augmentation charge cutoff
   NELM   =     60;   NELMIN=  2; NELMDL= -5     # of ELM steps 
   EDIFF  = 0.1E-06   stopping-criterion for ELM
   LREAL  =      F    real-space projection
   NLSPLINE    = F    spline interpolate recip. space projectors
   LCOMPAT=      F    compatible to vasp.4.4
   GGA_COMPAT  = T    GGA compatible to vasp.4.4-vasp.4.6
   LMAXPAW     = -100 max onsite density
   LMAXMIX     =    2 max onsite mixed and CHGCAR
   VOSKOWN=      0    Vosko Wilk Nusair interpolation
   ROPT   =    0.00000   0.00000   0.00000
 Ionic relaxation
   EDIFFG = -.1E-02   stopping-criterion for IOM
   NSW    =    100    number of steps for IOM
   NBLOCK =      1;   KBLOCK =    100    inner block; outer block 
   IBRION =      2    ionic relax: 0-MD 1-quasi-New 2-CG
   NFREE  =      1    steps in history (QN), initial steepest desc. (CG)
   ISIF   =      2    stress and relaxation
   IWAVPR =     11    prediction:  0-non 1-charg 2-wave 3-comb
   ISYM   =      0    0-nonsym 1-usesym 2-fastsym
   LCORR  =      T    Harris-Foulkes like correction to forces

   POTIM  = 0.5000    time-step for ionic-motion
   TEIN   =    0.0    initial temperature
   TEBEG  =    0.0;   TEEND  =   0.0 temperature during run
   SMASS  =  -3.00    Nose mass-parameter (am)
   estimated Nose-frequenzy (Omega)   =  0.10E-29 period in steps =****** mass=  -0.259E-27a.u.
   SCALEE = 1.0000    scale energy and forces
   NPACO  =    256;   APACO  = 16.0  distance and # of slots for P.C.
   PSTRESS=    0.0 pullay stress

  Mass of Ions in am
   POMASS =  95.94 32.07127.60
  Ionic Valenz
   ZVAL   =   6.00  6.00  6.00
  Atomic Wigner-Seitz radii
   RWIGS  =  -1.00 -1.00 -1.00
  virtual crystal weights 
   VCA    =   1.00  1.00  1.00
   NELECT =      36.0000    total number of electrons
   NUPDOWN=      -1.0000    fix difference up-down

 DOS related values:
   EMIN   =  10.00;   EMAX   =-10.00  energy-range for DOS
   EFERMI =   0.00
   ISMEAR =     0;   SIGMA  =   0.10  broadening in eV -4-tet -1-fermi 0-gaus

 Electronic relaxation 2 (details)
   IALGO  =     38    algorithm
   LDIAG  =      T    sub-space diagonalisation (order eigenvalues)
   LSUBROT=      F    optimize rotation matrix (better conditioning)
   TURBO    =      0    0=normal 1=particle mesh
   IRESTART =      0    0=no restart 2=restart with 2 vectors
   NREBOOT  =      0    no. of reboots
   NMIN     =      0    reboot dimension
   EREF     =   0.00    reference energy to select bands
   IMIX   =      4    mixing-type and parameters
     AMIX     =   0.40;   BMIX     =  1.00
     AMIX_MAG =   1.60;   BMIX_MAG =  1.00
     AMIN     =   0.10
     WC   =   100.;   INIMIX=   1;  MIXPRE=   1;  MAXMIX= -45

 Intra band minimization:
   WEIMIN = 0.0010     energy-eigenvalue tresh-hold
   EBREAK =  0.10E-08  absolut break condition
   DEPER  =   0.30     relativ break condition  

   TIME   =   0.40     timestep for ELM

  volume/ion in A,a.u.               =      66.48       448.60
  Fermi-wavevector in a.u.,A,eV,Ry     =   0.734351  1.387722  7.337234  0.539271
  Thomas-Fermi vector in A             =   1.827283
 
 Write flags
   LWAVE        =      F    write WAVECAR
   LDOWNSAMPLE  =      F    k-point downsampling of WAVECAR
   LCHARG       =      T    write CHGCAR
   LVTOT        =      F    write LOCPOT, total local potential
   LVHAR        =      F    write LOCPOT, Hartree potential only
   LELF         =      F    write electronic localiz. function (ELF)
   LORBIT       =      0    0 simple, 1 ext, 2 COOP (PROOUT), +10 PAW based schemes


 Dipole corrections
   LMONO  =      F    monopole corrections only (constant potential shift)
   LDIPOL =      T    correct potential (dipole corrections)
   IDIPOL =      3    1-x, 2-y, 3-z, 4-all directions 
   EPSILON=  1.0000000 bulk dielectric constant

 Exchange correlation treatment:
   GGA     =    PE    GGA type
   LEXCH   =     8    internal setting for exchange type
   VOSKOWN=      0    Vosko Wilk Nusair interpolation
   LHFCALC =     F    Hartree Fock is set to
   LHFONE  =     F    Hartree Fock one center treatment
   AEXX    =    0.0000 exact exchange contribution

 Linear response parameters
   LEPSILON=     F    determine dielectric tensor
   LRPA    =     F    only Hartree local field effects (RPA)
   LNABLA  =     F    use nabla operator in PAW spheres
   LVEL    =     F    velocity operator in full k-point grid
   LINTERFAST=   F  fast interpolation
   KINTER  =     0    interpolate to denser k-point grid
   CSHIFT  =0.1000    complex shift for real part using Kramers Kronig
   OMEGAMAX=  -1.0    maximum frequency
   DEG_THRESHOLD= 0.2000000E-02 threshold for treating states as degnerate
   RTIME   =   -0.100 relaxation time in fs
  (WPLASMAI=    0.000 imaginary part of plasma frequency in eV, 0.658/RTIME)
   DFIELD  = 0.0000000 0.0000000 0.0000000 field for delta impulse in time
 
 Orbital magnetization related:
   ORBITALMAG=     F  switch on orbital magnetization
   LCHIMAG   =     F  perturbation theory with respect to B field
   DQ        =  0.001000  dq finite difference perturbation B field
   LLRAUG    =     F  two centre corrections for induced B field



--------------------------------------------------------------------------------------------------------


 conjugate gradient relaxation of ions
 charge density and potential will be updated during run
 non-spin polarized calculation
 Variant of blocked Davidson
 Davidson routine will perform the subspace rotation
 perform sub-space diagonalisation
    after iterative eigenvector-optimisation
 modified Broyden-mixing scheme, WC =      100.0
 initial mixing is a Kerker type mixing with AMIX =  0.4000 and BMIX =      1.0000
 Hartree-type preconditioning will be used
 using additional bands            6
 reciprocal scheme for non local part
 use partial core corrections
 calculate Harris-corrections to forces 
   (improved forces if not selfconsistent)
 use gradient corrections 
 use of overlap-Matrix (Vanderbilt PP)
 Gauss-broadening in eV      SIGMA  =   0.10


--------------------------------------------------------------------------------------------------------


  energy-cutoff  :      600.00
  volume of cell :      398.86
      direct lattice vectors                 reciprocal lattice vectors
     3.363599539  0.000000000  0.000000000     0.297300552  0.000000000  0.000000000
     0.000000000  5.855055456  0.000000000     0.000000000  0.170792575  0.000000000
     0.000000000  0.000000000 20.252588272     0.000000000  0.000000000  0.049376405

  length of vectors
     3.363599539  5.855055456 20.252588272     0.297300552  0.170792575  0.049376405


 
 k-points in units of 2pi/SCALE and weight: K-Spacing Value to Generate K-Mesh: 0.01
   0.00000000  0.00000000  0.00000000       0.005
   0.01564740  0.00000000  0.00000000       0.010
   0.03129479  0.00000000  0.00000000       0.010
   0.04694219  0.00000000  0.00000000       0.010
   0.06258959  0.00000000  0.00000000       0.010
   0.07823699  0.00000000  0.00000000       0.010
   0.09388438  0.00000000  0.00000000       0.010
   0.10953178  0.00000000  0.00000000       0.010
   0.12517918  0.00000000  0.00000000       0.010
   0.14082658  0.00000000  0.00000000       0.010
   0.00000000  0.01552660  0.00000000       0.010
   0.01564740  0.01552660  0.00000000       0.010
   0.03129479  0.01552660  0.00000000       0.010
   0.04694219  0.01552660  0.00000000       0.010
   0.06258959  0.01552660  0.00000000       0.010
   0.07823699  0.01552660  0.00000000       0.010
   0.09388438  0.01552660  0.00000000       0.010
   0.10953178  0.01552660  0.00000000       0.010
   0.12517918  0.01552660  0.00000000       0.010
   0.14082658  0.01552660  0.00000000       0.010
  -0.14082658  0.01552660  0.00000000       0.010
  -0.12517918  0.01552660  0.00000000       0.010
  -0.10953178  0.01552660  0.00000000       0.010
  -0.09388438  0.01552660  0.00000000       0.010
  -0.07823699  0.01552660  0.00000000       0.010
  -0.06258959  0.01552660  0.00000000       0.010
  -0.04694219  0.01552660  0.00000000       0.010
  -0.03129479  0.01552660  0.00000000       0.010
  -0.01564740  0.01552660  0.00000000       0.010
   0.00000000  0.03105320  0.00000000       0.010
   0.01564740  0.03105320  0.00000000       0.010
   0.03129479  0.03105320  0.00000000       0.010
   0.04694219  0.03105320  0.00000000       0.010
   0.06258959  0.03105320  0.00000000       0.010
   0.07823699  0.03105320  0.00000000       0.010
   0.09388438  0.03105320  0.00000000       0.010
   0.10953178  0.03105320  0.00000000       0.010
   0.12517918  0.03105320  0.00000000       0.010
   0.14082658  0.03105320  0.00000000       0.010
  -0.14082658  0.03105320  0.00000000       0.010
  -0.12517918  0.03105320  0.00000000       0.010
  -0.10953178  0.03105320  0.00000000       0.010
  -0.09388438  0.03105320  0.00000000       0.010
  -0.07823699  0.03105320  0.00000000       0.010
  -0.06258959  0.03105320  0.00000000       0.010
  -0.04694219  0.03105320  0.00000000       0.010
  -0.03129479  0.03105320  0.00000000       0.010
  -0.01564740  0.03105320  0.00000000       0.010
   0.00000000  0.04657979  0.00000000       0.010
   0.01564740  0.04657979  0.00000000       0.010
   0.03129479  0.04657979  0.00000000       0.010
   0.04694219  0.04657979  0.00000000       0.010
   0.06258959  0.04657979  0.00000000       0.010
   0.07823699  0.04657979  0.00000000       0.010
   0.09388438  0.04657979  0.00000000       0.010
   0.10953178  0.04657979  0.00000000       0.010
   0.12517918  0.04657979  0.00000000       0.010
   0.14082658  0.04657979  0.00000000       0.010
  -0.14082658  0.04657979  0.00000000       0.010
  -0.12517918  0.04657979  0.00000000       0.010
  -0.10953178  0.04657979  0.00000000       0.010
  -0.09388438  0.04657979  0.00000000       0.010
  -0.07823699  0.04657979  0.00000000       0.010
  -0.06258959  0.04657979  0.00000000       0.010
  -0.04694219  0.04657979  0.00000000       0.010
  -0.03129479  0.04657979  0.00000000       0.010
  -0.01564740  0.04657979  0.00000000       0.010
   0.00000000  0.06210639  0.00000000       0.010
   0.01564740  0.06210639  0.00000000       0.010
   0.03129479  0.06210639  0.00000000       0.010
   0.04694219  0.06210639  0.00000000       0.010
   0.06258959  0.06210639  0.00000000       0.010
   0.07823699  0.06210639  0.00000000       0.010
   0.09388438  0.06210639  0.00000000       0.010
   0.10953178  0.06210639  0.00000000       0.010
   0.12517918  0.06210639  0.00000000       0.010
   0.14082658  0.06210639  0.00000000       0.010
  -0.14082658  0.06210639  0.00000000       0.010
  -0.12517918  0.06210639  0.00000000       0.010
  -0.10953178  0.06210639  0.00000000       0.010
  -0.09388438  0.06210639  0.00000000       0.010
  -0.07823699  0.06210639  0.00000000       0.010
  -0.06258959  0.06210639  0.00000000       0.010
  -0.04694219  0.06210639  0.00000000       0.010
  -0.03129479  0.06210639  0.00000000       0.010
  -0.01564740  0.06210639  0.00000000       0.010
   0.00000000  0.07763299  0.00000000       0.010
   0.01564740  0.07763299  0.00000000       0.010
   0.03129479  0.07763299  0.00000000       0.010
   0.04694219  0.07763299  0.00000000       0.010
   0.06258959  0.07763299  0.00000000       0.010
   0.07823699  0.07763299  0.00000000       0.010
   0.09388438  0.07763299  0.00000000       0.010
   0.10953178  0.07763299  0.00000000       0.010
   0.12517918  0.07763299  0.00000000       0.010
   0.14082658  0.07763299  0.00000000       0.010
  -0.14082658  0.07763299  0.00000000       0.010
  -0.12517918  0.07763299  0.00000000       0.010
  -0.10953178  0.07763299  0.00000000       0.010
  -0.09388438  0.07763299  0.00000000       0.010
  -0.07823699  0.07763299  0.00000000       0.010
  -0.06258959  0.07763299  0.00000000       0.010
  -0.04694219  0.07763299  0.00000000       0.010
  -0.03129479  0.07763299  0.00000000       0.010
  -0.01564740  0.07763299  0.00000000       0.010
 
 k-points in reciprocal lattice and weights: K-Spacing Value to Generate K-Mesh: 0.01
   0.00000000  0.00000000  0.00000000       0.005
   0.05263158  0.00000000  0.00000000       0.010
   0.10526316  0.00000000  0.00000000       0.010
   0.15789474  0.00000000  0.00000000       0.010
   0.21052632  0.00000000  0.00000000       0.010
   0.26315789  0.00000000  0.00000000       0.010
   0.31578947  0.00000000  0.00000000       0.010
   0.36842105  0.00000000  0.00000000       0.010
   0.42105263  0.00000000  0.00000000       0.010
   0.47368421  0.00000000  0.00000000       0.010
   0.00000000  0.09090909  0.00000000       0.010
   0.05263158  0.09090909  0.00000000       0.010
   0.10526316  0.09090909  0.00000000       0.010
   0.15789474  0.09090909  0.00000000       0.010
   0.21052632  0.09090909  0.00000000       0.010
   0.26315789  0.09090909  0.00000000       0.010
   0.31578947  0.09090909  0.00000000       0.010
   0.36842105  0.09090909  0.00000000       0.010
   0.42105263  0.09090909  0.00000000       0.010
   0.47368421  0.09090909  0.00000000       0.010
  -0.47368421  0.09090909  0.00000000       0.010
  -0.42105263  0.09090909  0.00000000       0.010
  -0.36842105  0.09090909  0.00000000       0.010
  -0.31578947  0.09090909  0.00000000       0.010
  -0.26315789  0.09090909  0.00000000       0.010
  -0.21052632  0.09090909  0.00000000       0.010
  -0.15789474  0.09090909  0.00000000       0.010
  -0.10526316  0.09090909  0.00000000       0.010
  -0.05263158  0.09090909  0.00000000       0.010
   0.00000000  0.18181818  0.00000000       0.010
   0.05263158  0.18181818  0.00000000       0.010
   0.10526316  0.18181818  0.00000000       0.010
   0.15789474  0.18181818  0.00000000       0.010
   0.21052632  0.18181818  0.00000000       0.010
   0.26315789  0.18181818  0.00000000       0.010
   0.31578947  0.18181818  0.00000000       0.010
   0.36842105  0.18181818  0.00000000       0.010
   0.42105263  0.18181818  0.00000000       0.010
   0.47368421  0.18181818  0.00000000       0.010
  -0.47368421  0.18181818  0.00000000       0.010
  -0.42105263  0.18181818  0.00000000       0.010
  -0.36842105  0.18181818  0.00000000       0.010
  -0.31578947  0.18181818  0.00000000       0.010
  -0.26315789  0.18181818  0.00000000       0.010
  -0.21052632  0.18181818  0.00000000       0.010
  -0.15789474  0.18181818  0.00000000       0.010
  -0.10526316  0.18181818  0.00000000       0.010
  -0.05263158  0.18181818  0.00000000       0.010
   0.00000000  0.27272727  0.00000000       0.010
   0.05263158  0.27272727  0.00000000       0.010
   0.10526316  0.27272727  0.00000000       0.010
   0.15789474  0.27272727  0.00000000       0.010
   0.21052632  0.27272727  0.00000000       0.010
   0.26315789  0.27272727  0.00000000       0.010
   0.31578947  0.27272727  0.00000000       0.010
   0.36842105  0.27272727  0.00000000       0.010
   0.42105263  0.27272727  0.00000000       0.010
   0.47368421  0.27272727  0.00000000       0.010
  -0.47368421  0.27272727  0.00000000       0.010
  -0.42105263  0.27272727  0.00000000       0.010
  -0.36842105  0.27272727  0.00000000       0.010
  -0.31578947  0.27272727  0.00000000       0.010
  -0.26315789  0.27272727  0.00000000       0.010
  -0.21052632  0.27272727  0.00000000       0.010
  -0.15789474  0.27272727  0.00000000       0.010
  -0.10526316  0.27272727  0.00000000       0.010
  -0.05263158  0.27272727  0.00000000       0.010
   0.00000000  0.36363636  0.00000000       0.010
   0.05263158  0.36363636  0.00000000       0.010
   0.10526316  0.36363636  0.00000000       0.010
   0.15789474  0.36363636  0.00000000       0.010
   0.21052632  0.36363636  0.00000000       0.010
   0.26315789  0.36363636  0.00000000       0.010
   0.31578947  0.36363636  0.00000000       0.010
   0.36842105  0.36363636  0.00000000       0.010
   0.42105263  0.36363636  0.00000000       0.010
   0.47368421  0.36363636  0.00000000       0.010
  -0.47368421  0.36363636  0.00000000       0.010
  -0.42105263  0.36363636  0.00000000       0.010
  -0.36842105  0.36363636  0.00000000       0.010
  -0.31578947  0.36363636  0.00000000       0.010
  -0.26315789  0.36363636  0.00000000       0.010
  -0.21052632  0.36363636  0.00000000       0.010
  -0.15789474  0.36363636  0.00000000       0.010
  -0.10526316  0.36363636  0.00000000       0.010
  -0.05263158  0.36363636  0.00000000       0.010
   0.00000000  0.45454545  0.00000000       0.010
   0.05263158  0.45454545  0.00000000       0.010
   0.10526316  0.45454545  0.00000000       0.010
   0.15789474  0.45454545  0.00000000       0.010
   0.21052632  0.45454545  0.00000000       0.010
   0.26315789  0.45454545  0.00000000       0.010
   0.31578947  0.45454545  0.00000000       0.010
   0.36842105  0.45454545  0.00000000       0.010
   0.42105263  0.45454545  0.00000000       0.010
   0.47368421  0.45454545  0.00000000       0.010
  -0.47368421  0.45454545  0.00000000       0.010
  -0.42105263  0.45454545  0.00000000       0.010
  -0.36842105  0.45454545  0.00000000       0.010
  -0.31578947  0.45454545  0.00000000       0.010
  -0.26315789  0.45454545  0.00000000       0.010
  -0.21052632  0.45454545  0.00000000       0.010
  -0.15789474  0.45454545  0.00000000       0.010
  -0.10526316  0.45454545  0.00000000       0.010
  -0.05263158  0.45454545  0.00000000       0.010
 
 position of ions in fractional coordinates (direct lattice) 
   0.49999997  0.16666654  0.50703967
   0.00000000  0.66666651  0.50703967
   0.49999997  0.83333325  0.57974952
   0.00000000  0.33333322  0.57974952
   0.50000000  0.83333325  0.41321075
   0.00000000  0.33333325  0.41321075
 
 position of ions in cartesian coordinates  (Angst):
   1.68179967  0.97584182 10.26886559
   0.00000000  3.90336938 10.26886559
   1.68179967  4.87921242 11.74142843
   0.00000000  1.95168451 11.74142843
   1.68179977  4.87921242  8.36858719
   0.00000000  1.95168469  8.36858719
 


--------------------------------------------------------------------------------------------------------


 k-point  1 :   0.0000 0.0000 0.0000  plane waves:   13347
 k-point  2 :   0.0526 0.0000 0.0000  plane waves:   13357
 k-point  3 :   0.1053 0.0000 0.0000  plane waves:   13339
 k-point  4 :   0.1579 0.0000 0.0000  plane waves:   13347
 k-point  5 :   0.2105 0.0000 0.0000  plane waves:   13343
 k-point  6 :   0.2632 0.0000 0.0000  plane waves:   13287
 k-point  7 :   0.3158 0.0000 0.0000  plane waves:   13294
 k-point  8 :   0.3684 0.0000 0.0000  plane waves:   13276
 k-point  9 :   0.4211 0.0000 0.0000  plane waves:   13316
 k-point 10 :   0.4737 0.0000 0.0000  plane waves:   13280
 k-point 11 :   0.0000 0.0909 0.0000  plane waves:   13349
 k-point 12 :   0.0526 0.0909 0.0000  plane waves:   13351
 k-point 13 :   0.1053 0.0909 0.0000  plane waves:   13344
 k-point 14 :   0.1579 0.0909 0.0000  plane waves:   13322
 k-point 15 :   0.2105 0.0909 0.0000  plane waves:   13313
 k-point 16 :   0.2632 0.0909 0.0000  plane waves:   13310
 k-point 17 :   0.3158 0.0909 0.0000  plane waves:   13297
 k-point 18 :   0.3684 0.0909 0.0000  plane waves:   13306
 k-point 19 :   0.4211 0.0909 0.0000  plane waves:   13291
 k-point 20 :   0.4737 0.0909 0.0000  plane waves:   13300
 k-point 21 :  -0.4737 0.0909 0.0000  plane waves:   13300
 k-point 22 :  -0.4211 0.0909 0.0000  plane waves:   13291
 k-point 23 :  -0.3684 0.0909 0.0000  plane waves:   13306
 k-point 24 :  -0.3158 0.0909 0.0000  plane waves:   13297
 k-point 25 :  -0.2632 0.0909 0.0000  plane waves:   13310
 k-point 26 :  -0.2105 0.0909 0.0000  plane waves:   13313
 k-point 27 :  -0.1579 0.0909 0.0000  plane waves:   13322
 k-point 28 :  -0.1053 0.0909 0.0000  plane waves:   13344
 k-point 29 :  -0.0526 0.0909 0.0000  plane waves:   13351
 k-point 30 :   0.0000 0.1818 0.0000  plane waves:   13335
 k-point 31 :   0.0526 0.1818 0.0000  plane waves:   13332
 k-point 32 :   0.1053 0.1818 0.0000  plane waves:   13320
 k-point 33 :   0.1579 0.1818 0.0000  plane waves:   13307
 k-point 34 :   0.2105 0.1818 0.0000  plane waves:   13302
 k-point 35 :   0.2632 0.1818 0.0000  plane waves:   13294
 k-point 36 :   0.3158 0.1818 0.0000  plane waves:   13284
 k-point 37 :   0.3684 0.1818 0.0000  plane waves:   13306
 k-point 38 :   0.4211 0.1818 0.0000  plane waves:   13302
 k-point 39 :   0.4737 0.1818 0.0000  plane waves:   13297
 k-point 40 :  -0.4737 0.1818 0.0000  plane waves:   13297
 k-point 41 :  -0.4211 0.1818 0.0000  plane waves:   13302
 k-point 42 :  -0.3684 0.1818 0.0000  plane waves:   13306
 k-point 43 :  -0.3158 0.1818 0.0000  plane waves:   13284
 k-point 44 :  -0.2632 0.1818 0.0000  plane waves:   13294
 k-point 45 :  -0.2105 0.1818 0.0000  plane waves:   13302
 k-point 46 :  -0.1579 0.1818 0.0000  plane waves:   13307
 k-point 47 :  -0.1053 0.1818 0.0000  plane waves:   13320
 k-point 48 :  -0.0526 0.1818 0.0000  plane waves:   13332
 k-point 49 :   0.0000 0.2727 0.0000  plane waves:   13299
 k-point 50 :   0.0526 0.2727 0.0000  plane waves:   13323
 k-point 51 :   0.1053 0.2727 0.0000  plane waves:   13310
 k-point 52 :   0.1579 0.2727 0.0000  plane waves:   13304
 k-point 53 :   0.2105 0.2727 0.0000  plane waves:   13303
 k-point 54 :   0.2632 0.2727 0.0000  plane waves:   13289
 k-point 55 :   0.3158 0.2727 0.0000  plane waves:   13294
 k-point 56 :   0.3684 0.2727 0.0000  plane waves:   13317
 k-point 57 :   0.4211 0.2727 0.0000  plane waves:   13328
 k-point 58 :   0.4737 0.2727 0.0000  plane waves:   13319
 k-point 59 :  -0.4737 0.2727 0.0000  plane waves:   13319
 k-point 60 :  -0.4211 0.2727 0.0000  plane waves:   13328
 k-point 61 :  -0.3684 0.2727 0.0000  plane waves:   13317
 k-point 62 :  -0.3158 0.2727 0.0000  plane waves:   13294
 k-point 63 :  -0.2632 0.2727 0.0000  plane waves:   13289
 k-point 64 :  -0.2105 0.2727 0.0000  plane waves:   13303
 k-point 65 :  -0.1579 0.2727 0.0000  plane waves:   13304
 k-point 66 :  -0.1053 0.2727 0.0000  plane waves:   13310
 k-point 67 :  -0.0526 0.2727 0.0000  plane waves:   13323
 k-point 68 :   0.0000 0.3636 0.0000  plane waves:   13308
 k-point 69 :   0.0526 0.3636 0.0000  plane waves:   13310
 k-point 70 :   0.1053 0.3636 0.0000  plane waves:   13289
 k-point 71 :   0.1579 0.3636 0.0000  plane waves:   13313
 k-point 72 :   0.2105 0.3636 0.0000  plane waves:   13298
 k-point 73 :   0.2632 0.3636 0.0000  plane waves:   13290
 k-point 74 :   0.3158 0.3636 0.0000  plane waves:   13291
 k-point 75 :   0.3684 0.3636 0.0000  plane waves:   13327
 k-point 76 :   0.4211 0.3636 0.0000  plane waves:   13318
 k-point 77 :   0.4737 0.3636 0.0000  plane waves:   13354
 k-point 78 :  -0.4737 0.3636 0.0000  plane waves:   13354
 k-point 79 :  -0.4211 0.3636 0.0000  plane waves:   13318
 k-point 80 :  -0.3684 0.3636 0.0000  plane waves:   13327
 k-point 81 :  -0.3158 0.3636 0.0000  plane waves:   13291
 k-point 82 :  -0.2632 0.3636 0.0000  plane waves:   13290
 k-point 83 :  -0.2105 0.3636 0.0000  plane waves:   13298
 k-point 84 :  -0.1579 0.3636 0.0000  plane waves:   13313
 k-point 85 :  -0.1053 0.3636 0.0000  plane waves:   13289
 k-point 86 :  -0.0526 0.3636 0.0000  plane waves:   13310
 k-point 87 :   0.0000 0.4545 0.0000  plane waves:   13322
 k-point 88 :   0.0526 0.4545 0.0000  plane waves:   13296
 k-point 89 :   0.1053 0.4545 0.0000  plane waves:   13308
 k-point 90 :   0.1579 0.4545 0.0000  plane waves:   13314
 k-point 91 :   0.2105 0.4545 0.0000  plane waves:   13302
 k-point 92 :   0.2632 0.4545 0.0000  plane waves:   13291
 k-point 93 :   0.3158 0.4545 0.0000  plane waves:   13289
 k-point 94 :   0.3684 0.4545 0.0000  plane waves:   13303
 k-point 95 :   0.4211 0.4545 0.0000  plane waves:   13323
 k-point 96 :   0.4737 0.4545 0.0000  plane waves:   13362
 k-point 97 :  -0.4737 0.4545 0.0000  plane waves:   13362
 k-point 98 :  -0.4211 0.4545 0.0000  plane waves:   13323
 k-point 99 :  -0.3684 0.4545 0.0000  plane waves:   13303
 k-point ** :  -0.3158 0.4545 0.0000  plane waves:   13289
 k-point ** :  -0.2632 0.4545 0.0000  plane waves:   13291
 k-point ** :  -0.2105 0.4545 0.0000  plane waves:   13302
 k-point ** :  -0.1579 0.4545 0.0000  plane waves:   13314
 k-point ** :  -0.1053 0.4545 0.0000  plane waves:   13308
 k-point ** :  -0.0526 0.4545 0.0000  plane waves:   13296

 maximum and minimum number of plane-waves per node :       578      532

 maximum number of plane-waves:     13362
 maximum index in each direction: 
   IXMAX=    7   IYMAX=   11   IZMAX=   40
   IXMIN=   -7   IYMIN=  -12   IZMIN=  -40


 parallel 3D FFT for wavefunctions:
    minimum data exchange during FFTs selected (reduces bandwidth)
 parallel 3D FFT for charge:
    minimum data exchange during FFTs selected (reduces bandwidth)


 total amount of memory used by VASP MPI-rank0    62837. kBytes
=======================================================================

   base      :      30000. kBytes
   nonl-proj :      25819. kBytes
   fftplans  :       1397. kBytes
   grid      :       2623. kBytes
   one-center:         15. kBytes
   wavefun   :       2983. kBytes
 
     INWAV:  cpu time    0.0001: real time    0.0001
 Broyden mixing: mesh for mixing (old mesh)
   NGX = 13   NGY = 23   NGZ = 81
  (NGX  = 56   NGY  = 96   NGZ  =324)
  gives a total of  24219 points

 initial charge density was supplied:
 charge density of overlapping atoms calculated
 number of electron      36.0000000 magnetization 
 keeping initial charge density in first step


--------------------------------------------------------------------------------------------------------


 Maximum index for augmentation-charges         1245 (set IRDMAX)


--------------------------------------------------------------------------------------------------------


 First call to EWALD:  gamma=   0.241
 Maximum number of real-space cells 5x 3x 1
 Maximum number of reciprocal cells 2x 2x 7

    FEWALD:  cpu time    0.0015: real time    0.0015


--------------------------------------- Iteration      1(   1)  ---------------------------------------


    POTLOK:  cpu time    0.0310: real time    0.0642
    SETDIJ:  cpu time    0.0054: real time    0.0055
     EDDAV:  cpu time    1.2000: real time    1.2089
       DOS:  cpu time    0.0017: real time    0.0017
    --------------------------------------------
      LOOP:  cpu time    1.2381: real time    1.2803

 eigenvalue-minimisations  :  5040
 total energy-change (2. order) : 0.2730808E+03  (-0.1303838E+04)
 number of electron      36.0000000 magnetization 
 augmentation part       36.0000000 magnetization 

 DIPCOR: dipole corrections for dipol
 direction  3 min pos     1,
 dipolmoment           0.000000      0.000000      0.000002 electrons x Angstroem
 Tr[quadrupol]      -125.428730

 energy correction for charged system         0.000000 eV
 dipol+quadrupol energy correction           -0.000000 eV
 added-field ion interaction          0.000000 eV  (added to PSCEN)


 Free energy of the ion-electron system (eV)
  ---------------------------------------------------
  alpha Z        PSCENC =        25.97440424
  Ewald energy   TEWEN  =      4154.38821288
  -Hartree energ DENC   =     -5475.27837930
  -exchange      EXHF   =         0.00000000
  -V(xc)+E(xc)   XCENC  =      -153.15501338
  PAW double counting   =      1381.62273368    -1155.94054365
  entropy T*S    EENTRO =        -0.02011591
  eigenvalues    EBANDS =        60.26780304
  atomic energy  EATOM  =      1435.22174307
  Solvation  Ediel_sol  =         0.00000000
  ---------------------------------------------------
  free energy    TOTEN  =       273.08084466 eV

  energy without entropy =      273.10096058  energy(sigma->0) =      273.09090262


--------------------------------------------------------------------------------------------------------




--------------------------------------- Iteration      1(   2)  ---------------------------------------


     EDDAV:  cpu time    1.3993: real time    1.3999
       DOS:  cpu time    0.0015: real time    0.0015
    --------------------------------------------
      LOOP:  cpu time    1.4007: real time    1.4014

 eigenvalue-minimisations  :  7808
 total energy-change (2. order) :-0.2796324E+03  (-0.2716764E+03)
 number of electron      36.0000000 magnetization 
 augmentation part       36.0000000 magnetization 

 DIPCOR: dipole corrections for dipol
 direction  3 min pos     1,
 dipolmoment           0.000000      0.000000      0.000002 electrons x Angstroem
 Tr[quadrupol]      -125.428730

 energy correction for charged system         0.000000 eV
 dipol+quadrupol energy correction           -0.000000 eV
 added-field ion interaction          0.000000 eV  (added to PSCEN)


 Free energy of the ion-electron system (eV)
  ---------------------------------------------------
  alpha Z        PSCENC =        25.97440424
  Ewald energy   TEWEN  =      4154.38821288
  -Hartree energ DENC   =     -5475.27837930
  -exchange      EXHF   =         0.00000000
  -V(xc)+E(xc)   XCENC  =      -153.15501338
  PAW double counting   =      1381.62273368    -1155.94054365
  entropy T*S    EENTRO =        -0.00072998
  eigenvalues    EBANDS =      -219.38396347
  atomic energy  EATOM  =      1435.22174307
  Solvation  Ediel_sol  =         0.00000000
  ---------------------------------------------------
  free energy    TOTEN  =        -6.55153592 eV

  energy without entropy =       -6.55080593  energy(sigma->0) =       -6.55117092


--------------------------------------------------------------------------------------------------------




--------------------------------------- Iteration      1(   3)  ---------------------------------------


     EDDAV:  cpu time    1.2906: real time    1.2910
       DOS:  cpu time    0.0011: real time    0.0011
    --------------------------------------------
      LOOP:  cpu time    1.2917: real time    1.2921

 eigenvalue-minimisations  :  6672
 total energy-change (2. order) :-0.3419979E+02  (-0.3390502E+02)
 number of electron      36.0000000 magnetization 
 augmentation part       36.0000000 magnetization 

 DIPCOR: dipole corrections for dipol
 direction  3 min pos     1,
 dipolmoment           0.000000      0.000000      0.000002 electrons x Angstroem
 Tr[quadrupol]      -125.428730

 energy correction for charged system         0.000000 eV
 dipol+quadrupol energy correction           -0.000000 eV
 added-field ion interaction          0.000000 eV  (added to PSCEN)


 Free energy of the ion-electron system (eV)
  ---------------------------------------------------
  alpha Z        PSCENC =        25.97440424
  Ewald energy   TEWEN  =      4154.38821288
  -Hartree energ DENC   =     -5475.27837930
  -exchange      EXHF   =         0.00000000
  -V(xc)+E(xc)   XCENC  =      -153.15501338
  PAW double counting   =      1381.62273368    -1155.94054365
  entropy T*S    EENTRO =        -0.00000000
  eigenvalues    EBANDS =      -253.58448017
  atomic energy  EATOM  =      1435.22174307
  Solvation  Ediel_sol  =         0.00000000
  ---------------------------------------------------
  free energy    TOTEN  =       -40.75132264 eV

  energy without entropy =      -40.75132264  energy(sigma->0) =      -40.75132264


--------------------------------------------------------------------------------------------------------




--------------------------------------- Iteration      1(   4)  ---------------------------------------


     EDDAV:  cpu time    1.3382: real time    1.3386
       DOS:  cpu time    0.0011: real time    0.0011
    --------------------------------------------
      LOOP:  cpu time    1.3394: real time    1.3397

 eigenvalue-minimisations  :  7320
 total energy-change (2. order) :-0.1149177E+01  (-0.1143811E+01)
 number of electron      36.0000000 magnetization 
 augmentation part       36.0000000 magnetization 

 DIPCOR: dipole corrections for dipol
 direction  3 min pos     1,
 dipolmoment           0.000000      0.000000      0.000002 electrons x Angstroem
 Tr[quadrupol]      -125.428730

 energy correction for charged system         0.000000 eV
 dipol+quadrupol energy correction           -0.000000 eV
 added-field ion interaction          0.000000 eV  (added to PSCEN)


 Free energy of the ion-electron system (eV)
  ---------------------------------------------------
  alpha Z        PSCENC =        25.97440424
  Ewald energy   TEWEN  =      4154.38821288
  -Hartree energ DENC   =     -5475.27837930
  -exchange      EXHF   =         0.00000000
  -V(xc)+E(xc)   XCENC  =      -153.15501338
  PAW double counting   =      1381.62273368    -1155.94054365
  entropy T*S    EENTRO =        -0.00000000
  eigenvalues    EBANDS =      -254.73365680
  atomic energy  EATOM  =      1435.22174307
  Solvation  Ediel_sol  =         0.00000000
  ---------------------------------------------------
  free energy    TOTEN  =       -41.90049926 eV

  energy without entropy =      -41.90049926  energy(sigma->0) =      -41.90049926


--------------------------------------------------------------------------------------------------------




--------------------------------------- Iteration      1(   5)  ---------------------------------------


     EDDAV:  cpu time    1.3529: real time    1.3536
       DOS:  cpu time    0.0011: real time    0.0011
    CHARGE:  cpu time    0.0435: real time    0.0435
    MIXING:  cpu time    0.0006: real time    0.0006
    --------------------------------------------
      LOOP:  cpu time    1.3981: real time    1.3988

 eigenvalue-minimisations  :  7512
 total energy-change (2. order) :-0.3687588E-01  (-0.3685651E-01)
 number of electron      36.0000000 magnetization 
 augmentation part       -2.3475355 magnetization 

 DIPCOR: dipole corrections for dipol
 direction  3 min pos     1,
 dipolmoment           0.000000      0.000000      0.000002 electrons x Angstroem
 Tr[quadrupol]      -125.428730

 energy correction for charged system         0.000000 eV
 dipol+quadrupol energy correction           -0.000000 eV
 added-field ion interaction          0.000000 eV  (added to PSCEN)


 Broyden mixing:
  rms(total) = 0.26690E+01    rms(broyden)= 0.26690E+01
  rms(prec ) = 0.27106E+01
  weight for this iteration     100.00

 Free energy of the ion-electron system (eV)
  ---------------------------------------------------
  alpha Z        PSCENC =        25.97440424
  Ewald energy   TEWEN  =      4154.38821288
  -Hartree energ DENC   =     -5475.27837930
  -exchange      EXHF   =         0.00000000
  -V(xc)+E(xc)   XCENC  =      -153.15501338
  PAW double counting   =      1381.62273368    -1155.94054365
  entropy T*S    EENTRO =        -0.00000000
  eigenvalues    EBANDS =      -254.77053268
  atomic energy  EATOM  =      1435.22174307
  Solvation  Ediel_sol  =         0.00000000
  ---------------------------------------------------
  free energy    TOTEN  =       -41.93737515 eV

  energy without entropy =      -41.93737515  energy(sigma->0) =      -41.93737515


--------------------------------------------------------------------------------------------------------




--------------------------------------- Iteration      1(   6)  ---------------------------------------


    POTLOK:  cpu time    0.0124: real time    0.0124
    SETDIJ:  cpu time    0.0020: real time    0.0020
     EDDAV:  cpu time    1.3151: real time    1.3158
       DOS:  cpu time    0.0015: real time    0.0015
    CHARGE:  cpu time    0.0430: real time    0.0430
    MIXING:  cpu time    0.0003: real time    0.0003
    --------------------------------------------
      LOOP:  cpu time    1.3743: real time    1.3750

 eigenvalue-minimisations  :  7168
 total energy-change (2. order) : 0.1945809E+01  (-0.1229279E+01)
 number of electron      36.0000000 magnetization 
 augmentation part       -1.4006522 magnetization 

 DIPCOR: dipole corrections for dipol
 direction  3 min pos     1,
 dipolmoment           0.000000      0.000000      0.187086 electrons x Angstroem
 Tr[quadrupol]      -125.456551

 energy correction for charged system         0.000000 eV
 dipol+quadrupol energy correction           -0.007940 eV
 added-field ion interaction          0.000001 eV  (added to PSCEN)


 Broyden mixing:
  rms(total) = 0.11615E+01    rms(broyden)= 0.11615E+01
  rms(prec ) = 0.11963E+01
  weight for this iteration     100.00

 eigenvalues of (default mixing * dielectric matrix)
  average eigenvalue GAMMA=   1.1980
  1.1980

 Free energy of the ion-electron system (eV)
  ---------------------------------------------------
  alpha Z        PSCENC =        25.96646577
  Ewald energy   TEWEN  =      4154.38821288
  -Hartree energ DENC   =     -5474.43926113
  -exchange      EXHF   =         0.00000000
  -V(xc)+E(xc)   XCENC  =      -151.88285334
  PAW double counting   =      1929.37256213    -1705.17743054
  entropy T*S    EENTRO =        -0.00000063
  eigenvalues    EBANDS =      -253.44100426
  atomic energy  EATOM  =      1435.22174307
  Solvation  Ediel_sol  =         0.00000000
  ---------------------------------------------------
  free energy    TOTEN  =       -39.99156604 eV

  energy without entropy =      -39.99156542  energy(sigma->0) =      -39.99156573


--------------------------------------------------------------------------------------------------------




--------------------------------------- Iteration      1(   7)  ---------------------------------------


    POTLOK:  cpu time    0.0121: real time    0.0121
    SETDIJ:  cpu time    0.0020: real time    0.0020
     EDDAV:  cpu time    1.3090: real time    1.3093
       DOS:  cpu time    0.0012: real time    0.0012
    CHARGE:  cpu time    0.0431: real time    0.0431
    MIXING:  cpu time    0.0003: real time    0.0003
    --------------------------------------------
      LOOP:  cpu time    1.3678: real time    1.3681

 eigenvalue-minimisations  :  6888
 total energy-change (2. order) : 0.1960887E+00  (-0.7041982E+00)
 number of electron      36.0000000 magnetization 
 augmentation part       -2.0230623 magnetization 

 DIPCOR: dipole corrections for dipol
 direction  3 min pos     1,
 dipolmoment           0.000000      0.000000      0.187657 electrons x Angstroem
 Tr[quadrupol]      -126.226549

 energy correction for charged system         0.000000 eV
 dipol+quadrupol energy correction           -0.007988 eV
 added-field ion interaction          0.000001 eV  (added to PSCEN)


 Broyden mixing:
  rms(total) = 0.72619E+00    rms(broyden)= 0.72619E+00
  rms(prec ) = 0.76039E+00
  weight for this iteration     100.00

 eigenvalues of (default mixing * dielectric matrix)
  average eigenvalue GAMMA=   1.1969
  1.7851  0.6088

 Free energy of the ion-electron system (eV)
  ---------------------------------------------------
  alpha Z        PSCENC =        25.96641729
  Ewald energy   TEWEN  =      4154.38821288
  -Hartree energ DENC   =     -5489.69308048
  -exchange      EXHF   =         0.00000000
  -V(xc)+E(xc)   XCENC  =      -152.07315911
  PAW double counting   =      2457.48276316    -2233.86963642
  entropy T*S    EENTRO =        -0.00000000
  eigenvalues    EBANDS =      -237.21873771
  atomic energy  EATOM  =      1435.22174307
  Solvation  Ediel_sol  =         0.00000000
  ---------------------------------------------------
  free energy    TOTEN  =       -39.79547733 eV

  energy without entropy =      -39.79547733  energy(sigma->0) =      -39.79547733


--------------------------------------------------------------------------------------------------------




--------------------------------------- Iteration      1(   8)  ---------------------------------------


    POTLOK:  cpu time    0.0121: real time    0.0121
    SETDIJ:  cpu time    0.0020: real time    0.0020
     EDDAV:  cpu time    1.2904: real time    1.2908
       DOS:  cpu time    0.0010: real time    0.0010
    CHARGE:  cpu time    0.0430: real time    0.0430
    MIXING:  cpu time    0.0004: real time    0.0004
    --------------------------------------------
      LOOP:  cpu time    1.3488: real time    1.3492

 eigenvalue-minimisations  :  6912
 total energy-change (2. order) : 0.3553813E+00  (-0.1563495E+00)
 number of electron      36.0000000 magnetization 
 augmentation part       -1.7218276 magnetization 

 DIPCOR: dipole corrections for dipol
 direction  3 min pos     1,
 dipolmoment           0.000000      0.000000      0.137106 electrons x Angstroem
 Tr[quadrupol]      -126.191428

 energy correction for charged system         0.000000 eV
 dipol+quadrupol energy correction           -0.004264 eV
 added-field ion interaction          0.000001 eV  (added to PSCEN)


 Broyden mixing:
  rms(total) = 0.26642E+00    rms(broyden)= 0.26642E+00
  rms(prec ) = 0.27221E+00
  weight for this iteration     100.00

 eigenvalues of (default mixing * dielectric matrix)
  average eigenvalue GAMMA=   1.0992
  2.0518  0.6561  0.5896

 Free energy of the ion-electron system (eV)
  ---------------------------------------------------
  alpha Z        PSCENC =        25.97014096
  Ewald energy   TEWEN  =      4154.38821288
  -Hartree energ DENC   =     -5487.38507260
  -exchange      EXHF   =         0.00000000
  -V(xc)+E(xc)   XCENC  =      -151.59953079
  PAW double counting   =      2803.92047874    -2580.85859506
  entropy T*S    EENTRO =        -0.00000000
  eigenvalues    EBANDS =      -239.09747320
  atomic energy  EATOM  =      1435.22174307
  Solvation  Ediel_sol  =         0.00000000
  ---------------------------------------------------
  free energy    TOTEN  =       -39.44009601 eV

  energy without entropy =      -39.44009601  energy(sigma->0) =      -39.44009601


--------------------------------------------------------------------------------------------------------




--------------------------------------- Iteration      1(   9)  ---------------------------------------


    POTLOK:  cpu time    0.0120: real time    0.0120
    SETDIJ:  cpu time    0.0020: real time    0.0020
     EDDAV:  cpu time    1.2663: real time    1.2667
       DOS:  cpu time    0.0011: real time    0.0011
    CHARGE:  cpu time    0.0426: real time    0.0426
    MIXING:  cpu time    0.0004: real time    0.0004
    --------------------------------------------
      LOOP:  cpu time    1.3244: real time    1.3248

 eigenvalue-minimisations  :  6592
 total energy-change (2. order) : 0.1522623E-01  (-0.1078650E-01)
 number of electron      36.0000000 magnetization 
 augmentation part       -1.7115819 magnetization 

 DIPCOR: dipole corrections for dipol
 direction  3 min pos     1,
 dipolmoment           0.000000      0.000000      0.164969 electrons x Angstroem
 Tr[quadrupol]      -126.300959

 energy correction for charged system         0.000000 eV
 dipol+quadrupol energy correction           -0.006173 eV
 added-field ion interaction          0.000001 eV  (added to PSCEN)


 Broyden mixing:
  rms(total) = 0.97622E-01    rms(broyden)= 0.97622E-01
  rms(prec ) = 0.10018E+00
  weight for this iteration     100.00

 eigenvalues of (default mixing * dielectric matrix)
  average eigenvalue GAMMA=   1.1490
  2.0090  0.9924  0.9924  0.6020

 Free energy of the ion-electron system (eV)
  ---------------------------------------------------
  alpha Z        PSCENC =        25.96823192
  Ewald energy   TEWEN  =      4154.38821288
  -Hartree energ DENC   =     -5489.70114010
  -exchange      EXHF   =         0.00000000
  -V(xc)+E(xc)   XCENC  =      -151.48613607
  PAW double counting   =      2932.67267456    -2709.78983703
  entropy T*S    EENTRO =        -0.00000000
  eigenvalues    EBANDS =      -236.69861900
  atomic energy  EATOM  =      1435.22174307
  Solvation  Ediel_sol  =         0.00000000
  ---------------------------------------------------
  free energy    TOTEN  =       -39.42486978 eV

  energy without entropy =      -39.42486978  energy(sigma->0) =      -39.42486978


--------------------------------------------------------------------------------------------------------




--------------------------------------- Iteration      1(  10)  ---------------------------------------


    POTLOK:  cpu time    0.0124: real time    0.0124
    SETDIJ:  cpu time    0.0020: real time    0.0020
     EDDAV:  cpu time    1.3605: real time    1.3612
       DOS:  cpu time    0.0011: real time    0.0011
    CHARGE:  cpu time    0.0431: real time    0.0431
    MIXING:  cpu time    0.0004: real time    0.0004
    --------------------------------------------
      LOOP:  cpu time    1.4196: real time    1.4203

 eigenvalue-minimisations  :  7424
 total energy-change (2. order) : 0.2502120E-02  (-0.2178634E-02)
 number of electron      36.0000000 magnetization 
 augmentation part       -1.7317083 magnetization 

 DIPCOR: dipole corrections for dipol
 direction  3 min pos     1,
 dipolmoment           0.000000      0.000000      0.168376 electrons x Angstroem
 Tr[quadrupol]      -126.380033

 energy correction for charged system         0.000000 eV
 dipol+quadrupol energy correction           -0.006431 eV
 added-field ion interaction          0.000001 eV  (added to PSCEN)


 Broyden mixing:
  rms(total) = 0.83264E-01    rms(broyden)= 0.83264E-01
  rms(prec ) = 0.84352E-01
  weight for this iteration     100.00

 eigenvalues of (default mixing * dielectric matrix)
  average eigenvalue GAMMA=   1.3215
  2.1672  2.1672  1.0354  0.6190  0.6190

 Free energy of the ion-electron system (eV)
  ---------------------------------------------------
  alpha Z        PSCENC =        25.96797432
  Ewald energy   TEWEN  =      4154.38821288
  -Hartree energ DENC   =     -5491.56202503
  -exchange      EXHF   =         0.00000000
  -V(xc)+E(xc)   XCENC  =      -151.44523866
  PAW double counting   =      2951.55068206    -2728.72516130
  entropy T*S    EENTRO =        -0.00000000
  eigenvalues    EBANDS =      -234.81855500
  atomic energy  EATOM  =      1435.22174307
  Solvation  Ediel_sol  =         0.00000000
  ---------------------------------------------------
  free energy    TOTEN  =       -39.42236766 eV

  energy without entropy =      -39.42236766  energy(sigma->0) =      -39.42236766


--------------------------------------------------------------------------------------------------------




--------------------------------------- Iteration      1(  11)  ---------------------------------------


    POTLOK:  cpu time    0.0127: real time    0.0127
    SETDIJ:  cpu time    0.0020: real time    0.0020
     EDDAV:  cpu time    1.3540: real time    1.3543
       DOS:  cpu time    0.0011: real time    0.0011
    CHARGE:  cpu time    0.0428: real time    0.0428
    MIXING:  cpu time    0.0004: real time    0.0004
    --------------------------------------------
      LOOP:  cpu time    1.4130: real time    1.4134

 eigenvalue-minimisations  :  7416
 total energy-change (2. order) : 0.1351980E-02  (-0.4100032E-03)
 number of electron      36.0000000 magnetization 
 augmentation part       -1.7252252 magnetization 

 DIPCOR: dipole corrections for dipol
 direction  3 min pos     1,
 dipolmoment           0.000000      0.000000      0.160571 electrons x Angstroem
 Tr[quadrupol]      -126.451442

 energy correction for charged system         0.000000 eV
 dipol+quadrupol energy correction           -0.005849 eV
 added-field ion interaction          0.000001 eV  (added to PSCEN)


 Broyden mixing:
  rms(total) = 0.48059E-01    rms(broyden)= 0.48059E-01
  rms(prec ) = 0.49676E-01
  weight for this iteration     100.00

 eigenvalues of (default mixing * dielectric matrix)
  average eigenvalue GAMMA=   1.3036
  2.3661  2.3661  1.0396  0.6077  0.7210  0.7210

 Free energy of the ion-electron system (eV)
  ---------------------------------------------------
  alpha Z        PSCENC =        25.96855663
  Ewald energy   TEWEN  =      4154.38821288
  -Hartree energ DENC   =     -5493.06639605
  -exchange      EXHF   =         0.00000000
  -V(xc)+E(xc)   XCENC  =      -151.40402386
  PAW double counting   =      2968.52008690    -2745.73980088
  entropy T*S    EENTRO =        -0.00000000
  eigenvalues    EBANDS =      -233.30939437
  atomic energy  EATOM  =      1435.22174307
  Solvation  Ediel_sol  =         0.00000000
  ---------------------------------------------------
  free energy    TOTEN  =       -39.42101568 eV

  energy without entropy =      -39.42101568  energy(sigma->0) =      -39.42101568


--------------------------------------------------------------------------------------------------------




--------------------------------------- Iteration      1(  12)  ---------------------------------------


    POTLOK:  cpu time    0.0122: real time    0.0122
    SETDIJ:  cpu time    0.0020: real time    0.0020
     EDDAV:  cpu time    1.3368: real time    1.3375
       DOS:  cpu time    0.0011: real time    0.0011
    CHARGE:  cpu time    0.0427: real time    0.0427
    MIXING:  cpu time    0.0005: real time    0.0005
    --------------------------------------------
      LOOP:  cpu time    1.3953: real time    1.3959

 eigenvalue-minimisations  :  7216
 total energy-change (2. order) : 0.6823089E-03  (-0.5735104E-03)
 number of electron      36.0000000 magnetization 
 augmentation part       -1.7282229 magnetization 

 DIPCOR: dipole corrections for dipol
 direction  3 min pos     1,
 dipolmoment           0.000000      0.000000      0.164889 electrons x Angstroem
 Tr[quadrupol]      -126.516273

 energy correction for charged system         0.000000 eV
 dipol+quadrupol energy correction           -0.006167 eV
 added-field ion interaction          0.000001 eV  (added to PSCEN)


 Broyden mixing:
  rms(total) = 0.17885E-01    rms(broyden)= 0.17885E-01
  rms(prec ) = 0.20715E-01
  weight for this iteration     100.00

 eigenvalues of (default mixing * dielectric matrix)
  average eigenvalue GAMMA=   1.1977
  2.3417  2.3417  1.0620  0.8038  0.8038  0.5960  0.4349

 Free energy of the ion-electron system (eV)
  ---------------------------------------------------
  alpha Z        PSCENC =        25.96823790
  Ewald energy   TEWEN  =      4154.38821288
  -Hartree energ DENC   =     -5494.50432477
  -exchange      EXHF   =         0.00000000
  -V(xc)+E(xc)   XCENC  =      -151.38076886
  PAW double counting   =      2968.46439194    -2745.69786369
  entropy T*S    EENTRO =        -0.00000000
  eigenvalues    EBANDS =      -231.87996185
  atomic energy  EATOM  =      1435.22174307
  Solvation  Ediel_sol  =         0.00000000
  ---------------------------------------------------
  free energy    TOTEN  =       -39.42033337 eV

  energy without entropy =      -39.42033337  energy(sigma->0) =      -39.42033337


--------------------------------------------------------------------------------------------------------




--------------------------------------- Iteration      1(  13)  ---------------------------------------


    POTLOK:  cpu time    0.0121: real time    0.0121
    SETDIJ:  cpu time    0.0020: real time    0.0020
     EDDAV:  cpu time    1.3492: real time    1.3496
       DOS:  cpu time    0.0011: real time    0.0011
    CHARGE:  cpu time    0.0428: real time    0.0428
    MIXING:  cpu time    0.0005: real time    0.0005
    --------------------------------------------
      LOOP:  cpu time    1.4076: real time    1.4080

 eigenvalue-minimisations  :  7400
 total energy-change (2. order) : 0.3331400E-03  (-0.3097731E-03)
 number of electron      36.0000000 magnetization 
 augmentation part       -1.7256586 magnetization 

 DIPCOR: dipole corrections for dipol
 direction  3 min pos     1,
 dipolmoment           0.000000      0.000000      0.165171 electrons x Angstroem
 Tr[quadrupol]      -126.530726

 energy correction for charged system         0.000000 eV
 dipol+quadrupol energy correction           -0.006189 eV
 added-field ion interaction          0.000001 eV  (added to PSCEN)


 Broyden mixing:
  rms(total) = 0.11989E-01    rms(broyden)= 0.11989E-01
  rms(prec ) = 0.13667E-01
  weight for this iteration     100.00

 eigenvalues of (default mixing * dielectric matrix)
  average eigenvalue GAMMA=   1.2135
  2.3577  2.3577  1.4919  1.1151  0.7305  0.6510  0.6510  0.3527

 Free energy of the ion-electron system (eV)
  ---------------------------------------------------
  alpha Z        PSCENC =        25.96821676
  Ewald energy   TEWEN  =      4154.38821288
  -Hartree energ DENC   =     -5494.79755236
  -exchange      EXHF   =         0.00000000
  -V(xc)+E(xc)   XCENC  =      -151.37460489
  PAW double counting   =      2968.27653628    -2745.50975744
  entropy T*S    EENTRO =        -0.00000000
  eigenvalues    EBANDS =      -231.59279454
  atomic energy  EATOM  =      1435.22174307
  Solvation  Ediel_sol  =         0.00000000
  ---------------------------------------------------
  free energy    TOTEN  =       -39.42000023 eV

  energy without entropy =      -39.42000023  energy(sigma->0) =      -39.42000023


--------------------------------------------------------------------------------------------------------




--------------------------------------- Iteration      1(  14)  ---------------------------------------


    POTLOK:  cpu time    0.0119: real time    0.0119
    SETDIJ:  cpu time    0.0019: real time    0.0019
     EDDAV:  cpu time    1.2956: real time    1.2961
       DOS:  cpu time    0.0011: real time    0.0011
    CHARGE:  cpu time    0.0428: real time    0.0428
[...]
     12      -4.5086      2.00000
     13      -3.4796      2.00000
     14      -3.4644      2.00000
     15      -2.7141      2.00000
     16      -2.3869      2.00000
     17      -2.1757      2.00000
     18      -1.9893      2.00000
     19       0.0271      0.00000
     20       0.0745      0.00000
     21       0.1286      0.00000
     22       0.2410      0.00000
     23       1.6354      0.00000
     24       1.6560      0.00000

 k-point    96 :       0.4737    0.4545    0.0000
  band No.  band energies     occupation 
      1     -13.7426      2.00000
      2     -13.7286      2.00000
      3     -12.2852      2.00000
      4     -12.2445      2.00000
      5      -7.4430      2.00000
      6      -7.4082      2.00000
      7      -6.2680      2.00000
      8      -6.2533      2.00000
      9      -5.2582      2.00000
     10      -5.2572      2.00000
     11      -4.5562      2.00000
     12      -4.5399      2.00000
     13      -3.4807      2.00000
     14      -3.4774      2.00000
     15      -2.4570      2.00000
     16      -2.2826      2.00000
     17      -2.1600      2.00000
     18      -2.0334      2.00000
     19       0.0400      0.00000
     20       0.0541      0.00000
     21       0.2126      0.00000
     22       0.2579      0.00000
     23       1.6220      0.00000
     24       1.6295      0.00000

 k-point    97 :      -0.4737    0.4545    0.0000
  band No.  band energies     occupation 
      1     -13.7426      2.00000
      2     -13.7286      2.00000
      3     -12.2852      2.00000
      4     -12.2445      2.00000
      5      -7.4430      2.00000
      6      -7.4082      2.00000
      7      -6.2680      2.00000
      8      -6.2533      2.00000
      9      -5.2582      2.00000
     10      -5.2572      2.00000
     11      -4.5562      2.00000
     12      -4.5399      2.00000
     13      -3.4807      2.00000
     14      -3.4774      2.00000
     15      -2.4570      2.00000
     16      -2.2826      2.00000
     17      -2.1600      2.00000
     18      -2.0334      2.00000
     19       0.0400      0.00000
     20       0.0541      0.00000
     21       0.2126      0.00000
     22       0.2579      0.00000
     23       1.6220      0.00000
     24       1.6295      0.00000

 k-point    98 :      -0.4211    0.4545    0.0000
  band No.  band energies     occupation 
      1     -13.7905      2.00000
      2     -13.7486      2.00000
      3     -12.4236      2.00000
      4     -12.3100      2.00000
      5      -7.2909      2.00000
      6      -7.1973      2.00000
      7      -6.2203      2.00000
      8      -6.1743      2.00000
      9      -5.2524      2.00000
     10      -5.2511      2.00000
     11      -4.5625      2.00000
     12      -4.5086      2.00000
     13      -3.4796      2.00000
     14      -3.4644      2.00000
     15      -2.7141      2.00000
     16      -2.3869      2.00000
     17      -2.1757      2.00000
     18      -1.9893      2.00000
     19       0.0271      0.00000
     20       0.0745      0.00000
     21       0.1286      0.00000
     22       0.2410      0.00000
     23       1.6354      0.00000
     24       1.6560      0.00000

 k-point    99 :      -0.3684    0.4545    0.0000
  band No.  band energies     occupation 
      1     -13.8688      2.00000
      2     -13.7994      2.00000
      3     -12.6241      2.00000
      4     -12.4572      2.00000
      5      -6.9957      2.00000
      6      -6.8715      2.00000
      7      -6.1063      2.00000
      8      -6.0221      2.00000
      9      -5.2528      2.00000
     10      -5.2397      2.00000
     11      -4.5804      2.00000
     12      -4.4817      2.00000
     13      -3.4491      2.00000
     14      -3.4170      2.00000
     15      -3.0020      2.00000
     16      -2.6339      2.00000
     17      -2.1526      2.00000
     18      -2.0107      2.00000
     19      -0.0188      0.00000
     20      -0.0079      0.00000
     21       0.1437      0.00000
     22       0.2045      0.00000
     23       1.5377      0.00000
     24       1.5738      0.00000

 k-point   100 :      -0.3158    0.4545    0.0000
  band No.  band energies     occupation 
      1     -13.9712      2.00000
      2     -13.8749      2.00000
      3     -12.8464      2.00000
      4     -12.6466      2.00000
      5      -6.6479      2.00000
      6      -6.5303      2.00000
      7      -5.9141      2.00000
      8      -5.7847      2.00000
      9      -5.2567      2.00000
     10      -5.2369      2.00000
     11      -4.6135      2.00000
     12      -4.4785      2.00000
     13      -3.3659      2.00000
     14      -3.3616      2.00000
     15      -3.2203      2.00000
     16      -2.8775      2.00000
     17      -2.1404      2.00000
     18      -2.0522      2.00000
     19      -0.1338      0.00000
     20      -0.1333      0.00000
     21       0.2102      0.00000
     22       0.2132      0.00000
     23       1.3274      0.00000
     24       1.3943      0.00000

 k-point   101 :      -0.2632    0.4545    0.0000
  band No.  band energies     occupation 
      1     -14.0886      2.00000
      2     -13.9664      2.00000
      3     -13.0590      2.00000
      4     -12.8422      2.00000
      5      -6.3590      2.00000
      6      -6.2720      2.00000
      7      -5.6504      2.00000
      8      -5.5485      2.00000
      9      -5.2509      2.00000
     10      -5.1718      2.00000
     11      -4.6239      2.00000
     12      -4.4847      2.00000
     13      -3.4953      2.00000
     14      -3.2344      2.00000
     15      -3.1546      2.00000
     16      -3.0725      2.00000
     17      -2.0970      2.00000
     18      -2.0690      2.00000
     19      -0.2611      0.00000
     20      -0.2351      0.00000
     21       0.2438      0.00000
     22       0.2779      0.00000
     23       1.1242      0.00000
     24       1.1639      0.00000

 k-point   102 :      -0.2105    0.4545    0.0000
  band No.  band energies     occupation 
      1     -14.2095      2.00000
      2     -14.0634      2.00000
      3     -13.2428      2.00000
      4     -13.0196      2.00000
      5      -6.1882      2.00000
      6      -6.1410      2.00000
      7      -5.4860      2.00000
      8      -5.4770      2.00000
      9      -5.1791      2.00000
     10      -4.8685      2.00000
     11      -4.5871      2.00000
     12      -4.4682      2.00000
     13      -3.5247      2.00000
     14      -3.2136      2.00000
     15      -3.0864      2.00000
     16      -3.0745      2.00000
     17      -2.0418      2.00000
     18      -2.0125      2.00000
     19      -0.3379      0.00000
     20      -0.2755      0.00000
     21       0.2746      0.00000
     22       0.3449      0.00000
     23       0.9604      0.00000
     24       0.9773      0.00000

 k-point   103 :      -0.1579    0.4545    0.0000
  band No.  band energies     occupation 
      1     -14.3210      2.00000
      2     -14.1547      2.00000
      3     -13.3884      2.00000
      4     -13.1646      2.00000
      5      -6.1384      2.00000
      6      -6.1326      2.00000
      7      -5.4851      2.00000
      8      -5.4420      2.00000
      9      -4.9829      2.00000
     10      -4.5795      2.00000
     11      -4.5277      2.00000
     12      -4.4081      2.00000
     13      -3.3619      2.00000
     14      -3.2315      2.00000
     15      -3.0708      2.00000
     16      -2.9932      2.00000
     17      -2.0064      2.00000
     18      -1.9307      2.00000
     19      -0.3286      0.00000
     20      -0.2326      0.00000
     21       0.3139      0.00000
     22       0.4305      0.00000
     23       0.8440      0.00000
     24       0.9290      0.00000

 k-point   104 :      -0.1053    0.4545    0.0000
  band No.  band energies     occupation 
      1     -14.4107      2.00000
      2     -14.2291      2.00000
      3     -13.4927      2.00000
      4     -13.2705      2.00000
      5      -6.2021      2.00000
      6      -6.1558      2.00000
      7      -5.5008      2.00000
      8      -5.3849      2.00000
      9      -4.8690      2.00000
     10      -4.4398      2.00000
     11      -4.4149      2.00000
     12      -4.2876      2.00000
     13      -3.2024      2.00000
     14      -3.1862      2.00000
     15      -3.0356      2.00000
     16      -2.8949      2.00000
     17      -2.0301      2.00000
     18      -1.9131      2.00000
     19      -0.2540      0.00000
     20      -0.1402      0.00000
     21       0.3848      0.00000
     22       0.5534      0.00000
     23       0.8540      0.00000
     24       0.9952      0.00000

 k-point   105 :      -0.0526    0.4545    0.0000
  band No.  band energies     occupation 
      1     -14.4686      2.00000
      2     -14.2776      2.00000
      3     -13.5550      2.00000
      4     -13.3346      2.00000
      5      -6.2629      2.00000
      6      -6.1979      2.00000
      7      -5.5042      2.00000
      8      -5.3459      2.00000
      9      -4.8463      2.00000
     10      -4.3990      2.00000
     11      -4.2559      2.00000
     12      -4.1625      2.00000
     13      -3.2805      2.00000
     14      -3.2055      2.00000
     15      -2.7730      2.00000
     16      -2.7676      2.00000
     17      -2.1296      2.00000
     18      -1.9581      2.00000
     19      -0.1862      0.00000
     20      -0.0712      0.00000
     21       0.4802      0.00000
     22       0.6801      0.00000
     23       0.9510      0.00000
     24       1.1169      0.00000


--------------------------------------------------------------------------------------------------------


 soft charge-density along one line, spin component           1
         0         1         2         3         4         5         6         7         8         9
 total charge-density along one line
 
 pseudopotential strength for first ion, spin component:           1
 -9.511   0.000   0.000  -0.002  -0.000  -9.702   0.000   0.000
  0.000  -9.519   0.000  -0.000  -0.002   0.000  -9.710   0.000
  0.000   0.000  -9.507   0.000  -0.001   0.000   0.000  -9.698
 -0.002  -0.000   0.000  -9.518   0.000  -0.002  -0.000   0.000
 -0.000  -0.002  -0.001   0.000  -9.511  -0.000  -0.002  -0.001
 -9.702   0.000   0.000  -0.002  -0.000  -9.882   0.000   0.000
  0.000  -9.710   0.000  -0.000  -0.002   0.000  -9.890   0.000
  0.000   0.000  -9.698   0.000  -0.001   0.000   0.000  -9.878
 -0.002  -0.000   0.000  -9.708   0.000  -0.002  -0.000   0.000
 -0.000  -0.002  -0.001   0.000  -9.702  -0.000  -0.002  -0.001
  0.000   0.000   0.000  -0.000  -0.001   0.000   0.000   0.000
  0.000   0.000   0.000  -0.000  -0.001   0.000   0.000   0.000
 -0.000  -0.029  -0.000   0.000   0.006  -0.000  -0.029  -0.000
  0.000   0.000  -0.030  -0.000   0.000   0.000   0.000  -0.030
  0.007   0.000   0.000  -0.029  -0.000   0.007   0.000   0.000
 -0.000  -0.036  -0.000   0.000   0.007  -0.000  -0.036  -0.000
  0.000   0.000  -0.037  -0.000   0.000   0.000   0.000  -0.038
  0.008   0.000   0.000  -0.035  -0.000   0.008   0.000   0.000
 total augmentation occupancy for first ion, spin component:           1
  2.094  -0.000  -0.000   0.430  -0.000  -2.465   0.000   0.000  -0.613   0.000  -0.000   0.000   0.000  -0.000  -0.324  -0.000
 -0.000   3.141  -0.001   0.000   0.426   0.000  -4.096   0.001  -0.000  -0.606  -0.003   0.000  -0.145  -0.006  -0.000   0.028
 -0.000  -0.001   1.528   0.000  -0.001   0.000   0.001  -1.704  -0.000   0.001  -0.093   0.016  -0.000   0.167  -0.000   0.000
  0.430   0.000   0.000   3.146   0.000  -0.613  -0.000  -0.000  -4.098  -0.000  -0.000   0.000  -0.000   0.000  -0.146   0.000
 -0.000   0.426  -0.001   0.000   2.080   0.000  -0.606   0.001  -0.000  -2.456  -0.001   0.000  -0.319  -0.000   0.000   0.047
 -2.465   0.000   0.000  -0.613   0.000   3.750  -0.000  -0.000   0.764  -0.000   0.000  -0.000  -0.000   0.000   0.395   0.000
  0.000  -4.096   0.001  -0.000  -0.606  -0.000   5.909  -0.001   0.000   0.753   0.004  -0.000   0.164   0.007   0.000  -0.039
  0.000   0.001  -1.704  -0.000   0.001  -0.000  -0.001   2.819   0.000  -0.004   0.224  -0.019   0.001  -0.141  -0.000  -0.000
 -0.613  -0.000  -0.000  -4.098  -0.000   0.764   0.000   0.000   5.911   0.000   0.000  -0.000   0.000  -0.000   0.164  -0.000
  0.000  -0.606   0.001  -0.000  -2.456  -0.000   0.753  -0.004   0.000   3.743   0.003  -0.001   0.389  -0.000   0.000  -0.053
 -0.000  -0.003  -0.093  -0.000  -0.001   0.000   0.004   0.224   0.000   0.003   1.548  -0.099   0.002   0.044  -0.000  -0.000
  0.000   0.000   0.016   0.000   0.000  -0.000  -0.000  -0.019  -0.000  -0.001  -0.099   0.008  -0.000  -0.001   0.000   0.000
  0.000  -0.145  -0.000  -0.000  -0.319  -0.000   0.164   0.001   0.000   0.389   0.002  -0.000   0.286   0.000   0.000  -0.036
 -0.000  -0.006   0.167   0.000  -0.000   0.000   0.007  -0.141  -0.000  -0.000   0.044  -0.001   0.000   0.353   0.000  -0.000
 -0.324  -0.000  -0.000  -0.146   0.000   0.395   0.000  -0.000   0.164   0.000  -0.000   0.000   0.000   0.000   0.287  -0.000
 -0.000   0.028   0.000   0.000   0.047   0.000  -0.039  -0.000  -0.000  -0.053  -0.000   0.000  -0.036  -0.000  -0.000   0.005
  0.000   0.001  -0.018  -0.000   0.000  -0.000  -0.001   0.007   0.000   0.000  -0.010   0.000  -0.000  -0.043  -0.000   0.000
  0.048   0.000   0.000   0.028  -0.000  -0.054  -0.000  -0.000  -0.039   0.000   0.000  -0.000   0.000   0.000  -0.036   0.000


------------------------ aborting loop because EDIFF is reached ----------------------------------------


    CHARGE:  cpu time    0.0453: real time    0.0453
    FORLOC:  cpu time    0.0003: real time    0.0003
    FORNL :  cpu time    0.0633: real time    0.0633
    STRESS:  cpu time    0.3286: real time    0.3292
    FORCOR:  cpu time    0.0136: real time    0.0136
    FORHAR:  cpu time    0.0023: real time    0.0023
    MIXING:  cpu time    0.0002: real time    0.0002
    OFIELD:  cpu time    0.0000: real time    0.0000

  FORCE on cell =-STRESS in cart. coord.  units (eV):
  Direction    XX          YY          ZZ          XY          YZ          ZX
  --------------------------------------------------------------------------------------
  Alpha Z    25.97440    25.97440    25.97440
  Ewald    5233.18116  5231.92111 -6305.59583     0.00000     0.26759     0.00000
  Hartree  5441.46738  5440.99880 -5379.54339     0.00000     0.10665     0.00000
  E(xc)    -145.34455  -145.31405  -147.12208     0.00000     0.00192    -0.00000
  Local  -11230.54542-11228.83343 11116.82586    -0.00000    -0.38735    -0.00000
  n-local   323.63963   323.74094   338.72082    -0.00000     0.02193     0.00000
  augment   -67.59549   -67.63916   -71.24563     0.00000    -0.00725    -0.00000
  Kinetic   419.10118   418.53614   421.97741    -0.00000    -0.00395     0.00000
  Fock        0.00000     0.00000     0.00000     0.00000     0.00000     0.00000
  -------------------------------------------------------------------------------------
  Total      -0.12171    -0.61525    -0.00843     0.00000    -0.00047     0.00000
  in kB      -0.48888    -2.47142    -0.03388     0.00000    -0.00189     0.00000
  external pressure =       -1.00 kB  Pullay stress =        0.00 kB


 VOLUME and BASIS-vectors are now :
 -----------------------------------------------------------------------------
  energy-cutoff  :      600.00
  volume of cell :      398.86
      direct lattice vectors                 reciprocal lattice vectors
     3.363599539  0.000000000  0.000000000     0.297300552  0.000000000  0.000000000
     0.000000000  5.855055456  0.000000000     0.000000000  0.170792575  0.000000000
     0.000000000  0.000000000 20.252588272     0.000000000  0.000000000  0.049376405

  length of vectors
     3.363599539  5.855055456 20.252588272     0.297300552  0.170792575  0.049376405


 FORCES acting on ions
    electron-ion (+dipol)            ewald-force                    non-local-force                 convergence-correction
 -----------------------------------------------------------------------------------------------
   -.836E-07 0.434E+00 -.412E+01   0.791E-07 -.432E+00 0.644E+01   -.160E-07 -.226E-02 -.231E+01   0.792E-08 -.346E-03 -.705E-03
   0.246E-06 0.433E+00 -.412E+01   -.224E-06 -.432E+00 0.644E+01   0.837E-08 -.228E-02 -.232E+01   -.848E-08 0.199E-03 -.567E-03
   -.429E-06 -.294E+00 -.464E+03   0.390E-06 0.283E+00 0.469E+03   0.120E-06 0.705E-02 -.560E+01   0.218E-07 0.374E-02 0.364E-03
   -.224E-07 -.286E+00 -.464E+03   0.794E-08 0.283E+00 0.469E+03   0.250E-07 0.753E-02 -.560E+01   0.278E-08 -.408E-02 -.188E-02
   0.304E-06 -.152E+00 0.471E+03   -.290E-06 0.148E+00 -.476E+03   -.123E-06 0.767E-03 0.461E+01   -.125E-08 0.272E-02 -.107E-02
   -.390E-07 -.147E+00 0.471E+03   0.364E-07 0.149E+00 -.476E+03   -.218E-07 0.933E-03 0.461E+01   0.798E-09 -.272E-02 0.718E-03
 -----------------------------------------------------------------------------------------------
   -.232E-07 -.119E-01 0.661E+01   -.199E-13 -.666E-15 0.568E-13   -.799E-08 0.117E-01 -.661E+01   0.236E-07 -.485E-03 -.314E-02
 
 
 POSITION                                       TOTAL-FORCE (eV/Angst)
 -----------------------------------------------------------------------------------
      1.68180      0.97451     10.26867        -0.000000     -0.000072      0.000233
     -0.00000      3.90203     10.26867         0.000000     -0.000031     -0.000186
      1.68180      4.87996     11.73882         0.000000     -0.000279     -0.000125
     -0.00000      1.95243     11.73882         0.000000     -0.000003      0.000082
      1.68180      4.87980      8.37139        -0.000000     -0.000024      0.000112
     -0.00000      1.95227      8.37140        -0.000000      0.000410     -0.000116
 -----------------------------------------------------------------------------------
    total drift:                               -0.000000     -0.000604     -0.000516


--------------------------------------------------------------------------------------------------------



  FREE ENERGIE OF THE ION-ELECTRON SYSTEM (eV)
  ---------------------------------------------------
  free  energy   TOTEN  =       -39.42105074 eV

  energy  without entropy=      -39.42105074  energy(sigma->0) =      -39.42105074
 
 d Force = 0.1126754E-06[-0.396E-08, 0.229E-06]  d Energy = 0.1458316E-06-0.332E-07
 d Force = 0.2737764E-01[ 0.274E-01, 0.274E-01]  d Ewald  = 0.2737764E-01 0.364E-10


--------------------------------------------------------------------------------------------------------


    POTLOK:  cpu time    0.0139: real time    0.0139


--------------------------------------------------------------------------------------------------------




--------------------------------------------------------------------------------------------------------


  
 reached required accuracy - stopping structural energy minimisation
     LOOP+:  cpu time    3.0082: real time    3.0872
    4ORBIT:  cpu time    0.0000: real time    0.0000

 total amount of memory used by VASP MPI-rank0    62837. kBytes
=======================================================================

   base      :      30000. kBytes
   nonl-proj :      25819. kBytes
   fftplans  :       1397. kBytes
   grid      :       2623. kBytes
   one-center:         15. kBytes
   wavefun   :       2983. kBytes
 
  
  
 General timing and accounting informations for this job:
 ========================================================
  
                  Total CPU time used (sec):       85.774
                            User time (sec):       82.914
                          System time (sec):        2.859
                         Elapsed time (sec):       86.798
  
                   Maximum memory used (kb):      174672.
                   Average memory used (kb):           0.
  
                          Minor page faults:        24979
                          Major page faults:         1045
                 Voluntary context switches:         2721
