 running on  192 total cores
 distrk:  each k-point on  192 cores,    1 groups
 distr:  one band on   24 cores,    8 groups
 using from now: INCAR     
 vasp.5.4.4.18Apr17-6-g9f103f2a35 (build Oct 01 2024 10:11:53) complex          
  
 POSCAR found type information on POSCAR  Se Sn
 POSCAR found :  2 types and       4 ions
 scaLAPACK will be used
 WARNING: PSMAXN for non-local potential too small
 LDA part: xc-table for Pade appr. of Perdew
 found WAVECAR, reading the header
  number of k-points has changed, file:    41 present:    40
  trying to continue reading WAVECAR, but it might fail
 WARNING: stress and forces are not correct
 POSCAR, INCAR and KPOINTS ok, starting setup
 FFT: planning ...
 reading WAVECAR
 the WAVECAR file was read successfully
 charge-density read from file: unknown                                 
 entering main loop
       N       E                     dE             d eps       ncg     rms          rms(c)
DAV:   1    -0.132160383246E+02   -0.13216E+02   -0.37941E+02  1744   0.644E+01
DAV:   2    -0.162306078439E+02   -0.30146E+01   -0.29893E+01  1528   0.227E+01
DAV:   3    -0.162664121417E+02   -0.35804E-01   -0.35785E-01  1760   0.290E+00
DAV:   4    -0.162668625946E+02   -0.45045E-03   -0.45044E-03  1592   0.321E-01
DAV:   5    -0.162668750361E+02   -0.12442E-04   -0.12441E-04  1800   0.522E-02
DAV:   6    -0.162668754863E+02   -0.45013E-06   -0.45012E-06  1576   0.888E-03
   1 F= -.16266875E+02 E0= -.16266875E+02  d E =0.000000E+00
 writing wavefunctions
