phonopy:
  version: 2.16.2
  frequency_unit_conversion_factor: 15.633302
  symmetry_tolerance: 1.00000e-05
  configuration:
    cell_filename: "POSCAR"
    create_displacements: ".true."
    dim: "1 1 1"

physical_unit:
  atomic_mass: "AMU"
  length: "angstrom"
  force_constants: "eV/angstrom^2"

space_group:
  type: "P6_3/mmc"
  number: 194
  Hall_symbol: "-P 6c 2c"

supercell_matrix:
- [   1,   0,   0 ]
- [   0,   1,   0 ]
- [   0,   0,   1 ]

primitive_cell:
  lattice:
  - [     1.591143166609197,    -2.755940806683155,     0.000000000000000 ] # a
  - [     1.591143166609197,     2.755940806683155,     0.000000000000000 ] # b
  - [     0.000000000000000,     0.000000000000000,    14.491394746291036 ] # c
  points:
  - symbol: Mo # 1
    coordinates: [  0.333333333333336,  0.666666666666664,  0.250000000000000 ]
    mass: 95.960000
  - symbol: Mo # 2
    coordinates: [  0.666666666666664,  0.333333333333336,  0.750000000000000 ]
    mass: 95.960000
  - symbol: S  # 3
    coordinates: [  0.666666666666664,  0.333333333333336,  0.357701869097680 ]
    mass: 32.065000
  - symbol: S  # 4
    coordinates: [  0.333333333333336,  0.666666666666664,  0.857701869097679 ]
    mass: 32.065000
  - symbol: S  # 5
    coordinates: [  0.666666666666664,  0.333333333333336,  0.142298130902320 ]
    mass: 32.065000
  - symbol: S  # 6
    coordinates: [  0.333333333333336,  0.666666666666664,  0.642298130902321 ]
    mass: 32.065000
  reciprocal_lattice: # without 2pi
  - [     0.314239479195027,    -0.181426247903257,     0.000000000000000 ] # a*
  - [     0.314239479195027,     0.181426247903257,     0.000000000000000 ] # b*
  - [     0.000000000000000,     0.000000000000000,     0.069006470219572 ] # c*

unit_cell:
  lattice:
  - [     1.591143166609197,    -2.755940806683155,     0.000000000000000 ] # a
  - [     1.591143166609197,     2.755940806683155,     0.000000000000000 ] # b
  - [     0.000000000000000,     0.000000000000000,    14.491394746291036 ] # c
  points:
  - symbol: Mo # 1
    coordinates: [  0.333333333333336,  0.666666666666664,  0.250000000000000 ]
    mass: 95.960000
    reduced_to: 1
  - symbol: Mo # 2
    coordinates: [  0.666666666666664,  0.333333333333336,  0.750000000000000 ]
    mass: 95.960000
    reduced_to: 2
  - symbol: S  # 3
    coordinates: [  0.666666666666664,  0.333333333333336,  0.357701869097680 ]
    mass: 32.065000
    reduced_to: 3
  - symbol: S  # 4
    coordinates: [  0.333333333333336,  0.666666666666664,  0.857701869097679 ]
    mass: 32.065000
    reduced_to: 4
  - symbol: S  # 5
    coordinates: [  0.666666666666664,  0.333333333333336,  0.142298130902320 ]
    mass: 32.065000
    reduced_to: 5
  - symbol: S  # 6
    coordinates: [  0.333333333333336,  0.666666666666664,  0.642298130902321 ]
    mass: 32.065000
    reduced_to: 6

supercell:
  lattice:
  - [     1.591143166609197,    -2.755940806683155,     0.000000000000000 ] # a
  - [     1.591143166609197,     2.755940806683155,     0.000000000000000 ] # b
  - [     0.000000000000000,     0.000000000000000,    14.491394746291036 ] # c
  points:
  - symbol: Mo # 1
    coordinates: [  0.333333333333336,  0.666666666666664,  0.250000000000000 ]
    mass: 95.960000
    reduced_to: 1
  - symbol: Mo # 2
    coordinates: [  0.666666666666664,  0.333333333333336,  0.750000000000000 ]
    mass: 95.960000
    reduced_to: 2
  - symbol: S  # 3
    coordinates: [  0.666666666666664,  0.333333333333336,  0.357701869097680 ]
    mass: 32.065000
    reduced_to: 3
  - symbol: S  # 4
    coordinates: [  0.333333333333336,  0.666666666666664,  0.857701869097679 ]
    mass: 32.065000
    reduced_to: 4
  - symbol: S  # 5
    coordinates: [  0.666666666666664,  0.333333333333336,  0.142298130902320 ]
    mass: 32.065000
    reduced_to: 5
  - symbol: S  # 6
    coordinates: [  0.333333333333336,  0.666666666666664,  0.642298130902321 ]
    mass: 32.065000
    reduced_to: 6

displacements:
- atom:    1
  displacement:
    [   0.0010724378638292, -0.0018575168681129,  0.0097672671773071 ]
- atom:    3
  displacement:
    [   0.0010724378638292, -0.0018575168681129,  0.0097672671773071 ]
- atom:    3
  displacement:
    [  -0.0010724378638292,  0.0018575168681129, -0.0097672671773071 ]
