 running on    4 total cores
 distrk:  each k-point on    4 cores,    1 groups
 distr:  one band on    1 cores,    4 groups
 using from now: INCAR     
 vasp.5.4.4.18Apr17-6-g9f103f2a35 (build Sep 16 2021 14:01:42) gamma-only       
  
 POSCAR found type information on POSCAR  Si
 POSCAR found :  1 types and      64 ions
 scaLAPACK will be used
 LDA part: xc-table for Pade appr. of Perdew
 POSCAR, INCAR and KPOINTS ok, starting setup
 FFT: planning ...
 WAVECAR not read
 prediction of wavefunctions initialized - no I/O
 entering main loop
       N       E                     dE             d eps       ncg     rms          rms(c)
RMM:   1     0.150565943326E+04    0.15057E+04   -0.44266E+04   164   0.501E+02
RMM:   2     0.283993524175E+03   -0.12217E+04   -0.12453E+04   164   0.143E+02
RMM:   3    -0.504853265500E+02   -0.33448E+03   -0.40137E+03   164   0.778E+01
RMM:   4    -0.184146226355E+03   -0.13366E+03   -0.14237E+03   164   0.551E+01
RMM:   5    -0.244032130342E+03   -0.59886E+02   -0.57826E+02   164   0.315E+01
RMM:   6    -0.274649251116E+03   -0.30617E+02   -0.27106E+02   164   0.221E+01
RMM:   7    -0.289121729925E+03   -0.14472E+02   -0.13336E+02   164   0.139E+01
RMM:   8    -0.297160330046E+03   -0.80386E+01   -0.70813E+01   164   0.989E+00
RMM:   9    -0.306025912606E+03   -0.88656E+01   -0.84585E+01   387   0.662E+00
RMM:  10    -0.306896207268E+03   -0.87029E+00   -0.88375E+00   405   0.162E+00
RMM:  11    -0.307092087662E+03   -0.19588E+00   -0.97680E-01   358   0.395E-01
RMM:  12    -0.307116886240E+03   -0.24799E-01   -0.12230E-01   326   0.111E-01    0.314E+01
RMM:  13    -0.301362540723E+03    0.57543E+01   -0.13287E+01   328   0.377E+00    0.184E+01
RMM:  14    -0.300287923425E+03    0.10746E+01   -0.56839E+00   329   0.295E+00    0.449E+00
RMM:  15    -0.300244484649E+03    0.43439E-01   -0.70965E-01   360   0.103E+00    0.110E+00
RMM:  16    -0.300208668068E+03    0.35817E-01   -0.10599E-01   330   0.402E-01    0.587E-01
RMM:  17    -0.300208008571E+03    0.65950E-03   -0.27735E-02   334   0.210E-01    0.302E-01
RMM:  18    -0.300209071940E+03   -0.10634E-02   -0.41691E-03   342   0.964E-02    0.144E-01
RMM:  19    -0.300209625668E+03   -0.55373E-03   -0.94996E-04   321   0.493E-02    0.487E-02
RMM:  20    -0.300209752991E+03   -0.12732E-03   -0.22428E-04   210   0.255E-02    0.154E-02
RMM:  21    -0.300209777122E+03   -0.24131E-04   -0.59668E-05   197   0.122E-02
    1 T=  1721. E= -.32062176E+03 F= -.30020978E+03 E0= -.30012588E+03  EK= 0.14013E+02 SP= -.35E+02 SK= 0.47E+00
 bond charge predicted
       N       E                     dE             d eps       ncg     rms          rms(c)
RMM:   1    -0.299976413549E+03    0.23334E+00   -0.20419E+01   328   0.719E+00    0.127E+00
RMM:   2    -0.299980433572E+03   -0.40200E-02   -0.52073E-01   340   0.109E+00    0.870E-01
RMM:   3    -0.299969791017E+03    0.10643E-01   -0.46049E-02   352   0.322E-01    0.572E-01
RMM:   4    -0.299967393297E+03    0.23977E-02   -0.16376E-02   329   0.162E-01    0.183E-01
RMM:   5    -0.299967226424E+03    0.16687E-03   -0.12823E-03   339   0.480E-02    0.824E-02
RMM:   6    -0.299967198471E+03    0.27953E-04   -0.19637E-04   203   0.210E-02
    2 T=  1611. E= -.32061366E+03 F= -.29996720E+03 E0= -.29987728E+03  EK= 0.13121E+02 SP= -.34E+02 SK= 0.34E+00
 bond charge predicted
 prediction of wavefunctions
       N       E                     dE             d eps       ncg     rms          rms(c)
RMM:   1    -0.299860724216E+03    0.10650E+00   -0.10966E+00   329   0.176E+00    0.353E-01
RMM:   2    -0.299861679626E+03   -0.95541E-03   -0.33729E-02   350   0.261E-01    0.217E-01
RMM:   3    -0.299860987025E+03    0.69260E-03   -0.33687E-03   342   0.850E-02    0.149E-01
RMM:   4    -0.299860916758E+03    0.70266E-04   -0.47917E-04   251   0.280E-02
    3 T=  1537. E= -.32060741E+03 F= -.29986092E+03 E0= -.29976619E+03  EK= 0.12516E+02 SP= -.33E+02 SK= 0.20E+00
 bond charge predicted
 prediction of wavefunctions
       N       E                     dE             d eps       ncg     rms          rms(c)
RMM:   1    -0.299995055353E+03   -0.13407E+00   -0.12636E-01   329   0.626E-01    0.158E-01
RMM:   2    -0.299995388740E+03   -0.33339E-03   -0.90724E-03   355   0.105E-01    0.894E-02
RMM:   3    -0.299995356597E+03    0.32143E-04   -0.60191E-04   279   0.343E-02
    4 T=  1510. E= -.32060647E+03 F= -.29999536E+03 E0= -.29989763E+03  EK= 0.12295E+02 SP= -.33E+02 SK= 0.92E-01
 bond charge predicted
 prediction of wavefunctions
       N       E                     dE             d eps       ncg     rms          rms(c)
RMM:   1    -0.300376802561E+03   -0.38141E+00   -0.13188E-01   334   0.603E-01    0.167E-01
RMM:   2    -0.300377575634E+03   -0.77307E-03   -0.11623E-02   366   0.111E-01    0.102E-01
RMM:   3    -0.300377575744E+03   -0.11058E-06   -0.63065E-04   274   0.340E-02
    5 T=  1529. E= -.32061369E+03 F= -.30037758E+03 E0= -.30027724E+03  EK= 0.12454E+02 SP= -.33E+02 SK= 0.24E-01
 bond charge predicted
 prediction of wavefunctions
 wavefunctions rotated
 writing wavefunctions
