 running on  192 total cores
 distrk:  each k-point on  192 cores,    1 groups
 distr:  one band on   24 cores,    8 groups
 using from now: INCAR     
 vasp.5.4.4.18Apr17-6-g9f103f2a35 (build Oct 01 2024 10:11:53) complex          
  
 POSCAR found type information on POSCAR  Se Sn
 POSCAR found :  2 types and       4 ions
 scaLAPACK will be used
 WARNING: PSMAXN for non-local potential too small
 LDA part: xc-table for Pade appr. of Perdew
 found WAVECAR, reading the header
  number of k-points has changed, file:    41 present:    40
  trying to continue reading WAVECAR, but it might fail
 WARNING: stress and forces are not correct
 POSCAR, INCAR and KPOINTS ok, starting setup
 FFT: planning ...
 reading WAVECAR
 the WAVECAR file was read successfully
 charge-density read from file: unknown                                 
 entering main loop
       N       E                     dE             d eps       ncg     rms          rms(c)
DAV:   1    -0.131935125859E+02   -0.13194E+02   -0.37839E+02  1744   0.643E+01
DAV:   2    -0.162300010294E+02   -0.30365E+01   -0.30111E+01  1520   0.228E+01
DAV:   3    -0.162660063696E+02   -0.36005E-01   -0.35986E-01  1752   0.291E+00
DAV:   4    -0.162664590976E+02   -0.45273E-03   -0.45271E-03  1584   0.322E-01
DAV:   5    -0.162664714612E+02   -0.12364E-04   -0.12363E-04  1776   0.522E-02
DAV:   6    -0.162664719039E+02   -0.44276E-06   -0.44287E-06  1584   0.887E-03
   1 F= -.16266472E+02 E0= -.16266472E+02  d E =-.506842-246
 writing wavefunctions
