 vasp.5.4.4.18Apr17-6-g9f103f2a35 (build Oct 01 2024 10:11:53) complex          
  
 executed on              Shaheen date 2024.10.26  18:04:52
 running on  192 total cores
 distrk:  each k-point on  192 cores,    1 groups
 distr:  one band on NCORES_PER_BAND=   1 cores,  192 groups


--------------------------------------------------------------------------------------------------------


 INCAR:
 POTCAR:    PAW_PBE S 06Sep2000                   
 POTCAR:    PAW_PBE Pb 08Apr2002                  

 ----------------------------------------------------------------------------- 
|                                                                             |
|           W    W    AA    RRRRR   N    N  II  N    N   GGGG   !!!           |
|           W    W   A  A   R    R  NN   N  II  NN   N  G    G  !!!           |
|           W    W  A    A  R    R  N N  N  II  N N  N  G       !!!           |
|           W WW W  AAAAAA  RRRRR   N  N N  II  N  N N  G  GGG   !            |
|           WW  WW  A    A  R   R   N   NN  II  N   NN  G    G                |
|           W    W  A    A  R    R  N    N  II  N    N   GGGG   !!!           |
|                                                                             |
|      For optimal performance we recommend to set                            |
|        NCORE= 4 - approx SQRT( number of cores)                             |
|      NCORE specifies how many cores store one orbital (NPAR=cpu/NCORE).     |
|      This setting can  greatly improve the performance of VASP for DFT.     |
|      The default,   NCORE=1            might be grossly inefficient         |
|      on modern multi-core architectures or massively parallel machines.     |
|      Do your own testing !!!!                                               |
|      Unfortunately you need to use the default for GW and RPA calculations. |
|      (for HF NCORE is supported but not extensively tested yet)             |
|                                                                             |
 ----------------------------------------------------------------------------- 

 POTCAR:    PAW_PBE S 06Sep2000                   
   VRHFIN =S : s2p4                                                             
   LEXCH  = PE                                                                  
   EATOM  =   276.8230 eV,   20.3459 Ry                                         
                                                                                
   TITEL  = PAW_PBE S 06Sep2000                                                 
   LULTRA =        F    use ultrasoft PP ?                                      
   IUNSCR =        1    unscreen: 0-lin 1-nonlin 2-no                           
   RPACOR =    1.500    partial core radius                                     
   POMASS =   32.066; ZVAL   =    6.000    mass and valenz                      
   RCORE  =    1.900    outmost cutoff radius                                   
   RWIGS  =    2.200; RWIGS  =    1.164    wigner-seitz radius (au A)           
   ENMAX  =  258.689; ENMIN  =  194.016 eV                                      
   ICORE  =        2    local potential                                         
   LCOR   =        T    correct aug charges                                     
   LPAW   =        T    paw PP                                                  
   EAUG   =  335.092                                                            
   DEXC   =    0.000                                                            
   RMAX   =    1.942    core radius for proj-oper                               
   RAUG   =    1.300    factor for augmentation sphere                          
   RDEP   =    1.954    radius for radial grids                                 
   RDEPT  =    1.744    core radius for aug-charge                              
                                                                                
   Atomic configuration                                                         
    6 entries                                                                   
     n  l   j            E        occ.                                          
     1  0  0.50     -2405.8406   2.0000                                         
     2  0  0.50      -211.7007   2.0000                                         
     2  1  1.50      -156.4958   6.0000                                         
     3  0  0.50       -17.2562   2.0000                                         
     3  1  0.50        -7.0085   4.0000                                         
     3  2  1.50        -6.8029   0.0000                                         
   Description                                                                  
     l       E           TYP  RCUT    TYP  RCUT                                 
     0    -17.2561641     23  1.900                                             
     0    -15.8743224     23  1.900                                             
     1     -7.0085400     23  1.900                                             
     1     -2.7779785     23  1.900                                             
     2     -6.8029130     23  1.900                                             
  local pseudopotential read in
  partial core-charges read in
  partial kinetic energy density read in
  atomic valenz-charges read in
  non local Contribution for L=           0  read in
    real space projection operators read in
  non local Contribution for L=           0  read in
    real space projection operators read in
  non local Contribution for L=           1  read in
    real space projection operators read in
  non local Contribution for L=           1  read in
    real space projection operators read in
    PAW grid and wavefunctions read in
 
   number of l-projection  operators is LMAX  =           4
   number of lm-projection operators is LMMAX =           8
 
 POTCAR:    PAW_PBE Pb 08Apr2002                  
   VRHFIN =Pb:                                                                  
   LEXCH  = PE                                                                  
   EATOM  =    96.9868 eV,    7.1283 Ry                                         
                                                                                
   TITEL  = PAW_PBE Pb 08Apr2002                                                
   LULTRA =        F    use ultrasoft PP ?                                      
   IUNSCR =        1    unscreen: 0-lin 1-nonlin 2-no                           
   RPACOR =    2.200    partial core radius                                     
   POMASS =  207.200; ZVAL   =    4.000    mass and valenz                      
   RCORE  =    3.100    outmost cutoff radius                                   
   RWIGS  =    3.260; RWIGS  =    1.725    wigner-seitz radius (au A)           
   ENMAX  =   97.973; ENMIN  =   73.480 eV                                      
   ICORE  =        3    local potential                                         
   LCOR   =        T    correct aug charges                                     
   LPAW   =        T    paw PP                                                  
   EAUG   =  234.873                                                            
   DEXC   =    0.000                                                            
   RMAX   =    3.158    core radius for proj-oper                               
   RAUG   =    1.300    factor for augmentation sphere                          
   RDEP   =    3.202    radius for radial grids                                 
   RDEPT  =    2.659    core radius for aug-charge                              
                                                                                
   Atomic configuration                                                         
   17 entries                                                                   
     n  l   j            E        occ.                                          
     1  0  0.50    -88091.8466   2.0000                                         
     2  0  0.50    -15753.4197   2.0000                                         
     2  1  1.50    -13508.1797   6.0000                                         
     3  0  0.50     -3781.7194   2.0000                                         
     3  1  1.50     -3138.2529   6.0000                                         
     3  2  2.50     -2483.2977  10.0000                                         
     4  0  0.50      -856.2895   2.0000                                         
     4  1  1.50      -645.4943   6.0000                                         
     4  2  2.50      -401.8768  10.0000                                         
     4  3  3.50      -132.9059  14.0000                                         
     5  0  0.50      -144.0950   2.0000                                         
     5  1  1.50       -85.7879   6.0000                                         
     5  2  2.50       -21.1769  10.0000                                         
     6  0  0.50       -12.0372   2.0000                                         
     6  1  1.50        -3.4971   2.0000                                         
     6  2  2.50        -1.3606   0.0000                                         
     5  3  2.50        -2.7212   0.0000                                         
   Description                                                                  
     l       E           TYP  RCUT    TYP  RCUT                                 
     0    -12.0371566     23  3.100                                             
     0    -13.3977392     23  3.100                                             
     1     -3.4971341     23  3.100                                             
     1     -5.4423304     23  3.100                                             
     2     -1.3605826     23  3.100                                             
     3     -1.3605826     23  3.100                                             
  local pseudopotential read in
  partial core-charges read in
  partial kinetic energy density read in
  atomic valenz-charges read in
  non local Contribution for L=           0  read in
    real space projection operators read in
  non local Contribution for L=           0  read in
    real space projection operators read in
  non local Contribution for L=           1  read in
    real space projection operators read in
  non local Contribution for L=           1  read in
    real space projection operators read in
  non local Contribution for L=           2  read in
    real space projection operators read in
    PAW grid and wavefunctions read in
 
   number of l-projection  operators is LMAX  =           5
   number of lm-projection operators is LMMAX =          13
 
 WARNING: PSMAXN for non-local potential too small
          PSMAXN should be >   12.5490833729506       NTYP=           2
  PAW_PBE S 06Sep2000                   :
 energy of atom  1       EATOM= -276.8230
 kinetic energy error for atom=    0.0009 (will be added to EATOM!!)
  PAW_PBE Pb 08Apr2002                  :
 energy of atom  2       EATOM=  -96.9868
 kinetic energy error for atom=    0.0000 (will be added to EATOM!!)
 
 
 POSCAR: S  Pb                                   
  positions in direct lattice
  No initial velocities read in
 exchange correlation table for  LEXCH =        8
   RHO(1)=    0.500       N(1)  =     2000
   RHO(2)=  100.500       N(2)  =     4000
 


--------------------------------------------------------------------------------------------------------


 ion  position               nearest neighbor table
   1  0.500  0.389  0.604-   7 2.82   7 2.82  11 2.90  10 3.15  10 3.15
   2  0.500  0.389  0.396-   8 2.82   8 2.82  11 2.90   9 3.15   9 3.15
   3  0.500  0.889  0.396-   9 2.82   9 2.82  12 2.90   8 3.15   8 3.15
   4  0.500  0.889  0.604-  10 2.82  10 2.82  12 2.90   7 3.15   7 3.15
   5  1.000  0.651  0.500-   9 2.89  10 2.89  11 2.96  11 2.96  12 3.00  12 3.00
   6  1.000  0.151  0.500-   8 2.89   7 2.89  12 2.96  12 2.96  11 3.00  11 3.00
   7  1.000  0.166  0.604-   1 2.82   1 2.82   6 2.89   4 3.15   4 3.15  11 4.10  11 4.10
   8  0.000  0.166  0.396-   2 2.82   2 2.82   6 2.89   3 3.15   3 3.15  11 4.10  11 4.10
   9  1.000  0.666  0.396-   3 2.82   3 2.82   5 2.89   2 3.15   2 3.15  12 4.10  12 4.10
  10  0.000  0.666  0.604-   4 2.82   4 2.82   5 2.89   1 3.15   1 3.15  12 4.10  12 4.10
  11  0.500  0.405  0.500-   2 2.90   1 2.90   5 2.96   5 2.96   6 3.00   6 3.00   8 4.10   7 4.10
                             8 4.10   7 4.10
  12  0.500  0.905  0.500-   3 2.90   4 2.90   6 2.96   6 2.96   5 3.00   5 3.00   9 4.10  10 4.10
                             9 4.10  10 4.10
 

IMPORTANT INFORMATION: All symmetrisations will be switched off!
NOSYMM: (Re-)initialisation of all symmetry stuff for point group C_1.

 
 
 KPOINTS: K-Spacing Value to Generate K-Mesh: 0.02

Automatic generation of k-mesh.
Space group operators:
 irot       det(A)        alpha          n_x          n_y          n_z        tau_x        tau_y        tau_z
    1     1.000000     0.000000     1.000000     0.000000     0.000000     0.000000     0.000000     0.000000
 
 Subroutine IBZKPT returns following result:
 ===========================================
 
 Found     25 irreducible k-points:
 
 Following reciprocal coordinates:
            Coordinates               Weight
  0.050000  0.000000  0.000000      2.000000
  0.150000  0.000000  0.000000      2.000000
  0.250000  0.000000  0.000000      2.000000
  0.350000  0.000000  0.000000      2.000000
  0.450000  0.000000  0.000000      2.000000
  0.050000  0.200000  0.000000      2.000000
  0.150000  0.200000  0.000000      2.000000
  0.250000  0.200000  0.000000      2.000000
  0.350000  0.200000  0.000000      2.000000
  0.450000  0.200000  0.000000      2.000000
 -0.450000  0.200000  0.000000      2.000000
 -0.350000  0.200000  0.000000      2.000000
 -0.250000  0.200000  0.000000      2.000000
 -0.150000  0.200000  0.000000      2.000000
 -0.050000  0.200000  0.000000      2.000000
  0.050000  0.400000  0.000000      2.000000
  0.150000  0.400000  0.000000      2.000000
  0.250000  0.400000  0.000000      2.000000
  0.350000  0.400000  0.000000      2.000000
  0.450000  0.400000  0.000000      2.000000
 -0.450000  0.400000  0.000000      2.000000
 -0.350000  0.400000  0.000000      2.000000
 -0.250000  0.400000  0.000000      2.000000
 -0.150000  0.400000  0.000000      2.000000
 -0.050000  0.400000  0.000000      2.000000
 
 Following cartesian coordinates:
            Coordinates               Weight
  0.011955  0.000000  0.000000      2.000000
  0.035866  0.000000  0.000000      2.000000
  0.059776  0.000000  0.000000      2.000000
  0.083687  0.000000  0.000000      2.000000
  0.107597  0.000000  0.000000      2.000000
  0.011955  0.023555  0.000000      2.000000
  0.035866  0.023555  0.000000      2.000000
  0.059776  0.023555  0.000000      2.000000
  0.083687  0.023555  0.000000      2.000000
  0.107597  0.023555  0.000000      2.000000
 -0.107597  0.023555  0.000000      2.000000
 -0.083687  0.023555  0.000000      2.000000
 -0.059776  0.023555  0.000000      2.000000
 -0.035866  0.023555  0.000000      2.000000
 -0.011955  0.023555  0.000000      2.000000
  0.011955  0.047110  0.000000      2.000000
  0.035866  0.047110  0.000000      2.000000
  0.059776  0.047110  0.000000      2.000000
  0.083687  0.047110  0.000000      2.000000
  0.107597  0.047110  0.000000      2.000000
 -0.107597  0.047110  0.000000      2.000000
 -0.083687  0.047110  0.000000      2.000000
 -0.059776  0.047110  0.000000      2.000000
 -0.035866  0.047110  0.000000      2.000000
 -0.011955  0.047110  0.000000      2.000000
 
 
 Subroutine IBZKPT_HF returns following result:
 ==============================================
 
 Found     50 k-points in 1st BZ
 the following     50 k-points will be used (e.g. in the exchange kernel)
 Following reciprocal coordinates:   # in IRBZ
  0.050000  0.000000  0.000000    0.02000000   1 t-inv F
  0.150000  0.000000  0.000000    0.02000000   2 t-inv F
  0.250000  0.000000  0.000000    0.02000000   3 t-inv F
  0.350000  0.000000  0.000000    0.02000000   4 t-inv F
  0.450000  0.000000  0.000000    0.02000000   5 t-inv F
  0.050000  0.200000  0.000000    0.02000000   6 t-inv F
  0.150000  0.200000  0.000000    0.02000000   7 t-inv F
  0.250000  0.200000  0.000000    0.02000000   8 t-inv F
  0.350000  0.200000  0.000000    0.02000000   9 t-inv F
  0.450000  0.200000  0.000000    0.02000000  10 t-inv F
 -0.450000  0.200000  0.000000    0.02000000  11 t-inv F
 -0.350000  0.200000  0.000000    0.02000000  12 t-inv F
 -0.250000  0.200000  0.000000    0.02000000  13 t-inv F
 -0.150000  0.200000  0.000000    0.02000000  14 t-inv F
 -0.050000  0.200000  0.000000    0.02000000  15 t-inv F
  0.050000  0.400000  0.000000    0.02000000  16 t-inv F
  0.150000  0.400000  0.000000    0.02000000  17 t-inv F
  0.250000  0.400000  0.000000    0.02000000  18 t-inv F
  0.350000  0.400000  0.000000    0.02000000  19 t-inv F
  0.450000  0.400000  0.000000    0.02000000  20 t-inv F
 -0.450000  0.400000  0.000000    0.02000000  21 t-inv F
 -0.350000  0.400000  0.000000    0.02000000  22 t-inv F
 -0.250000  0.400000  0.000000    0.02000000  23 t-inv F
 -0.150000  0.400000  0.000000    0.02000000  24 t-inv F
 -0.050000  0.400000  0.000000    0.02000000  25 t-inv F
 -0.050000  0.000000  0.000000    0.02000000   1 t-inv T
 -0.150000  0.000000  0.000000    0.02000000   2 t-inv T
 -0.250000  0.000000  0.000000    0.02000000   3 t-inv T
 -0.350000  0.000000  0.000000    0.02000000   4 t-inv T
 -0.450000  0.000000  0.000000    0.02000000   5 t-inv T
 -0.050000 -0.200000  0.000000    0.02000000   6 t-inv T
 -0.150000 -0.200000  0.000000    0.02000000   7 t-inv T
 -0.250000 -0.200000  0.000000    0.02000000   8 t-inv T
 -0.350000 -0.200000  0.000000    0.02000000   9 t-inv T
 -0.450000 -0.200000  0.000000    0.02000000  10 t-inv T
  0.450000 -0.200000  0.000000    0.02000000  11 t-inv T
  0.350000 -0.200000  0.000000    0.02000000  12 t-inv T
  0.250000 -0.200000  0.000000    0.02000000  13 t-inv T
  0.150000 -0.200000  0.000000    0.02000000  14 t-inv T
  0.050000 -0.200000  0.000000    0.02000000  15 t-inv T
 -0.050000 -0.400000  0.000000    0.02000000  16 t-inv T
 -0.150000 -0.400000  0.000000    0.02000000  17 t-inv T
 -0.250000 -0.400000  0.000000    0.02000000  18 t-inv T
 -0.350000 -0.400000  0.000000    0.02000000  19 t-inv T
 -0.450000 -0.400000  0.000000    0.02000000  20 t-inv T
  0.450000 -0.400000  0.000000    0.02000000  21 t-inv T
  0.350000 -0.400000  0.000000    0.02000000  22 t-inv T
  0.250000 -0.400000  0.000000    0.02000000  23 t-inv T
  0.150000 -0.400000  0.000000    0.02000000  24 t-inv T
  0.050000 -0.400000  0.000000    0.02000000  25 t-inv T


--------------------------------------------------------------------------------------------------------




 Dimension of arrays:
   k-points           NKPTS =     25   k-points in BZ     NKDIM =     25   number of bands    NBANDS=    192
   number of dos      NEDOS =    301   number of ions     NIONS =     12
   non local maximal  LDIM  =      5   non local SUM 2l+1 LMDIM =     13
   total plane-waves  NPLWV = 564480
   max r-space proj   IRMAX =      1   max aug-charges    IRDMAX=  65589
   dimension x,y,z NGX =    36 NGY =   70 NGZ =  224
   dimension x,y,z NGXF=    72 NGYF=  140 NGZF=  448
   support grid    NGXF=    72 NGYF=  140 NGZF=  448
   ions per type =               6   6
   NGX,Y,Z   is equivalent  to a cutoff of  14.31, 13.71, 13.39 a.u.
   NGXF,Y,Z  is equivalent  to a cutoff of  28.62, 27.41, 26.77 a.u.

 SYSTEM =  unknown system                          
 POSCAR =  S  Pb                                   

 Startparameter for this run:
   NWRITE =      2    write-flag & timer
   PREC   = accura    normal or accurate (medium, high low for compatibility)
   ISTART =      1    job   : 0-new  1-cont  2-samecut
   ICHARG =      1    charge: 1-file 2-atom 10-const
   ISPIN  =      1    spin polarized calculation?
   LNONCOLLINEAR =      F non collinear calculations
   LSORBIT =      F    spin-orbit coupling
   INIWAV =      1    electr: 0-lowe 1-rand  2-diag
   LASPH  =      F    aspherical Exc in radial PAW
   METAGGA=      F    non-selfconsistent MetaGGA calc.

 Electronic Relaxation 1
   ENCUT  =  600.0 eV  44.10 Ry    6.64 a.u.   8.35 16.96 55.56*2*pi/ulx,y,z
   ENINI  =  600.0     initial cutoff
   ENAUG  =  335.1 eV  augmentation charge cutoff
   NELM   =     60;   NELMIN=  2; NELMDL=  0     # of ELM steps 
   EDIFF  = 0.1E-07   stopping-criterion for ELM
   LREAL  =      F    real-space projection
   NLSPLINE    = F    spline interpolate recip. space projectors
   LCOMPAT=      F    compatible to vasp.4.4
   GGA_COMPAT  = T    GGA compatible to vasp.4.4-vasp.4.6
   LMAXPAW     = -100 max onsite density
   LMAXMIX     =    2 max onsite mixed and CHGCAR
   VOSKOWN=      0    Vosko Wilk Nusair interpolation
   ROPT   =    0.00000   0.00000
 Ionic relaxation
   EDIFFG = -.1E-02   stopping-criterion for IOM
   NSW    =    181    number of steps for IOM
   NBLOCK =      1;   KBLOCK =    181    inner block; outer block 
   IBRION =      5    ionic relax: 0-MD 1-quasi-New 2-CG
   NFREE  =      2    steps in history (QN), initial steepest desc. (CG)
   ISIF   =      3    stress and relaxation
   IWAVPR =     11    prediction:  0-non 1-charg 2-wave 3-comb
   ISYM   =      0    0-nonsym 1-usesym 2-fastsym
   LCORR  =      T    Harris-Foulkes like correction to forces

   POTIM  = 0.5000    time-step for ionic-motion
   TEIN   =    0.0    initial temperature
   TEBEG  =    0.0;   TEEND  =   0.0 temperature during run
   SMASS  =  -3.00    Nose mass-parameter (am)
   estimated Nose-frequenzy (Omega)   =  0.10E-29 period in steps =****** mass=  -0.400E-27a.u.
   SCALEE = 1.0000    scale energy and forces
   NPACO  =    256;   APACO  = 16.0  distance and # of slots for P.C.
   PSTRESS=    0.0 pullay stress

  Mass of Ions in am
   POMASS =  32.07207.20
  Ionic Valenz
   ZVAL   =   6.00  4.00
  Atomic Wigner-Seitz radii
   RWIGS  =  -1.00 -1.00
  virtual crystal weights 
   VCA    =   1.00  1.00
   NELECT =      60.0000    total number of electrons
   NUPDOWN=      -1.0000    fix difference up-down

 DOS related values:
   EMIN   =  10.00;   EMAX   =-10.00  energy-range for DOS
   EFERMI =   0.00
   ISMEAR =     0;   SIGMA  =   0.10  broadening in eV -4-tet -1-fermi 0-gaus

 Electronic relaxation 2 (details)
   IALGO  =     38    algorithm
   LDIAG  =      T    sub-space diagonalisation (order eigenvalues)
   LSUBROT=      F    optimize rotation matrix (better conditioning)
   TURBO    =      0    0=normal 1=particle mesh
   IRESTART =      0    0=no restart 2=restart with 2 vectors
   NREBOOT  =      0    no. of reboots
   NMIN     =      0    reboot dimension
   EREF     =   0.00    reference energy to select bands
   IMIX   =      4    mixing-type and parameters
     AMIX     =   0.40;   BMIX     =  1.00
     AMIX_MAG =   1.60;   BMIX_MAG =  1.00
     AMIN     =   0.10
     WC   =   100.;   INIMIX=   1;  MIXPRE=   1;  MAXMIX= -45

 Intra band minimization:
   WEIMIN = 0.0010     energy-eigenvalue tresh-hold
   EBREAK =  0.13E-10  absolut break condition
   DEPER  =   0.30     relativ break condition  

   TIME   =   0.40     timestep for ELM

  volume/ion in A,a.u.               =      82.32       555.49
  Fermi-wavevector in a.u.,A,eV,Ry     =   0.643533  1.216102  5.634651  0.414135
  Thomas-Fermi vector in A             =   1.710564
 
 Write flags
   LWAVE        =      T    write WAVECAR
   LDOWNSAMPLE  =      F    k-point downsampling of WAVECAR
   LCHARG       =      T    write CHGCAR
   LVTOT        =      F    write LOCPOT, total local potential
   LVHAR        =      F    write LOCPOT, Hartree potential only
   LELF         =      F    write electronic localiz. function (ELF)
   LORBIT       =      0    0 simple, 1 ext, 2 COOP (PROOUT), +10 PAW based schemes


 Dipole corrections
   LMONO  =      F    monopole corrections only (constant potential shift)
   LDIPOL =      T    correct potential (dipole corrections)
   IDIPOL =      3    1-x, 2-y, 3-z, 4-all directions 
   EPSILON=  1.0000000 bulk dielectric constant

 Exchange correlation treatment:
   GGA     =    PE    GGA type
   LEXCH   =     8    internal setting for exchange type
   VOSKOWN=      0    Vosko Wilk Nusair interpolation
   LHFCALC =     F    Hartree Fock is set to
   LHFONE  =     F    Hartree Fock one center treatment
   AEXX    =    0.0000 exact exchange contribution

 Linear response parameters
   LEPSILON=     F    determine dielectric tensor
   LRPA    =     F    only Hartree local field effects (RPA)
   LNABLA  =     F    use nabla operator in PAW spheres
   LVEL    =     F    velocity operator in full k-point grid
   LINTERFAST=   F  fast interpolation
   KINTER  =     0    interpolate to denser k-point grid
   CSHIFT  =0.1000    complex shift for real part using Kramers Kronig
   OMEGAMAX=  -1.0    maximum frequency
   DEG_THRESHOLD= 0.2000000E-02 threshold for treating states as degnerate
   RTIME   =   -0.100 relaxation time in fs
  (WPLASMAI=    0.000 imaginary part of plasma frequency in eV, 0.658/RTIME)
   DFIELD  = 0.0000000 0.0000000 0.0000000 field for delta impulse in time
 
 Orbital magnetization related:
   ORBITALMAG=     F  switch on orbital magnetization
   LCHIMAG   =     F  perturbation theory with respect to B field
   DQ        =  0.001000  dq finite difference perturbation B field
   LLRAUG    =     F  two centre corrections for induced B field

 PEAD related settings:
   LPEAD      =     T    switch on PEAD
   IPEAD      =     4    finite difference order for dpsi/dk
   LCALCPOL   =     F    calculate macroscopic polarization
   LCALCEPS   =     T    calculate dielectric tensor
   EFIELD_PEAD=    0.0100    0.0100    0.0100
   SKIP_EDOTP =     F
   LRPA       =     F
   SKIP_SCF   =     F


--------------------------------------------------------------------------------------------------------


 finite differences
 charge density and potential will be updated during run
 non-spin polarized calculation
 Variant of blocked Davidson
 Davidson routine will perform the subspace rotation
 perform sub-space diagonalisation
    after iterative eigenvector-optimisation
 modified Broyden-mixing scheme, WC =      100.0
 initial mixing is a Kerker type mixing with AMIX =  0.4000 and BMIX =      1.0000
 Hartree-type preconditioning will be used
 using additional bands          162
 reciprocal scheme for non local part
 use partial core corrections
 calculate Harris-corrections to forces 
   (improved forces if not selfconsistent)
 use gradient corrections 
 use of overlap-Matrix (Vanderbilt PP)
 Gauss-broadening in eV      SIGMA  =   0.10


--------------------------------------------------------------------------------------------------------


  energy-cutoff  :      600.00
  volume of cell :      987.79
      direct lattice vectors                 reciprocal lattice vectors
     4.182267013  0.000000000  0.000000000     0.239104772  0.000000000  0.000000000
     0.000000000  8.490762080  0.000000000     0.000000000  0.117775058  0.000000000
     0.000000000  0.000000000 27.816604850     0.000000000  0.000000000  0.035949750

  length of vectors
     4.182267013  8.490762080 27.816604850     0.239104772  0.117775058  0.035949750


 
 old parameters found on file WAVECAR:
  energy-cutoff  :      600.00
  volume of cell :      987.79
      direct lattice vectors                 reciprocal lattice vectors
     4.182267013  0.000000000  0.000000000     0.239104772  0.000000000  0.000000000
     0.000000000  8.490762080  0.000000000     0.000000000  0.117775058  0.000000000
     0.000000000  0.000000000 27.816604850     0.000000000  0.000000000  0.035949750

  length of vectors

 
 k-points in units of 2pi/SCALE and weight: K-Spacing Value to Generate K-Mesh: 0.02
   0.01195524  0.00000000  0.00000000       0.040
   0.03586572  0.00000000  0.00000000       0.040
   0.05977619  0.00000000  0.00000000       0.040
   0.08368667  0.00000000  0.00000000       0.040
   0.10759715  0.00000000  0.00000000       0.040
   0.01195524  0.02355501  0.00000000       0.040
   0.03586572  0.02355501  0.00000000       0.040
   0.05977619  0.02355501  0.00000000       0.040
   0.08368667  0.02355501  0.00000000       0.040
   0.10759715  0.02355501  0.00000000       0.040
  -0.10759715  0.02355501  0.00000000       0.040
  -0.08368667  0.02355501  0.00000000       0.040
  -0.05977619  0.02355501  0.00000000       0.040
  -0.03586572  0.02355501  0.00000000       0.040
  -0.01195524  0.02355501  0.00000000       0.040
   0.01195524  0.04711002  0.00000000       0.040
   0.03586572  0.04711002  0.00000000       0.040
   0.05977619  0.04711002  0.00000000       0.040
   0.08368667  0.04711002  0.00000000       0.040
   0.10759715  0.04711002  0.00000000       0.040
  -0.10759715  0.04711002  0.00000000       0.040
  -0.08368667  0.04711002  0.00000000       0.040
  -0.05977619  0.04711002  0.00000000       0.040
  -0.03586572  0.04711002  0.00000000       0.040
  -0.01195524  0.04711002  0.00000000       0.040
 
 k-points in reciprocal lattice and weights: K-Spacing Value to Generate K-Mesh: 0.02
   0.05000000  0.00000000  0.00000000       0.040
   0.15000000  0.00000000  0.00000000       0.040
   0.25000000  0.00000000  0.00000000       0.040
   0.35000000  0.00000000  0.00000000       0.040
   0.45000000  0.00000000  0.00000000       0.040
   0.05000000  0.20000000  0.00000000       0.040
   0.15000000  0.20000000  0.00000000       0.040
   0.25000000  0.20000000  0.00000000       0.040
   0.35000000  0.20000000  0.00000000       0.040
   0.45000000  0.20000000  0.00000000       0.040
  -0.45000000  0.20000000  0.00000000       0.040
  -0.35000000  0.20000000  0.00000000       0.040
  -0.25000000  0.20000000  0.00000000       0.040
  -0.15000000  0.20000000  0.00000000       0.040
  -0.05000000  0.20000000  0.00000000       0.040
   0.05000000  0.40000000  0.00000000       0.040
   0.15000000  0.40000000  0.00000000       0.040
   0.25000000  0.40000000  0.00000000       0.040
   0.35000000  0.40000000  0.00000000       0.040
   0.45000000  0.40000000  0.00000000       0.040
  -0.45000000  0.40000000  0.00000000       0.040
  -0.35000000  0.40000000  0.00000000       0.040
  -0.25000000  0.40000000  0.00000000       0.040
  -0.15000000  0.40000000  0.00000000       0.040
  -0.05000000  0.40000000  0.00000000       0.040
 
 position of ions in fractional coordinates (direct lattice) 
   0.49999997  0.38899424  0.60422389
   0.50000002  0.38899425  0.39577612
   0.49999997  0.88899425  0.39577612
   0.50000002  0.88899424  0.60422389
   1.00000000  0.65136464  0.50000000
   1.00000000  0.15136464  0.50000000
   0.99999974  0.16593870  0.60388564
   0.00000026  0.16593870  0.39611436
   0.99999974  0.66593870  0.39611436
   0.00000026  0.66593870  0.60388564
   0.50000000  0.40489164  0.50000000
   0.50000000  0.90489164  0.50000000
 
 position of ions in cartesian coordinates  (Angst):
   2.09113340  3.30285758 16.80745709
   2.09113361  3.30285763 11.00914783
   2.09113340  7.54823867 11.00914783
   2.09113361  7.54823862 16.80745709
   4.18226701  5.53058220 13.90830237
   4.18226701  1.28520116 13.90830237
   4.18226592  1.40894605 16.79804829
   0.00000108  1.40894606 11.01855657
   4.18226592  5.65432710 11.01855657
   0.00000108  5.65432709 16.79804829
   2.09113350  3.43783856 13.90830241
   2.09113350  7.68321960 13.90830241
 


--------------------------------------------------------------------------------------------------------


 k-point  1 :   0.0500 0.0000 0.0000  plane waves:   32967
 k-point  2 :   0.1500 0.0000 0.0000  plane waves:   32949
 k-point  3 :   0.2500 0.0000 0.0000  plane waves:   32943
 k-point  4 :   0.3500 0.0000 0.0000  plane waves:   32919
 k-point  5 :   0.4500 0.0000 0.0000  plane waves:   32956
 k-point  6 :   0.0500 0.2000 0.0000  plane waves:   32999
 k-point  7 :   0.1500 0.2000 0.0000  plane waves:   32983
 k-point  8 :   0.2500 0.2000 0.0000  plane waves:   32970
 k-point  9 :   0.3500 0.2000 0.0000  plane waves:   32937
 k-point 10 :   0.4500 0.2000 0.0000  plane waves:   32938
 k-point 11 :  -0.4500 0.2000 0.0000  plane waves:   32938
 k-point 12 :  -0.3500 0.2000 0.0000  plane waves:   32937
 k-point 13 :  -0.2500 0.2000 0.0000  plane waves:   32970
 k-point 14 :  -0.1500 0.2000 0.0000  plane waves:   32983
 k-point 15 :  -0.0500 0.2000 0.0000  plane waves:   32999
 k-point 16 :   0.0500 0.4000 0.0000  plane waves:   33023
 k-point 17 :   0.1500 0.4000 0.0000  plane waves:   33002
 k-point 18 :   0.2500 0.4000 0.0000  plane waves:   32973
 k-point 19 :   0.3500 0.4000 0.0000  plane waves:   32930
 k-point 20 :   0.4500 0.4000 0.0000  plane waves:   32938
 k-point 21 :  -0.4500 0.4000 0.0000  plane waves:   32938
 k-point 22 :  -0.3500 0.4000 0.0000  plane waves:   32930
 k-point 23 :  -0.2500 0.4000 0.0000  plane waves:   32973
 k-point 24 :  -0.1500 0.4000 0.0000  plane waves:   33002
 k-point 25 :  -0.0500 0.4000 0.0000  plane waves:   33023

 maximum and minimum number of plane-waves per node :     33023    32919

 maximum number of plane-waves:     33023
 maximum index in each direction: 
   IXMAX=    8   IYMAX=   16   IZMAX=   55
   IXMIN=   -8   IYMIN=  -17   IZMIN=  -55


 serial   3D FFT for wavefunctions
 parallel 3D FFT for charge:
    minimum data exchange during FFTs selected (reduces bandwidth)


 total amount of memory used by VASP MPI-rank0   251757. kBytes
=======================================================================

   base      :      30000. kBytes
   nonl-proj :     178065. kBytes
   fftplans  :       4166. kBytes
   grid      :      26143. kBytes
   one-center:         97. kBytes
   wavefun   :      13286. kBytes
 
     INWAV:  cpu time   14.4432: real time   14.5152
 Broyden mixing: mesh for mixing (old mesh)
   NGX = 17   NGY = 33   NGZ =111
  (NGX  = 72   NGY  =140   NGZ  =448)
  gives a total of  62271 points

 initial charge density was supplied:
 number of electron      60.0000003 magnetization 
 keeping initial charge density in first step


--------------------------------------------------------------------------------------------------------


 Maximum index for augmentation-charges         1857 (set IRDMAX)


--------------------------------------------------------------------------------------------------------


 First call to EWALD:  gamma=   0.178
 Maximum number of real-space cells 6x 3x 1
 Maximum number of reciprocal cells 1x 2x 7

    FEWALD:  cpu time    0.0016: real time    0.0019


--------------------------------------- Iteration      1(   1)  ---------------------------------------


    POTLOK:  cpu time    0.0504: real time    0.1317
    SETDIJ:  cpu time    0.0057: real time    0.0059
     EDDAV:  cpu time   13.7464: real time   13.7671
       DOS:  cpu time    0.0020: real time    0.0021
    CHARGE:  cpu time    0.3824: real time    0.3829
    MIXING:  cpu time    0.0009: real time    0.0009
    --------------------------------------------
      LOOP:  cpu time   14.1878: real time   14.2907

 eigenvalue-minimisations  :  9600
 total energy-change (2. order) :-0.5179095E+02  (-0.1124980E-05)
 number of electron      60.0000003 magnetization 
 augmentation part      -12.8396518 magnetization 

 DIPCOR: dipole corrections for dipol
 direction  3 min pos     1,
 dipolmoment           0.000000      0.000000      0.000000 electrons x Angstroem
 Tr[quadrupol]      -451.030246

 energy correction for charged system         0.000000 eV
 dipol+quadrupol energy correction           -0.000000 eV
 added-field ion interaction         -0.000000 eV  (added to PSCEN)


 Broyden mixing:
  rms(total) = 0.18831E-03    rms(broyden)= 0.18831E-03
  rms(prec ) = 0.20267E-03
  weight for this iteration     100.00

 Free energy of the ion-electron system (eV)
  ---------------------------------------------------
  alpha Z        PSCENC =        17.47731182
  Ewald energy   TEWEN  =      8437.36301691
  -Hartree energ DENC   =    -10460.20945409
  -exchange      EXHF   =         0.00000000
  -V(xc)+E(xc)   XCENC  =      -698.35761545
  PAW double counting   =      4446.63623701    -3624.41689938
  entropy T*S    EENTRO =        -0.00000000
  eigenvalues    EBANDS =      -413.13700935
  atomic energy  EATOM  =      2242.85346269
  Solvation  Ediel_sol  =         0.00000000
  ---------------------------------------------------
  free energy    TOTEN  =       -51.79094985 eV

  energy without entropy =      -51.79094985  energy(sigma->0) =      -51.79094985


--------------------------------------------------------------------------------------------------------




--------------------------------------- Iteration      1(   2)  ---------------------------------------


    POTLOK:  cpu time    0.0451: real time    0.0452
    SETDIJ:  cpu time    0.0033: real time    0.0033
     EDDAV:  cpu time   28.7738: real time   28.8088
       DOS:  cpu time    0.0012: real time    0.0012
    CHARGE:  cpu time    0.3727: real time    0.3731
    MIXING:  cpu time    0.0006: real time    0.0006
    --------------------------------------------
      LOOP:  cpu time   29.1968: real time   29.2322

 eigenvalue-minimisations  : 14400
 total energy-change (2. order) : 0.7507751E-03  (-0.1078918E-05)
 number of electron      60.0000003 magnetization 
 augmentation part      -12.8396842 magnetization 

 DIPCOR: dipole corrections for dipol
 direction  3 min pos     1,
 dipolmoment           0.000000      0.000000      0.000000 electrons x Angstroem
 Tr[quadrupol]      -451.029647

 energy correction for charged system         0.000000 eV
 dipol+quadrupol energy correction           -0.000000 eV
 added-field ion interaction         -0.000000 eV  (added to PSCEN)


 Broyden mixing:
  rms(total) = 0.68514E-04    rms(broyden)= 0.68514E-04
  rms(prec ) = 0.74672E-04
  weight for this iteration     100.00

 eigenvalues of (default mixing * dielectric matrix)
  average eigenvalue GAMMA=   0.7757
  0.7757

 Free energy of the ion-electron system (eV)
  ---------------------------------------------------
  alpha Z        PSCENC =        17.47731182
  Ewald energy   TEWEN  =      8437.36301691
  -Hartree energ DENC   =    -10460.20253135
  -exchange      EXHF   =         0.00000000
  -V(xc)+E(xc)   XCENC  =      -698.35763082
  PAW double counting   =      4446.67175480    -3624.45303769
  entropy T*S    EENTRO =        -0.00000000
  eigenvalues    EBANDS =      -413.14254543
  atomic energy  EATOM  =      2242.85346269
  Solvation  Ediel_sol  =         0.00000000
  ---------------------------------------------------
  free energy    TOTEN  =       -51.79019907 eV

  energy without entropy =      -51.79019907  energy(sigma->0) =      -51.79019907


--------------------------------------------------------------------------------------------------------




--------------------------------------- Iteration      1(   3)  ---------------------------------------


    POTLOK:  cpu time    0.0434: real time    0.0435
    SETDIJ:  cpu time    0.0033: real time    0.0033
     EDDAV:  cpu time   14.0214: real time   14.0411
       DOS:  cpu time    0.0010: real time    0.0010
    CHARGE:  cpu time    0.4079: real time    0.4084
    MIXING:  cpu time    0.0005: real time    0.0005
    --------------------------------------------
      LOOP:  cpu time   14.4775: real time   14.4978

 eigenvalue-minimisations  :  9600
 total energy-change (2. order) : 0.1916032E-07  (-0.1157681E-07)
 number of electron      60.0000003 magnetization 
 augmentation part      -12.8396890 magnetization 

 DIPCOR: dipole corrections for dipol
 direction  3 min pos     1,
 dipolmoment           0.000000      0.000000      0.000000 electrons x Angstroem
 Tr[quadrupol]      -451.029425

 energy correction for charged system         0.000000 eV
 dipol+quadrupol energy correction           -0.000000 eV
 added-field ion interaction         -0.000000 eV  (added to PSCEN)


 Broyden mixing:
  rms(total) = 0.49620E-04    rms(broyden)= 0.49620E-04
  rms(prec ) = 0.52302E-04
  weight for this iteration     100.00

 eigenvalues of (default mixing * dielectric matrix)
  average eigenvalue GAMMA=   0.9350
  0.9350  0.9350

 Free energy of the ion-electron system (eV)
  ---------------------------------------------------
  alpha Z        PSCENC =        17.47731182
  Ewald energy   TEWEN  =      8437.36301691
  -Hartree energ DENC   =    -10460.20028436
  -exchange      EXHF   =         0.00000000
  -V(xc)+E(xc)   XCENC  =      -698.35760396
  PAW double counting   =      4446.66876819    -3624.45004234
  entropy T*S    EENTRO =        -0.00000000
  eigenvalues    EBANDS =      -413.14482800
  atomic energy  EATOM  =      2242.85346269
  Solvation  Ediel_sol  =         0.00000000
  ---------------------------------------------------
  free energy    TOTEN  =       -51.79019906 eV

  energy without entropy =      -51.79019906  energy(sigma->0) =      -51.79019906


--------------------------------------------------------------------------------------------------------




--------------------------------------- Iteration      1(   4)  ---------------------------------------


    POTLOK:  cpu time    0.0435: real time    0.0438
    SETDIJ:  cpu time    0.0033: real time    0.0033
     EDDAV:  cpu time   52.2270: real time   52.2825
       DOS:  cpu time    0.0009: real time    0.0010
    CHARGE:  cpu time    0.3835: real time    0.3839
    MIXING:  cpu time    0.0006: real time    0.0006
    --------------------------------------------
      LOOP:  cpu time   52.6588: real time   52.7150

 eigenvalue-minimisations  : 19200
 total energy-change (2. order) : 0.1484659E-07  (-0.4640012E-09)
 number of electron      60.0000003 magnetization 
 augmentation part      -12.8396936 magnetization 

 DIPCOR: dipole corrections for dipol
 direction  3 min pos     1,
 dipolmoment           0.000000      0.000000      0.000000 electrons x Angstroem
 Tr[quadrupol]      -451.029270

 energy correction for charged system         0.000000 eV
 dipol+quadrupol energy correction           -0.000000 eV
 added-field ion interaction         -0.000000 eV  (added to PSCEN)


 Broyden mixing:
  rms(total) = 0.31104E-04    rms(broyden)= 0.31104E-04
  rms(prec ) = 0.32697E-04
  weight for this iteration     100.00

 eigenvalues of (default mixing * dielectric matrix)
  average eigenvalue GAMMA=   1.0796
  0.7765  1.2311  1.2311

 Free energy of the ion-electron system (eV)
  ---------------------------------------------------
  alpha Z        PSCENC =        17.47731182
  Ewald energy   TEWEN  =      8437.36301691
  -Hartree energ DENC   =    -10460.19844829
  -exchange      EXHF   =         0.00000000
  -V(xc)+E(xc)   XCENC  =      -698.35760764
  PAW double counting   =      4446.66161175    -3624.44287477
  entropy T*S    EENTRO =        -0.00000000
  eigenvalues    EBANDS =      -413.14667150
  atomic energy  EATOM  =      2242.85346269
  Solvation  Ediel_sol  =         0.00000000
  ---------------------------------------------------
  free energy    TOTEN  =       -51.79019904 eV

  energy without entropy =      -51.79019904  energy(sigma->0) =      -51.79019904


--------------------------------------------------------------------------------------------------------




--------------------------------------- Iteration      1(   5)  ---------------------------------------


    POTLOK:  cpu time    0.0439: real time    0.0439
    SETDIJ:  cpu time    0.0033: real time    0.0033
     EDDAV:  cpu time   14.0672: real time   14.0883
       DOS:  cpu time    0.0009: real time    0.0009
    --------------------------------------------
      LOOP:  cpu time   14.1152: real time   14.1363

 eigenvalue-minimisations  :  9600
 total energy-change (2. order) : 0.6770733E-08  ( 0.1486674E-09)
 number of electron      60.0000003 magnetization 
 augmentation part      -12.8396936 magnetization 

 DIPCOR: dipole corrections for dipol
 direction  3 min pos     1,
 dipolmoment           0.000000      0.000000      0.000000 electrons x Angstroem
 Tr[quadrupol]      -451.029151

 energy correction for charged system         0.000000 eV
 dipol+quadrupol energy correction           -0.000000 eV
 added-field ion interaction         -0.000000 eV  (added to PSCEN)


 Free energy of the ion-electron system (eV)
  ---------------------------------------------------
  alpha Z        PSCENC =        17.47731182
  Ewald energy   TEWEN  =      8437.36301691
  -Hartree energ DENC   =    -10460.19696958
  -exchange      EXHF   =         0.00000000
  -V(xc)+E(xc)   XCENC  =      -698.35761820
  PAW double counting   =      4446.65878867    -3624.44004088
  entropy T*S    EENTRO =        -0.00000000
  eigenvalues    EBANDS =      -413.14815044
  atomic energy  EATOM  =      2242.85346269
  Solvation  Ediel_sol  =         0.00000000
  ---------------------------------------------------
  free energy    TOTEN  =       -51.79019903 eV

  energy without entropy =      -51.79019903  energy(sigma->0) =      -51.79019903


--------------------------------------------------------------------------------------------------------




 average (electrostatic) potential at core
  the test charge radii are     0.9698  1.4908
  (the norm of the test charge is              1.0000)
       1 -92.3214       2 -92.3214       3 -92.3214       4 -92.3214       5 -92.8651
       6 -92.8651       7 -49.2057       8 -49.2057       9 -49.2057      10 -49.2057
      11 -48.9541      12 -48.9541
 
 
 
 E-fermi :  -1.3039     XC(G=0):  -3.4834     alpha+bet : -3.0813


 k-point     1 :       0.0500    0.0000    0.0000
  band No.  band energies     occupation 
      1     -14.8586      2.00000
      2     -14.0760      2.00000
      3     -14.0157      2.00000
      4     -13.5413      2.00000
      5     -13.5106      2.00000
      6     -13.4531      2.00000
      7     -10.0366      2.00000
      8      -9.9011      2.00000
      9      -9.5398      2.00000
     10      -8.7968      2.00000
     11      -8.5428      2.00000
     12      -7.7261      2.00000
     13      -5.6522      2.00000
     14      -4.7186      2.00000
     15      -4.6207      2.00000
     16      -4.5946      2.00000
     17      -4.1242      2.00000
     18      -3.9387      2.00000
     19      -3.8823      2.00000
     20      -3.6238      2.00000
     21      -3.5716      2.00000
     22      -3.5418      2.00000
     23      -3.3296      2.00000
     24      -3.2849      2.00000
     25      -3.1810      2.00000
     26      -3.0344      2.00000
     27      -2.9283      2.00000
     28      -2.0345      2.00000
     29      -1.8556      2.00000
     30      -1.8383      2.00000
     31      -0.5884      0.00000
     32      -0.3641      0.00000
     33       0.0738      0.00000
     34       0.2793      0.00000
     35       0.7419      0.00000
     36       0.8514      0.00000
     37       0.9939      0.00000
     38       1.0778      0.00000
     39       1.4187      0.00000
     40       1.4542      0.00000
     41       2.2195      0.00000
     42       2.4415      0.00000
     43       2.4957      0.00000
     44       2.7363      0.00000
     45       2.8244      0.00000
     46       3.0116      0.00000
     47       3.1648      0.00000
     48       3.2837      0.00000
     49       3.4859      0.00000
     50       3.6901      0.00000
     51       3.8947      0.00000
     52       4.0061      0.00000
     53       4.1228      0.00000
     54       4.1694      0.00000
     55       4.2030      0.00000
     56       4.3326      0.00000
     57       4.4593      0.00000
     58       4.5038      0.00000
     59       4.6799      0.00000
     60       4.9776      0.00000
     61       5.0727      0.00000
     62       5.2526      0.00000
     63       5.3718      0.00000
     64       5.5319      0.00000
     65       5.6822      0.00000
     66       6.0439      0.00000
     67       6.1100      0.00000
     68       6.1460      0.00000
     69       6.2081      0.00000
     70       6.3627      0.00000
     71       6.4285      0.00000
     72       6.6610      0.00000
     73       7.3366      0.00000
     74       7.4350      0.00000
     75       7.5697      0.00000
     76       7.6195      0.00000
     77       7.6523      0.00000
     78       7.9002      0.00000
     79       7.9796      0.00000
     80       7.9897      0.00000
     81       8.0471      0.00000
     82       8.1102      0.00000
     83       8.1378      0.00000
     84       8.1716      0.00000
     85       8.2909      0.00000
     86       8.4263      0.00000
     87       8.5449      0.00000
     88       8.5482      0.00000
     89       8.5743      0.00000
     90       8.7152      0.00000
     91       8.7473      0.00000
     92       8.9229      0.00000
     93       9.1240      0.00000
     94       9.1753      0.00000
     95       9.2992      0.00000
     96       9.6226      0.00000
     97       9.6379      0.00000
     98       9.7239      0.00000
     99       9.7562      0.00000
    100       9.7706      0.00000
    101       9.7913      0.00000
    102      10.0095      0.00000
    103      10.0364      0.00000
    104      10.2835      0.00000
    105      10.3207      0.00000
    106      10.4473      0.00000
    107      10.5443      0.00000
    108      10.6558      0.00000
    109      10.7054      0.00000
    110      10.7080      0.00000
    111      10.8175      0.00000
    112      10.8660      0.00000
    113      11.0190      0.00000
    114      11.0500      0.00000
    115      11.0816      0.00000
    116      11.1096      0.00000
    117      11.1717      0.00000
    118      11.2660      0.00000
    119      11.3193      0.00000
    120      11.3886      0.00000
    121      11.7106      0.00000
    122      11.7569      0.00000
    123      11.8220      0.00000
    124      11.9550      0.00000
    125      12.0002      0.00000
    126      12.0357      0.00000
    127      12.0618      0.00000
    128      12.1881      0.00000
    129      12.2529      0.00000
    130      12.3188      0.00000
    131      12.3669      0.00000
    132      12.4447      0.00000
    133      12.6257      0.00000
    134      12.7106      0.00000
    135      12.7184      0.00000
    136      12.7368      0.00000
    137      12.7547      0.00000
    138      12.8268      0.00000
    139      12.8481      0.00000
    140      12.8542      0.00000
    141      12.8604      0.00000
    142      13.0124      0.00000
    143      13.0188      0.00000
    144      13.0657      0.00000
    145      13.1952      0.00000
    146      13.4515      0.00000
    147      13.5421      0.00000
    148      13.6918      0.00000
    149      13.7141      0.00000
    150      13.7412      0.00000
    151      13.7571      0.00000
    152      13.8209      0.00000
    153      13.8304      0.00000
    154      13.8342      0.00000
    155      13.8879      0.00000
    156      13.9845      0.00000
    157      14.0210      0.00000
    158      14.0249      0.00000
    159      14.1195      0.00000
    160      14.2188      0.00000
    161      14.2729      0.00000
    162      14.3546      0.00000
    163      14.3615      0.00000
    164      14.3626      0.00000
    165      14.4167      0.00000
    166      14.4748      0.00000
    167      14.4799      0.00000
    168      14.5589      0.00000
    169      14.6297      0.00000
    170      14.6635      0.00000
    171      14.8233      0.00000
    172      14.8996      0.00000
    173      14.9336      0.00000
    174      14.9547      0.00000
    175      15.0803      0.00000
    176      15.2016      0.00000
    177      15.2726      0.00000
    178      15.3747      0.00000
    179      15.4564      0.00000
    180      15.4926      0.00000
    181      15.5160      0.00000
    182      15.5217      0.00000
    183      15.5594      0.00000
    184      15.6093      0.00000
    185      15.6366      0.00000
    186      15.6447      0.00000
    187      15.6936      0.00000
    188      15.7806      0.00000
    189      15.8831      0.00000
    190      15.9447      0.00000
    191      15.9756      0.00000
    192      15.9868      0.00000

 k-point     2 :       0.1500    0.0000    0.0000
  band No.  band energies     occupation 
      1     -14.7525      2.00000
      2     -14.0162      2.00000
      3     -13.9189      2.00000
      4     -13.4942      2.00000
      5     -13.4446      2.00000
      6     -13.3854      2.00000
      7      -9.9344      2.00000
      8      -9.7693      2.00000
      9      -9.4378      2.00000
     10      -9.0822      2.00000
     11      -8.8501      2.00000
     12      -8.0742      2.00000
     13      -5.5543      2.00000
     14      -4.5669      2.00000
     15      -4.5605      2.00000
     16      -4.4385      2.00000
     17      -4.3798      2.00000
     18      -4.1281      2.00000
     19      -4.0951      2.00000
     20      -3.9521      2.00000
     21      -3.8029      2.00000
     22      -3.6646      2.00000
     23      -3.4605      2.00000
     24      -3.3283      2.00000
     25      -3.2621      2.00000
     26      -3.0310      2.00000
     27      -2.9584      2.00000
     28      -2.6274      2.00000
     29      -2.5603      2.00000
     30      -2.2593      2.00000
     31      -0.3433      0.00000
     32       0.4682      0.00000
     33       0.5394      0.00000
     34       0.7667      0.00000
     35       0.8775      0.00000
     36       0.9116      0.00000
     37       1.4096      0.00000
     38       1.8811      0.00000
     39       2.0193      0.00000
     40       2.2164      0.00000
     41       2.2626      0.00000
     42       2.3186      0.00000
     43       2.3747      0.00000
     44       2.4371      0.00000
     45       2.6874      0.00000
     46       2.7771      0.00000
     47       2.7884      0.00000
     48       2.9855      0.00000
     49       3.1859      0.00000
     50       3.4300      0.00000
     51       3.5032      0.00000
     52       3.9839      0.00000
     53       4.1413      0.00000
     54       4.2318      0.00000
     55       4.3295      0.00000
     56       4.4894      0.00000
     57       4.6636      0.00000
     58       4.6989      0.00000
     59       4.8269      0.00000
     60       5.1357      0.00000
     61       5.2368      0.00000
     62       5.3210      0.00000
     63       5.4235      0.00000
     64       5.5239      0.00000
     65       5.5843      0.00000
     66       5.9028      0.00000
     67       5.9713      0.00000
     68       6.1725      0.00000
     69       6.2293      0.00000
     70       6.2328      0.00000
     71       6.3588      0.00000
     72       6.4921      0.00000
     73       7.1138      0.00000
     74       7.1939      0.00000
     75       7.4548      0.00000
     76       7.5765      0.00000
     77       7.5782      0.00000
     78       7.7115      0.00000
     79       8.0428      0.00000
     80       8.1741      0.00000
     81       8.3003      0.00000
     82       8.4626      0.00000
     83       8.6139      0.00000
     84       8.6392      0.00000
     85       8.6596      0.00000
     86       8.7267      0.00000
     87       8.7271      0.00000
     88       8.8920      0.00000
     89       8.9930      0.00000
     90       9.0425      0.00000
     91       9.0730      0.00000
     92       9.0875      0.00000
     93       9.1353      0.00000
     94       9.3090      0.00000
     95       9.3170      0.00000
     96       9.3915      0.00000
     97       9.5514      0.00000
     98       9.6355      0.00000
     99       9.7515      0.00000
    100       9.7985      0.00000
    101       9.9123      0.00000
    102       9.9773      0.00000
    103      10.0807      0.00000
    104      10.1020      0.00000
    105      10.1692      0.00000
    106      10.3566      0.00000
    107      10.4661      0.00000
    108      10.4973      0.00000
    109      10.5770      0.00000
    110      10.6483      0.00000
    111      10.7433      0.00000
    112      10.7856      0.00000
    113      10.8431      0.00000
    114      10.8784      0.00000
    115      10.8831      0.00000
    116      10.9339      0.00000
    117      11.0412      0.00000
    118      11.0627      0.00000
    119      11.0866      0.00000
    120      11.2335      0.00000
    121      11.2378      0.00000
    122      11.3074      0.00000
    123      11.3205      0.00000
    124      11.3846      0.00000
    125      11.4435      0.00000
    126      11.5506      0.00000
    127      11.7446      0.00000
    128      11.7644      0.00000
    129      11.8410      0.00000
    130      12.0054      0.00000
    131      12.1137      0.00000
    132      12.1173      0.00000
    133      12.2237      0.00000
    134      12.3409      0.00000
    135      12.3692      0.00000
    136      12.4886      0.00000
    137      12.5477      0.00000
    138      12.6709      0.00000
    139      12.8280      0.00000
    140      12.8384      0.00000
    141      12.8914      0.00000
    142      12.9090      0.00000
    143      12.9680      0.00000
    144      13.1423      0.00000
    145      13.1732      0.00000
    146      13.1963      0.00000
    147      13.2318      0.00000
    148      13.3965      0.00000
    149      13.6097      0.00000
    150      13.6657      0.00000
    151      13.7439      0.00000
    152      13.7886      0.00000
    153      13.8378      0.00000
    154      13.8434      0.00000
    155      13.9478      0.00000
    156      13.9582      0.00000
    157      14.0531      0.00000
    158      14.0560      0.00000
    159      14.1713      0.00000
    160      14.2657      0.00000
    161      14.3290      0.00000
    162      14.3615      0.00000
    163      14.4313      0.00000
    164      14.5770      0.00000
    165      14.6006      0.00000
    166      14.6794      0.00000
    167      14.6833      0.00000
    168      14.8863      0.00000
    169      14.9272      0.00000
    170      14.9541      0.00000
    171      14.9720      0.00000
    172      15.0906      0.00000
    173      15.3093      0.00000
    174      15.3410      0.00000
    175      15.4310      0.00000
    176      15.4398      0.00000
    177      15.5745      0.00000
    178      15.6466      0.00000
    179      15.6697      0.00000
    180      15.7229      0.00000
    181      15.7377      0.00000
    182      15.7858      0.00000
    183      15.8966      0.00000
    184      15.9001      0.00000
    185      16.1325      0.00000
    186      16.2542      0.00000
    187      16.2634      0.00000
    188      16.2679      0.00000
    189      16.3202      0.00000
    190      16.3795      0.00000
    191      16.4491      0.00000
    192      16.5323      0.00000

 k-point     3 :       0.2500    0.0000    0.0000
  band No.  band energies     occupation 
      1     -14.5546      2.00000
      2     -13.9151      2.00000
      3     -13.7444      2.00000
      4     -13.4301      2.00000
      5     -13.3320      2.00000
      6     -13.2701      2.00000
      7      -9.7520      2.00000
      8      -9.5221      2.00000
      9      -9.4810      2.00000
     10      -9.3314      2.00000
     11      -9.2553      2.00000
     12      -8.6091      2.00000
     13      -5.3366      2.00000
     14      -5.3023      2.00000
     15      -5.0020      2.00000
     16      -4.7830      2.00000
     17      -4.5334      2.00000
     18      -4.2805      2.00000
     19      -4.0391      2.00000
     20      -3.9958      2.00000
     21      -3.9664      2.00000
     22      -3.5841      2.00000
     23      -3.5416      2.00000
     24      -3.4880      2.00000
     25      -3.4034      2.00000
     26      -3.2763      2.00000
     27      -3.0042      2.00000
     28      -2.8563      2.00000
     29      -2.5679      2.00000
     30      -2.4430      2.00000
     31      -0.0492      0.00000
     32       0.1237      0.00000
     33       0.8877      0.00000
     34       1.2952      0.00000
     35       1.4250      0.00000
     36       1.4361      0.00000
     37       1.6629      0.00000
     38       1.8487      0.00000
     39       1.8638      0.00000
     40       1.8888      0.00000
     41       2.0571      0.00000
     42       2.1202      0.00000
     43       2.6450      0.00000
     44       2.6673      0.00000
     45       2.7573      0.00000
     46       2.9606      0.00000
     47       2.9684      0.00000
     48       3.0336      0.00000
     49       3.2034      0.00000
     50       3.2309      0.00000
     51       3.5077      0.00000
     52       3.9187      0.00000
     53       4.1848      0.00000
     54       4.5663      0.00000
     55       4.7733      0.00000
     56       4.8135      0.00000
     57       4.9244      0.00000
     58       4.9564      0.00000
     59       5.1724      0.00000
     60       5.2458      0.00000
     61       5.3879      0.00000
     62       5.4434      0.00000
     63       5.5394      0.00000
     64       5.5452      0.00000
     65       6.0395      0.00000
     66       6.1226      0.00000
     67       6.1908      0.00000
     68       6.2039      0.00000
     69       6.2984      0.00000
     70       6.4724      0.00000
     71       6.4906      0.00000
     72       6.5938      0.00000
     73       6.9239      0.00000
     74       7.0636      0.00000
     75       7.0901      0.00000
     76       7.0908      0.00000
     77       7.6019      0.00000
     78       7.7072      0.00000
     79       7.7807      0.00000
     80       7.9256      0.00000
     81       8.1232      0.00000
     82       8.1287      0.00000
     83       8.3909      0.00000
     84       8.4106      0.00000
     85       8.5157      0.00000
     86       8.5243      0.00000
     87       8.7860      0.00000
     88       8.9433      0.00000
     89       9.0351      0.00000
     90       9.0988      0.00000
     91       9.1715      0.00000
     92       9.2006      0.00000
     93       9.2181      0.00000
     94       9.4107      0.00000
     95       9.4703      0.00000
     96       9.4862      0.00000
     97       9.6047      0.00000
     98       9.6287      0.00000
     99       9.7490      0.00000
    100       9.8368      0.00000
    101       9.8654      0.00000
    102       9.9238      0.00000
    103       9.9466      0.00000
    104      10.0186      0.00000
    105      10.1456      0.00000
    106      10.1692      0.00000
    107      10.2767      0.00000
    108      10.4405      0.00000
    109      10.4527      0.00000
    110      10.5063      0.00000
    111      10.6623      0.00000
    112      10.6842      0.00000
    113      10.7568      0.00000
    114      10.7614      0.00000
    115      10.8281      0.00000
    116      10.8861      0.00000
    117      10.9074      0.00000
    118      10.9468      0.00000
    119      11.1505      0.00000
    120      11.1657      0.00000
    121      11.2279      0.00000
    122      11.3151      0.00000
    123      11.3188      0.00000
    124      11.3847      0.00000
    125      11.4625      0.00000
    126      11.6269      0.00000
    127      11.6780      0.00000
    128      11.6877      0.00000
    129      11.7214      0.00000
    130      11.7417      0.00000
    131      11.8688      0.00000
    132      11.9366      0.00000
    133      12.1032      0.00000
    134      12.2142      0.00000
    135      12.2740      0.00000
    136      12.3110      0.00000
    137      12.3446      0.00000
    138      12.4417      0.00000
    139      12.5442      0.00000
    140      12.5966      0.00000
    141      12.7942      0.00000
    142      12.8193      0.00000
    143      12.8239      0.00000
    144      12.8844      0.00000
    145      12.9562      0.00000
    146      13.0744      0.00000
    147      13.0968      0.00000
    148      13.2626      0.00000
    149      13.3569      0.00000
    150      13.3965      0.00000
    151      13.5129      0.00000
    152      13.5524      0.00000
    153      13.6177      0.00000
    154      13.7436      0.00000
    155      13.7599      0.00000
    156      13.8600      0.00000
    157      13.8823      0.00000
    158      13.8912      0.00000
    159      13.9308      0.00000
    160      14.1262      0.00000
    161      14.2303      0.00000
    162      14.4488      0.00000
    163      14.5831      0.00000
    164      14.6568      0.00000
    165      14.6750      0.00000
    166      14.7165      0.00000
    167      14.8342      0.00000
    168      15.0061      0.00000
    169      15.0365      0.00000
    170      15.1077      0.00000
    171      15.2716      0.00000
    172      15.2746      0.00000
    173      15.3572      0.00000
    174      15.3587      0.00000
    175      15.3870      0.00000
    176      15.4372      0.00000
    177      15.6063      0.00000
    178      15.6486      0.00000
    179      15.6867      0.00000
    180      15.8678      0.00000
    181      15.9201      0.00000
    182      15.9505      0.00000
    183      15.9629      0.00000
    184      15.9931      0.00000
    185      16.0143      0.00000
    186      16.0397      0.00000
    187      16.1008      0.00000
    188      16.1194      0.00000
    189      16.2104      0.00000
    190      16.2909      0.00000
    191      16.4019      0.00000
    192      16.4291      0.00000

 k-point     4 :       0.3500    0.0000    0.0000
  band No.  band energies     occupation 
      1     -14.3018      2.00000
      2     -13.8080      2.00000
      3     -13.5393      2.00000
      4     -13.4045      2.00000
      5     -13.2109      2.00000
      6     -13.1461      2.00000
      7      -9.8110      2.00000
      8      -9.7872      2.00000
      9      -9.5426      2.00000
     10      -9.2081      2.00000
     11      -9.1637      2.00000
     12      -9.0445      2.00000
     13      -5.9699      2.00000
     14      -5.7454      2.00000
     15      -5.3434      2.00000
     16      -5.0089      2.00000
     17      -4.8518      2.00000
     18      -4.6248      2.00000
     19      -4.2105      2.00000
     20      -4.0603      2.00000
     21      -3.9303      2.00000
     22      -3.9089      2.00000
     23      -3.7211      2.00000
     24      -3.5674      2.00000
     25      -3.2758      2.00000
     26      -3.1066      2.00000
     27      -2.6024      2.00000
     28      -2.4259      2.00000
     29      -2.4194      2.00000
     30      -2.0507      2.00000
     31      -0.4137      0.00000
     32       0.2252      0.00000
     33       0.3684      0.00000
     34       0.4835      0.00000
     35       1.0095      0.00000
     36       1.1877      0.00000
     37       1.2171      0.00000
     38       1.3807      0.00000
     39       1.8215      0.00000
     40       1.9126      0.00000
     41       2.1503      0.00000
     42       2.6275      0.00000
     43       2.9086      0.00000
     44       3.0504      0.00000
     45       3.0689      0.00000
     46       3.3845      0.00000
     47       3.4096      0.00000
     48       3.4361      0.00000
     49       3.5901      0.00000
     50       3.6876      0.00000
     51       3.8277      0.00000
     52       3.9961      0.00000
     53       4.2929      0.00000
     54       4.5423      0.00000
     55       4.9245      0.00000
     56       5.2208      0.00000
     57       5.2316      0.00000
     58       5.5135      0.00000
     59       5.6152      0.00000
     60       5.6844      0.00000
     61       5.7372      0.00000
     62       5.8620      0.00000
     63       5.9040      0.00000
     64       5.9186      0.00000
     65       6.1104      0.00000
     66       6.2891      0.00000
     67       6.3346      0.00000
     68       6.4680      0.00000
     69       6.5211      0.00000
     70       6.6513      0.00000
     71       6.6640      0.00000
     72       6.7304      0.00000
     73       6.9395      0.00000
     74       7.1548      0.00000
     75       7.1770      0.00000
     76       7.2070      0.00000
     77       7.2711      0.00000
     78       7.4504      0.00000
     79       7.5740      0.00000
     80       7.6801      0.00000
     81       7.8406      0.00000
     82       8.1323      0.00000
     83       8.1811      0.00000
     84       8.2228      0.00000
     85       8.2366      0.00000
     86       8.3014      0.00000
     87       8.3802      0.00000
     88       8.4008      0.00000
     89       8.4403      0.00000
     90       8.6452      0.00000
     91       8.7469      0.00000
     92       8.8660      0.00000
     93       8.8949      0.00000
     94       8.9734      0.00000
     95       9.1118      0.00000
     96       9.1840      0.00000
     97       9.3462      0.00000
     98       9.4185      0.00000
     99       9.6072      0.00000
    100       9.6939      0.00000
    101       9.7545      0.00000
    102       9.8327      0.00000
    103       9.8756      0.00000
    104       9.9292      0.00000
    105      10.0353      0.00000
    106      10.0683      0.00000
    107      10.0907      0.00000
    108      10.1204      0.00000
    109      10.3159      0.00000
    110      10.4007      0.00000
    111      10.4437      0.00000
    112      10.5012      0.00000
    113      10.6530      0.00000
    114      10.7264      0.00000
    115      10.8949      0.00000
    116      11.1574      0.00000
    117      11.2329      0.00000
    118      11.2706      0.00000
    119      11.3879      0.00000
    120      11.4055      0.00000
    121      11.4146      0.00000
    122      11.5498      0.00000
    123      11.5560      0.00000
    124      11.5975      0.00000
    125      11.6331      0.00000
    126      11.6514      0.00000
    127      11.7085      0.00000
    128      11.8437      0.00000
    129      11.8442      0.00000
    130      11.9519      0.00000
    131      12.1750      0.00000
    132      12.2101      0.00000
    133      12.2274      0.00000
    134      12.2365      0.00000
    135      12.2375      0.00000
    136      12.3824      0.00000
    137      12.4424      0.00000
    138      12.5423      0.00000
    139      12.6072      0.00000
    140      12.6133      0.00000
    141      12.6679      0.00000
    142      12.7157      0.00000
    143      12.8175      0.00000
    144      12.8705      0.00000
    145      13.0099      0.00000
    146      13.0458      0.00000
    147      13.0749      0.00000
    148      13.1411      0.00000
    149      13.1585      0.00000
    150      13.2582      0.00000
    151      13.2597      0.00000
    152      13.4664      0.00000
    153      13.4695      0.00000
    154      13.7080      0.00000
    155      13.7754      0.00000
    156      13.8470      0.00000
    157      14.0168      0.00000
    158      14.0615      0.00000
    159      14.1244      0.00000
    160      14.1721      0.00000
    161      14.2219      0.00000
    162      14.2404      0.00000
    163      14.3244      0.00000
    164      14.3551      0.00000
    165      14.5249      0.00000
    166      14.5596      0.00000
    167      14.5776      0.00000
    168      14.6182      0.00000
    169      14.6562      0.00000
    170      14.6791      0.00000
    171      14.7064      0.00000
    172      14.8448      0.00000
    173      14.8469      0.00000
    174      14.8835      0.00000
    175      14.8884      0.00000
    176      14.9978      0.00000
    177      15.1498      0.00000
    178      15.2004      0.00000
    179      15.3525      0.00000
    180      15.4927      0.00000
    181      15.5615      0.00000
    182      15.5653      0.00000
    183      15.6353      0.00000
    184      15.7842      0.00000
    185      15.8190      0.00000
    186      15.8202      0.00000
    187      15.8243      0.00000
    188      15.9218      0.00000
    189      15.9484      0.00000
    190      16.2426      0.00000
    191      16.2602      0.00000
    192      16.3053      0.00000

 k-point     5 :       0.4500    0.0000    0.0000
  band No.  band energies     occupation 
      1     -14.0849      2.00000
      2     -13.7384      2.00000
      3     -13.4439      2.00000
      4     -13.3899      2.00000
      5     -13.1310      2.00000
      6     -13.0645      2.00000
      7     -10.1172      2.00000
      8      -9.8514      2.00000
      9      -9.6044      2.00000
     10      -9.3951      2.00000
     11      -8.9492      2.00000
     12      -8.8982      2.00000
     13      -6.3177      2.00000
     14      -6.2337      2.00000
     15      -5.5496      2.00000
     16      -5.3470      2.00000
     17      -4.9195      2.00000
     18      -4.7590      2.00000
     19      -4.6269      2.00000
     20      -4.0773      2.00000
     21      -4.0701      2.00000
     22      -3.9246      2.00000
     23      -3.5723      2.00000
     24      -3.2546      2.00000
     25      -3.0733      2.00000
     26      -3.0405      2.00000
     27      -2.3940      2.00000
     28      -2.2073      2.00000
     29      -1.9349      2.00000
     30      -1.7763      2.00000
     31      -0.7457      0.00000
     32      -0.2894      0.00000
     33       0.0532      0.00000
     34       0.3132      0.00000
     35       0.4134      0.00000
     36       0.8198      0.00000
     37       0.9088      0.00000
     38       1.2545      0.00000
     39       1.3787      0.00000
     40       2.1545      0.00000
     41       2.2726      0.00000
     42       2.5598      0.00000
     43       3.0425      0.00000
     44       3.1579      0.00000
     45       3.2969      0.00000
     46       3.4121      0.00000
     47       3.9889      0.00000
     48       4.0093      0.00000
     49       4.0705      0.00000
     50       4.0724      0.00000
     51       4.0842      0.00000
     52       4.1523      0.00000
     53       4.6258      0.00000
     54       4.8347      0.00000
     55       4.8577      0.00000
     56       5.2620      0.00000
     57       5.3126      0.00000
     58       5.3837      0.00000
     59       5.4888      0.00000
     60       5.9179      0.00000
     61       5.9643      0.00000
     62       6.1961      0.00000
     63       6.2058      0.00000
     64       6.3366      0.00000
     65       6.3419      0.00000
     66       6.3474      0.00000
     67       6.6675      0.00000
     68       6.6855      0.00000
     69       6.7785      0.00000
     70       6.8911      0.00000
     71       7.0184      0.00000
     72       7.0298      0.00000
     73       7.0740      0.00000
     74       7.2757      0.00000
     75       7.2875      0.00000
     76       7.3238      0.00000
     77       7.3860      0.00000
     78       7.3991      0.00000
     79       7.5472      0.00000
     80       7.6189      0.00000
     81       7.7130      0.00000
     82       7.7188      0.00000
     83       7.8463      0.00000
     84       7.9952      0.00000
     85       8.0072      0.00000
     86       8.0679      0.00000
     87       8.1795      0.00000
     88       8.2687      0.00000
     89       8.2766      0.00000
     90       8.3837      0.00000
     91       8.5609      0.00000
     92       8.6849      0.00000
     93       8.7949      0.00000
     94       8.8103      0.00000
     95       8.9046      0.00000
     96       8.9833      0.00000
     97       9.0910      0.00000
     98       9.2032      0.00000
     99       9.3660      0.00000
    100       9.4212      0.00000
    101       9.5476      0.00000
    102       9.6640      0.00000
    103       9.6717      0.00000
    104       9.7809      0.00000
    105       9.8495      0.00000
    106      10.1480      0.00000
    107      10.1678      0.00000
    108      10.2205      0.00000
    109      10.2263      0.00000
    110      10.4103      0.00000
    111      10.4131      0.00000
    112      10.4663      0.00000
    113      10.5078      0.00000
    114      10.5921      0.00000
    115      10.7578      0.00000
    116      10.7808      0.00000
    117      10.8366      0.00000
    118      10.8820      0.00000
    119      10.9326      0.00000
    120      10.9329      0.00000
    121      11.0547      0.00000
    122      11.2606      0.00000
    123      11.4219      0.00000
    124      11.5071      0.00000
    125      11.6309      0.00000
    126      11.7872      0.00000
    127      11.8435      0.00000
    128      11.8656      0.00000
    129      11.9764      0.00000
    130      12.0552      0.00000
    131      12.3205      0.00000
    132      12.3480      0.00000
    133      12.3786      0.00000
    134      12.4051      0.00000
    135      12.4674      0.00000
    136      12.5736      0.00000
    137      12.6157      0.00000
    138      12.7652      0.00000
    139      12.8568      0.00000
    140      12.9327      0.00000
    141      13.0013      0.00000
    142      13.0142      0.00000
    143      13.0156      0.00000
    144      13.1909      0.00000
    145      13.2092      0.00000
    146      13.2319      0.00000
    147      13.2558      0.00000
    148      13.3006      0.00000
    149      13.3447      0.00000
    150      13.4330      0.00000
    151      13.6098      0.00000
    152      13.6195      0.00000
    153      13.7218      0.00000
    154      13.7366      0.00000
    155      13.7442      0.00000
    156      13.8088      0.00000
    157      13.8401      0.00000
    158      13.8569      0.00000
    159      13.8708      0.00000
    160      13.9916      0.00000
    161      14.0287      0.00000
    162      14.0341      0.00000
    163      14.0528      0.00000
    164      14.2633      0.00000
    165      14.2793      0.00000
    166      14.3999      0.00000
    167      14.5902      0.00000
    168      14.6600      0.00000
    169      14.6841      0.00000
    170      14.7166      0.00000
    171      14.7708      0.00000
    172      14.8000      0.00000
    173      14.8197      0.00000
    174      14.9092      0.00000
    175      14.9473      0.00000
    176      15.0208      0.00000
    177      15.0939      0.00000
    178      15.1054      0.00000
    179      15.1425      0.00000
    180      15.2735      0.00000
    181      15.3961      0.00000
    182      15.4015      0.00000
    183      15.4631      0.00000
    184      15.6136      0.00000
    185      15.6302      0.00000
    186      15.6331      0.00000
    187      15.6609      0.00000
    188      15.8162      0.00000
    189      15.8310      0.00000
    190      15.8351      0.00000
    191      15.9580      0.00000
    192      16.0766      0.00000

 k-point     6 :       0.0500    0.2000    0.0000
  band No.  band energies     occupation 
      1     -14.8075      2.00000
      2     -14.2013      2.00000
      3     -13.9721      2.00000
      4     -13.5209      2.00000
      5     -13.5208      2.00000
      6     -13.4672      2.00000
      7      -9.8929      2.00000
      8      -9.8720      2.00000
      9      -9.3236      2.00000
     10      -8.9473      2.00000
     11      -8.6916      2.00000
     12      -7.9013      2.00000
     13      -5.6050      2.00000
     14      -4.8456      2.00000
     15      -4.7671      2.00000
     16      -4.3576      2.00000
     17      -4.0123      2.00000
     18      -3.9150      2.00000
     19      -3.8764      2.00000
     20      -3.6300      2.00000
     21      -3.6212      2.00000
     22      -3.3380      2.00000
     23      -3.3244      2.00000
     24      -3.2695      2.00000
     25      -3.1509      2.00000
     26      -3.1288      2.00000
     27      -2.9423      2.00000
     28      -2.2801      2.00000
     29      -2.0312      2.00000
     30      -1.9064      2.00000
     31      -0.4758      0.00000
[...]




--------------------------------------- Iteration      1(  18)  ---------------------------------------


    POTLOK:  cpu time    0.0430: real time    0.0431
    SETDIJ:  cpu time    0.0032: real time    0.0032
     EDOTP:  cpu time   28.9939: real time   29.0390
    DPSIDK:  cpu time   55.8990: real time   55.9823
    TRIAL :  cpu time   87.3962: real time   87.5283
    CORREC:  cpu time    0.0005: real time    0.0005
    CHARGE:  cpu time    0.3787: real time    0.3792
    --------------------------------------------
      LOOP:  cpu time   87.8222: real time   87.9549

 eigenvalue-minimisations  :     0
 total energy-change (2. order) :-0.2075994E-06  (-0.1533577E-06)
 number of electron      60.0000003 magnetization 
 augmentation part      -12.8398652 magnetization 

 DIPCOR: dipole corrections for dipol
 direction  3 min pos     1,
 dipolmoment           0.000000      0.000000      0.000000 electrons x Angstroem
 Tr[quadrupol]      -451.031914

 energy correction for charged system         0.000000 eV
 dipol+quadrupol energy correction           -0.000000 eV
 added-field ion interaction         -0.000000 eV  (added to PSCEN)


 Free energy of the ion-electron system (eV)
  ---------------------------------------------------
  alpha Z        PSCENC =        17.47731182
  Ewald energy   TEWEN  =      8437.36301691
  -Hartree energ DENC   =    -10460.26653127
  -exchange      EXHF   =         0.00000000
  -V(xc)+E(xc)   XCENC  =      -698.35585533
  PAW double counting   =      4447.64214759    -3625.42090022
  entropy T*S    EENTRO =        -0.00000000
  eigenvalues    EBANDS =      -413.08194204
  atomic energy  EATOM  =      2242.85346269
  ---------------------------------------------------
  free energy    TOTEN  =       -51.83223667 eV

  energy without entropy =      -51.83223667  energy(sigma->0) =      -51.83223667


--------------------------------------------------------------------------------------------------------




--------------------------------------- Iteration      1(  19)  ---------------------------------------


    POTLOK:  cpu time    0.0437: real time    0.0437
    SETDIJ:  cpu time    0.0032: real time    0.0032
     EDOTP:  cpu time   29.0061: real time   29.0511
    DPSIDK:  cpu time   55.9194: real time   56.0010
    TRIAL :  cpu time   87.4401: real time   87.5713
    CORREC:  cpu time    0.0005: real time    0.0005
    CHARGE:  cpu time    0.3896: real time    0.3902
    --------------------------------------------
      LOOP:  cpu time   87.8775: real time   88.0093

 eigenvalue-minimisations  :     0
 total energy-change (2. order) :-0.1413819E-06  (-0.1046881E-06)
 number of electron      60.0000003 magnetization 
 augmentation part      -12.8398641 magnetization 

 DIPCOR: dipole corrections for dipol
 direction  3 min pos     1,
 dipolmoment           0.000000      0.000000      0.000000 electrons x Angstroem
 Tr[quadrupol]      -451.031914

 energy correction for charged system         0.000000 eV
 dipol+quadrupol energy correction           -0.000000 eV
 added-field ion interaction         -0.000000 eV  (added to PSCEN)


 Free energy of the ion-electron system (eV)
  ---------------------------------------------------
  alpha Z        PSCENC =        17.47731182
  Ewald energy   TEWEN  =      8437.36301691
  -Hartree energ DENC   =    -10460.26646511
  -exchange      EXHF   =         0.00000000
  -V(xc)+E(xc)   XCENC  =      -698.35585991
  PAW double counting   =      4447.64422614    -3625.42298100
  entropy T*S    EENTRO =        -0.00000000
  eigenvalues    EBANDS =      -413.08199977
  atomic energy  EATOM  =      2242.85346269
  ---------------------------------------------------
  free energy    TOTEN  =       -51.83223681 eV

  energy without entropy =      -51.83223681  energy(sigma->0) =      -51.83223681


--------------------------------------------------------------------------------------------------------




--------------------------------------- Iteration      1(  20)  ---------------------------------------


    POTLOK:  cpu time    0.0441: real time    0.0442
    SETDIJ:  cpu time    0.0032: real time    0.0032
     EDOTP:  cpu time   28.9641: real time   29.0078
    DPSIDK:  cpu time   55.8466: real time   55.9300
    TRIAL :  cpu time   87.3124: real time   87.4434
    CORREC:  cpu time    0.0005: real time    0.0005
    CHARGE:  cpu time    0.3774: real time    0.3780
    --------------------------------------------
      LOOP:  cpu time   87.7383: real time   87.8699

 eigenvalue-minimisations  :     0
 total energy-change (2. order) :-0.9712267E-07  (-0.7186872E-07)
 number of electron      60.0000003 magnetization 
 augmentation part      -12.8398635 magnetization 

 DIPCOR: dipole corrections for dipol
 direction  3 min pos     1,
 dipolmoment           0.000000      0.000000      0.000000 electrons x Angstroem
 Tr[quadrupol]      -451.031918

 energy correction for charged system         0.000000 eV
 dipol+quadrupol energy correction           -0.000000 eV
 added-field ion interaction         -0.000000 eV  (added to PSCEN)


 Free energy of the ion-electron system (eV)
  ---------------------------------------------------
  alpha Z        PSCENC =        17.47731182
  Ewald energy   TEWEN  =      8437.36301691
  -Hartree energ DENC   =    -10460.26646332
  -exchange      EXHF   =         0.00000000
  -V(xc)+E(xc)   XCENC  =      -698.35586321
  PAW double counting   =      4447.64618917    -3625.42494557
  entropy T*S    EENTRO =        -0.00000000
  eigenvalues    EBANDS =      -413.08199543
  atomic energy  EATOM  =      2242.85346269
  ---------------------------------------------------
  free energy    TOTEN  =       -51.83223691 eV

  energy without entropy =      -51.83223691  energy(sigma->0) =      -51.83223691


--------------------------------------------------------------------------------------------------------




--------------------------------------- Iteration      1(  21)  ---------------------------------------


    POTLOK:  cpu time    0.0449: real time    0.0450
    SETDIJ:  cpu time    0.0032: real time    0.0032
     EDOTP:  cpu time   28.9679: real time   29.0118
    DPSIDK:  cpu time   55.8945: real time   55.9825
    TRIAL :  cpu time   87.3749: real time   87.5105
    CORREC:  cpu time    0.0005: real time    0.0005
    CHARGE:  cpu time    0.3933: real time    0.3938
    --------------------------------------------
      LOOP:  cpu time   87.8173: real time   87.9535

 eigenvalue-minimisations  :     0
 total energy-change (2. order) :-0.6742675E-07  (-0.4961462E-07)
 number of electron      60.0000003 magnetization 
 augmentation part      -12.8398633 magnetization 

 DIPCOR: dipole corrections for dipol
 direction  3 min pos     1,
 dipolmoment           0.000000      0.000000      0.000000 electrons x Angstroem
 Tr[quadrupol]      -451.031920

 energy correction for charged system         0.000000 eV
 dipol+quadrupol energy correction           -0.000000 eV
 added-field ion interaction         -0.000000 eV  (added to PSCEN)


 Free energy of the ion-electron system (eV)
  ---------------------------------------------------
  alpha Z        PSCENC =        17.47731182
  Ewald energy   TEWEN  =      8437.36301691
  -Hartree energ DENC   =    -10460.26644240
  -exchange      EXHF   =         0.00000000
  -V(xc)+E(xc)   XCENC  =      -698.35586585
  PAW double counting   =      4447.64772507    -3625.42648224
  entropy T*S    EENTRO =        -0.00000000
  eigenvalues    EBANDS =      -413.08201186
  atomic energy  EATOM  =      2242.85346269
  ---------------------------------------------------
  free energy    TOTEN  =       -51.83223698 eV

  energy without entropy =      -51.83223698  energy(sigma->0) =      -51.83223698


--------------------------------------------------------------------------------------------------------




--------------------------------------- Iteration      1(  22)  ---------------------------------------


    POTLOK:  cpu time    0.0441: real time    0.0441
    SETDIJ:  cpu time    0.0031: real time    0.0031
     EDOTP:  cpu time   28.9867: real time   29.0305
    DPSIDK:  cpu time   55.9244: real time   56.0093
    TRIAL :  cpu time   87.4276: real time   87.5602
    CORREC:  cpu time    0.0005: real time    0.0005
    CHARGE:  cpu time    0.3824: real time    0.3830
    --------------------------------------------
      LOOP:  cpu time   87.8583: real time   87.9916

 eigenvalue-minimisations  :     0
 total energy-change (2. order) :-0.4691174E-07  (-0.3446917E-07)
 number of electron      60.0000003 magnetization 
 augmentation part      -12.8398632 magnetization 

 DIPCOR: dipole corrections for dipol
 direction  3 min pos     1,
 dipolmoment           0.000000      0.000000      0.000000 electrons x Angstroem
 Tr[quadrupol]      -451.031920

 energy correction for charged system         0.000000 eV
 dipol+quadrupol energy correction           -0.000000 eV
 added-field ion interaction         -0.000000 eV  (added to PSCEN)


 Free energy of the ion-electron system (eV)
  ---------------------------------------------------
  alpha Z        PSCENC =        17.47731182
  Ewald energy   TEWEN  =      8437.36301691
  -Hartree energ DENC   =    -10460.26640711
  -exchange      EXHF   =         0.00000000
  -V(xc)+E(xc)   XCENC  =      -698.35586867
  PAW double counting   =      4447.64884040    -3625.42759775
  entropy T*S    EENTRO =        -0.00000000
  eigenvalues    EBANDS =      -413.08204322
  atomic energy  EATOM  =      2242.85346269
  ---------------------------------------------------
  free energy    TOTEN  =       -51.83223702 eV

  energy without entropy =      -51.83223702  energy(sigma->0) =      -51.83223702


--------------------------------------------------------------------------------------------------------




--------------------------------------- Iteration      1(  23)  ---------------------------------------


    POTLOK:  cpu time    0.0441: real time    0.0441
    SETDIJ:  cpu time    0.0031: real time    0.0031
     EDOTP:  cpu time   28.9757: real time   29.0192
    DPSIDK:  cpu time   55.8929: real time   55.9792
    TRIAL :  cpu time   87.3741: real time   87.5077
    CORREC:  cpu time    0.0005: real time    0.0005
    CHARGE:  cpu time    0.3775: real time    0.3780
    --------------------------------------------
      LOOP:  cpu time   87.7997: real time   87.9339

 eigenvalue-minimisations  :     0
 total energy-change (2. order) :-0.3234118E-07  (-0.2409787E-07)
 number of electron      60.0000003 magnetization 
 augmentation part      -12.8398630 magnetization 

 DIPCOR: dipole corrections for dipol
 direction  3 min pos     1,
 dipolmoment           0.000000      0.000000      0.000000 electrons x Angstroem
 Tr[quadrupol]      -451.031921

 energy correction for charged system         0.000000 eV
 dipol+quadrupol energy correction           -0.000000 eV
 added-field ion interaction         -0.000000 eV  (added to PSCEN)


 Free energy of the ion-electron system (eV)
  ---------------------------------------------------
  alpha Z        PSCENC =        17.47731182
  Ewald energy   TEWEN  =      8437.36301691
  -Hartree energ DENC   =    -10460.26638710
  -exchange      EXHF   =         0.00000000
  -V(xc)+E(xc)   XCENC  =      -698.35587162
  PAW double counting   =      4447.64966564    -3625.42842296
  entropy T*S    EENTRO =        -0.00000000
  eigenvalues    EBANDS =      -413.08205951
  atomic energy  EATOM  =      2242.85346269
  ---------------------------------------------------
  free energy    TOTEN  =       -51.83223706 eV

  energy without entropy =      -51.83223706  energy(sigma->0) =      -51.83223706


--------------------------------------------------------------------------------------------------------




--------------------------------------- Iteration      1(  24)  ---------------------------------------


    POTLOK:  cpu time    0.0440: real time    0.0441
    SETDIJ:  cpu time    0.0032: real time    0.0032
     EDOTP:  cpu time   28.9646: real time   29.0093
    DPSIDK:  cpu time   55.8849: real time   55.9672
    TRIAL :  cpu time   87.3668: real time   87.4978
    CORREC:  cpu time    0.0005: real time    0.0005
    CHARGE:  cpu time    0.3943: real time    0.3948
    --------------------------------------------
      LOOP:  cpu time   87.8093: real time   87.9409

 eigenvalue-minimisations  :     0
 total energy-change (2. order) :-0.2300931E-07  (-0.1694094E-07)
 number of electron      60.0000003 magnetization 
 augmentation part      -12.8398627 magnetization 

 DIPCOR: dipole corrections for dipol
 direction  3 min pos     1,
 dipolmoment           0.000000      0.000000      0.000000 electrons x Angstroem
 Tr[quadrupol]      -451.031922

 energy correction for charged system         0.000000 eV
 dipol+quadrupol energy correction           -0.000000 eV
 added-field ion interaction         -0.000000 eV  (added to PSCEN)


 Free energy of the ion-electron system (eV)
  ---------------------------------------------------
  alpha Z        PSCENC =        17.47731182
  Ewald energy   TEWEN  =      8437.36301691
  -Hartree energ DENC   =    -10460.26637108
  -exchange      EXHF   =         0.00000000
  -V(xc)+E(xc)   XCENC  =      -698.35587415
  PAW double counting   =      4447.65028979    -3625.42904718
  entropy T*S    EENTRO =        -0.00000000
  eigenvalues    EBANDS =      -413.08207222
  atomic energy  EATOM  =      2242.85346269
  ---------------------------------------------------
  free energy    TOTEN  =       -51.83223708 eV

  energy without entropy =      -51.83223708  energy(sigma->0) =      -51.83223708


--------------------------------------------------------------------------------------------------------




--------------------------------------- Iteration      1(  25)  ---------------------------------------


    POTLOK:  cpu time    0.0449: real time    0.0449
    SETDIJ:  cpu time    0.0032: real time    0.0032
     EDOTP:  cpu time   28.9611: real time   29.0074
    DPSIDK:  cpu time   55.8948: real time   55.9791
    TRIAL :  cpu time   87.3598: real time   87.4942
    CORREC:  cpu time    0.0005: real time    0.0005
    CHARGE:  cpu time    0.3853: real time    0.3857
    --------------------------------------------
      LOOP:  cpu time   87.7943: real time   87.9292

 eigenvalue-minimisations  :     0
 total energy-change (2. order) :-0.1634044E-07  (-0.1196204E-07)
 number of electron      60.0000003 magnetization 
 augmentation part      -12.8398624 magnetization 

 DIPCOR: dipole corrections for dipol
 direction  3 min pos     1,
 dipolmoment           0.000000      0.000000      0.000000 electrons x Angstroem
 Tr[quadrupol]      -451.031923

 energy correction for charged system         0.000000 eV
 dipol+quadrupol energy correction           -0.000000 eV
 added-field ion interaction         -0.000000 eV  (added to PSCEN)


 Free energy of the ion-electron system (eV)
  ---------------------------------------------------
  alpha Z        PSCENC =        17.47731182
  Ewald energy   TEWEN  =      8437.36301691
  -Hartree energ DENC   =    -10460.26635231
  -exchange      EXHF   =         0.00000000
  -V(xc)+E(xc)   XCENC  =      -698.35587591
  PAW double counting   =      4447.65076023    -3625.42951788
  entropy T*S    EENTRO =        -0.00000000
  eigenvalues    EBANDS =      -413.08208838
  atomic energy  EATOM  =      2242.85346269
  ---------------------------------------------------
  free energy    TOTEN  =       -51.83223710 eV

  energy without entropy =      -51.83223710  energy(sigma->0) =      -51.83223710


--------------------------------------------------------------------------------------------------------




--------------------------------------- Iteration      1(  26)  ---------------------------------------


    POTLOK:  cpu time    0.0439: real time    0.0440
    SETDIJ:  cpu time    0.0033: real time    0.0033
     EDOTP:  cpu time   28.9906: real time   29.0352
    DPSIDK:  cpu time   55.9158: real time   55.9991
    TRIAL :  cpu time   87.4181: real time   87.5498
    CORREC:  cpu time    0.0005: real time    0.0005
    CHARGE:  cpu time    0.3859: real time    0.3863
    --------------------------------------------
      LOOP:  cpu time   87.8521: real time   87.9843

 eigenvalue-minimisations  :     0
 total energy-change (2. order) :-0.1173930E-07  (-0.8474304E-08)
 number of electron      60.0000003 magnetization 
 augmentation part      -12.8398622 magnetization 

 DIPCOR: dipole corrections for dipol
 direction  3 min pos     1,
 dipolmoment           0.000000      0.000000      0.000000 electrons x Angstroem
 Tr[quadrupol]      -451.031923

 energy correction for charged system         0.000000 eV
 dipol+quadrupol energy correction           -0.000000 eV
 added-field ion interaction         -0.000000 eV  (added to PSCEN)


 Free energy of the ion-electron system (eV)
  ---------------------------------------------------
  alpha Z        PSCENC =        17.47731182
  Ewald energy   TEWEN  =      8437.36301691
  -Hartree energ DENC   =    -10460.26634141
  -exchange      EXHF   =         0.00000000
  -V(xc)+E(xc)   XCENC  =      -698.35587700
  PAW double counting   =      4447.65112950    -3625.42988750
  entropy T*S    EENTRO =        -0.00000000
  eigenvalues    EBANDS =      -413.08209734
  atomic energy  EATOM  =      2242.85346269
  ---------------------------------------------------
  free energy    TOTEN  =       -51.83223711 eV

  energy without entropy =      -51.83223711  energy(sigma->0) =      -51.83223711


--------------------------------------------------------------------------------------------------------




--------------------------------------- Iteration      1(  27)  ---------------------------------------


    POTLOK:  cpu time    0.0442: real time    0.0442
    SETDIJ:  cpu time    0.0031: real time    0.0031
     EDOTP:  cpu time   28.9712: real time   29.0152
    DPSIDK:  cpu time   55.9465: real time   56.0313
    TRIAL :  cpu time   87.4310: real time   87.5636
    CORREC:  cpu time    0.0005: real time    0.0005
    CHARGE:  cpu time    0.3811: real time    0.3815
    --------------------------------------------
      LOOP:  cpu time   87.8603: real time   87.9934

 eigenvalue-minimisations  :     0
 total energy-change (2. order) :-0.8469215E-08  (-0.6019411E-08)
 number of electron      60.0000003 magnetization 
 augmentation part      -12.8398620 magnetization 

 DIPCOR: dipole corrections for dipol
 direction  3 min pos     1,
 dipolmoment           0.000000      0.000000      0.000000 electrons x Angstroem
 Tr[quadrupol]      -451.031924

 energy correction for charged system         0.000000 eV
 dipol+quadrupol energy correction           -0.000000 eV
 added-field ion interaction         -0.000000 eV  (added to PSCEN)


 Free energy of the ion-electron system (eV)
  ---------------------------------------------------
  alpha Z        PSCENC =        17.47731182
  Ewald energy   TEWEN  =      8437.36301691
  -Hartree energ DENC   =    -10460.26633708
  -exchange      EXHF   =         0.00000000
  -V(xc)+E(xc)   XCENC  =      -698.35587779
  PAW double counting   =      4447.65145362    -3625.43021190
  entropy T*S    EENTRO =        -0.00000000
  eigenvalues    EBANDS =      -413.08210017
  atomic energy  EATOM  =      2242.85346269
  ---------------------------------------------------
  free energy    TOTEN  =       -51.83223712 eV

  energy without entropy =      -51.83223712  energy(sigma->0) =      -51.83223712


--------------------------------------------------------------------------------------------------------




--------------------------------------- Iteration      1(  28)  ---------------------------------------


    POTLOK:  cpu time    0.0436: real time    0.0436
    SETDIJ:  cpu time    0.0032: real time    0.0032
     EDOTP:  cpu time   28.9602: real time   29.0045
