 running on  192 total cores
 distrk:  each k-point on  192 cores,    1 groups
 distr:  one band on   24 cores,    8 groups
 using from now: INCAR     
 vasp.5.4.4.18Apr17-6-g9f103f2a35 (build Oct 01 2024 10:11:53) complex          
  
 POSCAR found type information on POSCAR  S  Se Sn Pb
 POSCAR found :  4 types and      20 ions
 scaLAPACK will be used

 ----------------------------------------------------------------------------- 
|                                                                             |
|  ADVICE TO THIS USER RUNNING 'VASP/VAMP'   (HEAR YOUR MASTER'S VOICE ...):  |
|                                                                             |
|      You have a (more or less) 'large supercell' and for larger cells       |
|      it might be more efficient to use real space projection opertators     |
|      So try LREAL= Auto  in the INCAR   file.                               |
|      Mind:          For very  accurate calculation you might also keep the  |
|      reciprocal projection scheme          (i.e. LREAL=.FALSE.)             |
|                                                                             |
 ----------------------------------------------------------------------------- 

 WARNING: PSMAXN for non-local potential too small
 WARNING: PSMAXN for non-local potential too small
 LDA part: xc-table for Pade appr. of Perdew
 WARNING: stress and forces are not correct
 POSCAR, INCAR and KPOINTS ok, starting setup
 FFT: planning ...
 WAVECAR not read
 charge-density read from file: SnSe                                    
 WARNING: random wavefunctions but no delay for mixing, default for NELMDL
 entering main loop
       N       E                     dE             d eps       ncg     rms          rms(c)
DAV:   1     0.691477523409E+03    0.69148E+03   -0.34829E+04  5128   0.130E+03
DAV:   2     0.379068373943E+02   -0.65357E+03   -0.62783E+03  7248   0.191E+02
DAV:   3    -0.770745733707E+02   -0.11498E+03   -0.11255E+03  6112   0.847E+01
DAV:   4    -0.846758482262E+02   -0.76013E+01   -0.75469E+01  7360   0.229E+01
DAV:   5    -0.848477539512E+02   -0.17191E+00   -0.17153E+00  6568   0.373E+00
DAV:   6    -0.848548012395E+02   -0.70473E-02   -0.70441E-02  7688   0.722E-01
DAV:   7    -0.848550045341E+02   -0.20329E-03   -0.20324E-03  6584   0.121E-01
DAV:   8    -0.848550155982E+02   -0.11064E-04   -0.11063E-04  6960   0.258E-02
DAV:   9    -0.848550161357E+02   -0.53749E-06   -0.53736E-06  5312   0.550E-03
   1 F= -.88219619E+02 E0= -.88219619E+02  d E =0.000000E+00
